    4    4  200    1
  0.9306161E+01  0.2467155E-09  0.2467155E-09  0.7062029E-09  0.5000000E-15
  1.000000000000000E-004
  CAR 
 graphite                                
     16    455     12
 
  0.0000000E+00  0.0000000E+00  0.0000000E+00  0.3858025E-03
    1      -15.346213
    2      -15.146255
    3       -4.061682
    4       -2.558005
    5        1.223129
    6        1.227831
    7        1.233754
    8        1.238448
    9        8.159685
   10       12.554869
   11       12.565006
   12       12.587722
 
  0.5555556E-01  0.0000000E+00  0.0000000E+00  0.1543210E-02
    1      -15.272776
    2      -15.073787
    3       -3.972718
    4       -2.473519
    5        0.926295
    6        0.941585
    7        1.066552
    8        1.080279
    9        8.250233
   10       12.586343
   11       12.630058
   12       12.869872
 
  0.1111111E+00  0.0000000E+00  0.0000000E+00  0.1543210E-02
    1      -15.052896
    2      -14.856776
    3       -3.706848
    4       -2.221755
    5        0.102721
    6        0.128948
    7        0.648892
    8        0.668169
    9        8.522427
   10       12.608232
   11       12.685815
   12       13.762562
 
  0.1666667E+00  0.2775558E-16  0.0000000E+00  0.1543210E-02
    1      -14.687712
    2      -14.496246
    3       -3.266510
    4       -1.806475
    5       -1.078952
    6       -1.038890
    7        0.088272
    8        0.112145
    9        8.976418
   10       12.516830
   11       12.644494
   12       13.439226
 
  0.2222222E+00 -0.1387779E-16  0.0000000E+00  0.1543210E-02
    1      -14.179093
    2      -13.994163
    3       -2.657265
    4       -2.460655
    5       -2.405889
    6       -1.235252
    7       -0.506906
    8       -0.479455
    9        9.610275
   10       12.022881
   11       12.317863
   12       12.489833
 
  0.2777778E+00  0.2775558E-16  0.0000000E+00  0.1543210E-02
    1      -13.530178
    2      -13.353389
    3       -3.927885
    4       -3.857963
    5       -1.888706
    6       -1.060664
    7       -1.031020
    8       -0.522400
    9       10.417666
   10       10.448454
   11       10.978581
   12       12.075097
 
  0.3333333E+00  0.5551115E-16  0.0000000E+00  0.1543210E-02
    1      -12.746211
    2      -12.579492
    3       -5.403876
    4       -5.318591
    5       -1.525918
    6       -1.494379
    7       -0.979739
    8        0.302901
    9        8.838867
   10        9.505246
   11       11.360966
   12       11.854083
 
  0.3888889E+00  0.2775558E-16  0.0000000E+00  0.1543210E-02
    1      -11.836804
    2      -11.681728
    3       -6.832722
    4       -6.733518
    5       -1.873974
    6       -1.841346
    7        0.028885
    8        1.171260
    9        7.332668
   10        8.085033
   11       11.633253
   12       11.862489
 
  0.4444444E+00 -0.2775558E-16  0.0000000E+00  0.1543210E-02
    1      -10.830789
    2      -10.693130
    3       -8.154633
    4       -8.046928
    5       -2.088385
    6       -2.055191
    7        1.025408
    8        1.888524
    9        6.166693
   10        6.874013
   11       11.522280
   12       11.783779
 
  0.5000000E+00 -0.5551115E-16  0.0000000E+00  0.7716049E-03
    1      -10.049053
    2       -9.976151
    3       -8.985823
    4       -8.930263
    5       -2.160679
    6       -2.127434
    7        1.589461
    8        2.105612
    9        5.741736
   10        6.291248
   11       11.482591
   12       11.750986
 
  0.5555556E-01  0.5555556E-01  0.0000000E+00  0.7716049E-03
    1      -15.126124
    2      -14.929041
    3       -3.795292
    4       -2.305521
    5        0.395820
    6        0.411161
    7        0.753945
    8        0.766076
    9        8.431754
   10       12.689891
   11       12.750006
   12       13.390356
 
  0.1111111E+00  0.5555556E-01  0.0000000E+00  0.1543210E-02
    1      -14.833576
    2      -14.640269
    3       -3.442112
    4       -1.971805
    5       -0.554133
    6       -0.527156
    7        0.210711
    8        0.229392
    9        8.795512
   10       12.784684
   11       12.882293
   12       13.931045
 
  0.1666667E+00  0.5555556E-01  0.0000000E+00  0.1543210E-02
    1      -14.396655
    2      -14.208946
    3       -2.917062
    4       -1.795191
    5       -1.751617
    6       -1.478109
    7       -0.411782
    8       -0.385795
    9        9.340754
   10       12.647212
   11       12.707046
   12       12.858289
 
  0.2222222E+00  0.5555556E-01  0.0000000E+00  0.1543210E-02
    1      -13.817866
    2      -13.637508
    3       -3.194491
    4       -3.134198
    5       -2.227352
    6       -1.014321
    7       -0.983413
    8       -0.834648
    9       10.064163
   10       11.172205
   11       11.604143
   12       12.507452
 
  0.2777778E+00  0.5555556E-01  0.0000000E+00  0.1543210E-02
    1      -13.101240
    2      -12.929879
    3       -4.651175
    4       -4.575111
    5       -1.539825
    6       -1.505883
    7       -1.386250
    8       -0.061331
    9        9.595306
   10       10.169365
   11       10.956320
   12       12.275928
 
  0.3333333E+00  0.5555556E-01  0.0000000E+00  0.1543210E-02
    1      -12.253921
    2      -12.093393
    3       -6.096004
    4       -6.004852
    5       -1.955094
    6       -1.919298
    7       -0.420707
    8        0.798548
    9        8.038582
   10        8.731576
   11       11.908709
   12       12.108997
 
  0.3888889E+00  0.5555556E-01  0.0000000E+00  0.1543210E-02
    1      -11.290988
    2      -11.144020
    3       -7.473291
    4       -7.369040
    5       -2.240891
    6       -2.203891
    7        0.604975
    8        1.631688
    9        6.672295
   10        7.402907
   11       11.893525
   12       12.150376
 
  0.4444444E+00  0.5555556E-01  0.0000000E+00  0.1543210E-02
    1      -10.289033
    2      -10.172323
    3       -8.669293
    4       -8.571595
    5       -2.386243
    6       -2.348671
    7        1.484031
    8        2.132161
    9        5.837247
   10        6.423545
   11       11.816118
   12       12.091026
 
  0.5000000E+00  0.5555556E-01  0.0000000E+00  0.1543210E-02
    1      -10.289206
    2      -10.172485
    3       -8.669116
    4       -8.571406
    5       -2.386278
    6       -2.348706
    7        1.483979
    8        2.132160
    9        5.837254
   10        6.423541
   11       11.816201
   12       12.091115
 
 -0.4444444E+00  0.5555556E-01  0.0000000E+00  0.1543210E-02
    1      -11.291182
    2      -11.144213
    3       -7.473057
    4       -7.368807
    5       -2.240988
    6       -2.203989
    7        0.604888
    8        1.631650
    9        6.672295
   10        7.402869
   11       11.893782
   12       12.150652
 
 -0.3888889E+00  0.5555556E-01  0.0000000E+00  0.1543210E-02
    1      -12.254096
    2      -12.093567
    3       -6.095784
    4       -6.004636
    5       -1.955225
    6       -1.919432
    7       -0.420801
    8        0.798492
    9        8.038536
   10        8.731478
   11       11.908895
   12       12.109345
 
 -0.3333333E+00  0.5555556E-01  0.0000000E+00  0.1543210E-02
    1      -13.101390
    2      -12.930028
    3       -4.651022
    4       -4.574967
    5       -1.539928
    6       -1.505994
    7       -1.386339
    8       -0.061392
    9        9.595181
   10       10.169189
   11       10.956184
   12       12.276564
 
 -0.2777778E+00  0.5555556E-01  0.0000000E+00  0.1543210E-02
    1      -13.817989
    2      -13.637631
    3       -3.194513
    4       -3.134240
    5       -2.227430
    6       -1.014265
    7       -0.983377
    8       -0.834705
    9       10.064037
   10       11.171978
   11       11.603888
   12       12.508383
 
 -0.2222222E+00  0.5555556E-01  0.0000000E+00  0.1543210E-02
    1      -14.396751
    2      -14.209042
    3       -2.917126
    4       -1.795624
    5       -1.752096
    6       -1.478158
    7       -0.411291
    8       -0.385350
    9        9.340652
   10       12.645254
   11       12.708010
   12       12.859929
 
 -0.1666667E+00  0.5555556E-01  0.0000000E+00  0.1543210E-02
    1      -14.833645
    2      -14.640338
    3       -3.442160
    4       -1.971842
    5       -0.555488
    6       -0.528598
    7        0.212191
    8        0.230783
    9        8.795438
   10       12.786846
   11       12.884532
   12       13.896866
 
 -0.1111111E+00  0.5555556E-01  0.0000000E+00  0.1543210E-02
    1      -15.126165
    2      -14.929082
    3       -3.795321
    4       -2.305544
    5        0.392756
    6        0.408103
    7        0.757066
    8        0.769194
    9        8.431709
   10       12.693035
   11       12.753196
   12       13.390545
 
 -0.5555556E-01  0.5555556E-01  0.0000000E+00  0.7716049E-03
    1      -15.272790
    2      -15.073801
    3       -3.972728
    4       -2.473527
    5        0.922876
    6        0.938175
    7        1.070000
    8        1.083726
    9        8.250218
   10       12.588978
   11       12.636383
   12       12.867669
 
  0.1111111E+00  0.1111111E+00  0.0000000E+00  0.7716049E-03
    1      -14.469349
    2      -14.280721
    3       -3.004034
    4       -1.559529
    5       -1.453109
    6       -1.428653
    7       -0.492441
    8       -0.475349
    9        9.251531
   10       12.887002
   11       13.189085
   12       13.206378
 
  0.1666667E+00  0.1111111E+00  0.0000000E+00  0.1543210E-02
    1      -13.962233
    2      -13.780027
    3       -2.597374
    4       -2.557463
    5       -2.397740
    6       -1.237130
    7       -1.210729
    8       -0.992196
    9        9.888323
   10       11.622811
   11       11.946306
   12       13.396587
 
  0.2222222E+00  0.1111111E+00  0.0000000E+00  0.1543210E-02
    1      -13.315643
    2      -13.141613
    3       -3.919972
    4       -3.859256
    5       -1.882514
    6       -1.845881
    7       -1.632968
    8       -0.283755
    9       10.189714
   10       10.622703
   11       10.701260
   12       13.250703
 
  0.2777778E+00  0.1111111E+00  0.0000000E+00  0.1543210E-02
    1      -12.535058
    2      -12.370975
    3       -5.312925
    4       -5.233952
    5       -2.394408
    6       -2.351952
    7       -0.727808
    8        0.538288
    9        8.689006
   10        9.250028
   11       11.680519
   12       13.051876
 
  0.3333333E+00  0.1111111E+00  0.0000000E+00  0.1543210E-02
    1      -11.630943
    2      -11.478461
    3       -6.693600
    4       -6.598931
    5       -2.765335
    6       -2.719663
    7        0.278797
    8        1.408990
    9        7.252650
   10        7.907718
   11       12.730922
   12       12.918709
 
  0.3888889E+00  0.1111111E+00  0.0000000E+00  0.1543210E-02
    1      -10.632651
    2      -10.497728
    3       -7.986410
    4       -7.882287
    5       -2.990260
    6       -2.942781
    7        1.280204
    8        2.141254
    9        6.117859
   10        6.734103
   11       12.736202
   12       13.035419
 
  0.4444444E+00  0.1111111E+00  0.0000000E+00  0.1543210E-02
    1       -9.860782
    2       -9.789227
    3       -8.802885
    4       -8.749628
    5       -3.065519
    6       -3.017745
    7        1.856204
    8        2.367968
    9        5.711646
   10        6.140062
   11       12.696786
   12       13.007420
 
  0.5000000E+00  0.1111111E+00  0.0000000E+00  0.1543210E-02
    1      -10.633042
    2      -10.498111
    3       -7.985976
    4       -7.881850
    5       -2.990359
    6       -2.942883
    7        1.280057
    8        2.141219
    9        6.117853
   10        6.734052
   11       12.736515
   12       13.035772
 
 -0.4444444E+00  0.1111111E+00  0.0000000E+00  0.1543210E-02
    1      -11.631313
    2      -11.478830
    3       -6.693166
    4       -6.598503
    5       -2.765492
    6       -2.719827
    7        0.278619
    8        1.408898
    9        7.252570
   10        7.907561
   11       12.731310
   12       12.919502
 
 -0.3888889E+00  0.1111111E+00  0.0000000E+00  0.1543210E-02
    1      -12.535382
    2      -12.371298
    3       -5.312609
    4       -5.233654
    5       -2.394513
    6       -2.352073
    7       -0.727987
    8        0.538175
    9        8.688779
   10        9.249730
   11       11.680189
   12       13.052991
 
 -0.3333333E+00  0.1111111E+00  0.0000000E+00  0.1543210E-02
    1      -13.315915
    2      -13.141885
    3       -3.919994
    4       -3.859317
    5       -1.882317
    6       -1.845723
    7       -1.633132
    8       -0.283869
    9       10.189285
   10       10.622256
   11       10.700964
   12       13.252417
 
 -0.2777778E+00  0.1111111E+00  0.0000000E+00  0.1543210E-02
    1      -13.962452
    2      -13.780245
    3       -2.598190
    4       -2.558344
    5       -2.397880
    6       -1.236133
    7       -1.209798
    8       -0.992299
    9        9.888084
   10       11.622162
   11       11.945742
   12       13.386488
 
 -0.2222222E+00  0.1111111E+00  0.0000000E+00  0.1543210E-02
    1      -14.469513
    2      -14.280886
    3       -3.004143
    4       -1.559612
    5       -1.455293
    6       -1.430827
    7       -0.490128
    8       -0.473033
    9        9.251351
   10       12.885729
   11       13.149168
   12       13.201674
 
 -0.1666667E+00  0.1111111E+00  0.0000000E+00  0.1543210E-02
    1      -14.833686
    2      -14.640379
    3       -3.442187
    4       -1.971864
    5       -0.557370
    6       -0.530375
    7        0.214103
    8        0.232795
    9        8.795389
   10       12.788937
   11       12.886546
   12       13.902681
 
 -0.1111111E+00  0.1111111E+00  0.0000000E+00  0.7716049E-03
    1      -15.052951
    2      -14.856831
    3       -3.706886
    4       -2.221785
    5        0.099493
    6        0.125728
    7        0.652253
    8        0.671530
    9        8.522364
   10       12.611338
   11       12.688900
   12       13.777796
 
  0.1666667E+00  0.1666667E+00  0.0000000E+00  0.7716049E-03
    1      -13.387294
    2      -13.212364
    3       -3.514031
    4       -3.479885
    5       -2.155502
    6       -2.130652
    7       -1.715631
    8       -0.358474
    9       10.432738
   10       10.614730
   11       10.776758
   12       14.209728
 
  0.2222222E+00  0.1666667E+00  0.0000000E+00  0.1543210E-02
    1      -12.676572
    2      -12.510675
    3       -4.634468
    4       -4.581153
    5       -2.924631
    6       -2.886786
    7       -0.883481
    8        0.404870
    9        9.118273
   10        9.527692
   11       11.513048
   12       14.366649
 
  0.2777778E+00  0.1666667E+00  0.0000000E+00  0.1543210E-02
    1      -11.837991
    2      -11.682727
    3       -5.899405
    4       -5.822075
    5       -3.463389
    6       -3.412982
    7        0.074304
    8        1.260558
    9        7.755427
   10        8.263515
   11       12.571702
   12       14.224018
 
  0.3333333E+00  0.1666667E+00  0.0000000E+00  0.1543210E-02
    1      -10.888132
    2      -10.746472
    3       -7.181287
    4       -7.086840
    5       -3.802995
    6       -3.746279
    7        1.100303
    8        2.110339
    9        6.496490
   10        7.056776
   11       13.748664
   12       14.087245
 
  0.3888889E+00  0.1666667E+00  0.0000000E+00  0.1543210E-02
    1       -9.904956
    2       -9.792951
    3       -8.325234
    4       -8.234795
    5       -3.968785
    6       -3.909424
    7        2.003245
    8        2.650714
    9        5.706130
   10        6.093208
   11       13.972696
   12       14.367566
 
  0.4444444E+00  0.1666667E+00  0.0000000E+00  0.1543210E-02
    1       -9.905571
    2       -9.793423
    3       -8.324758
    4       -8.234313
    5       -3.968825
    6       -3.909470
    7        2.003103
    8        2.650724
    9        5.706093
   10        6.093162
   11       13.972907
   12       14.367844
 
  0.5000000E+00  0.1666667E+00  0.0000000E+00  0.1543210E-02
    1      -10.888707
    2      -10.747042
    3       -7.180684
    4       -7.086247
    5       -3.803068
    6       -3.746364
    7        1.100070
    8        2.110257
    9        6.496346
   10        7.056583
   11       13.748273
   12       14.087663
 
 -0.4444444E+00  0.1666667E+00  0.0000000E+00  0.1543210E-02
    1      -11.838510
    2      -11.683245
    3       -5.899001
    4       -5.821701
    5       -3.463319
    6       -3.412943
    7        0.074051
    8        1.260420
    9        7.755067
   10        8.263134
   11       12.571101
   12       14.225191
 
 -0.3888889E+00  0.1666667E+00  0.0000000E+00  0.1543210E-02
    1      -12.677019
    2      -12.511121
    3       -4.634666
    4       -4.581406
    5       -2.924003
    6       -2.886216
    7       -0.883727
    8        0.404713
    9        9.117610
   10        9.527121
   11       11.512532
   12       14.369208
 
 -0.3333333E+00  0.1666667E+00  0.0000000E+00  0.1543210E-02
    1      -13.387663
    2      -13.212732
    3       -3.515387
    4       -3.481226
    5       -2.153823
    6       -2.128965
    7       -1.715850
    8       -0.358627
    9       10.431753
   10       10.614311
   11       10.776026
   12       14.169739
 
 -0.2777778E+00  0.1666667E+00  0.0000000E+00  0.1543210E-02
    1      -13.962521
    2      -13.780314
    3       -2.599717
    4       -2.559772
    5       -2.397921
    6       -1.234480
    7       -1.208052
    8       -0.992329
    9        9.888001
   10       11.621610
   11       11.945457
   12       13.376343
 
 -0.2222222E+00  0.1666667E+00  0.0000000E+00  0.1543210E-02
    1      -14.396860
    2      -14.209151
    3       -2.917196
    4       -1.798023
    5       -1.754446
    6       -1.478211
    7       -0.408592
    8       -0.382608
    9        9.340523
   10       12.650160
   11       12.714447
   12       12.887351
 
 -0.1666667E+00  0.1666667E+00  0.0000000E+00  0.7716049E-03
    1      -14.687835
    2      -14.496369
    3       -3.266593
    4       -1.806539
    5       -1.081898
    6       -1.041828
    7        0.091531
    8        0.115403
    9        8.976276
   10       12.520388
   11       12.648017
   12       13.439931
 
  0.2222222E+00  0.2222222E+00  0.0000000E+00  0.7716049E-03
    1      -11.907551
    2      -11.751202
    3       -5.429770
    4       -5.386210
    5       -3.888712
    6       -3.855856
    7        0.004862
    8        1.208807
    9        7.970665
   10        8.382001
   11       12.487534
   12       15.485684
 
  0.2777778E+00  0.2222222E+00  0.0000000E+00  0.1543210E-02
    1      -11.020031
    2      -10.876027
    3       -6.440300
    4       -6.373875
    5       -4.554578
    6       -4.505378
    7        0.999678
    8        2.079832
    9        6.786763
   10        7.245457
   11       13.605177
   12       15.546560
 
  0.3333333E+00  0.2222222E+00  0.0000000E+00  0.1543210E-02
    1      -10.046909
    2       -9.919863
    3       -7.561020
    4       -7.473579
    5       -4.902470
    6       -4.839754
    7        2.016397
    8        2.869858
    9        5.748900
   10        6.189575
   11       14.817105
   12       15.417250
 
  0.3888889E+00  0.2222222E+00  0.0000000E+00  0.1543210E-02
    1       -9.296719
    2       -9.229320
    3       -8.318022
    4       -8.278720
    5       -5.008936
    6       -4.942541
    7        2.648090
    8        3.144842
    9        5.447247
   10        5.485761
   11       15.339455
   12       15.929771
 
  0.4444444E+00  0.2222222E+00  0.0000000E+00  0.1543210E-02
    1      -10.047663
    2       -9.920604
    3       -7.560352
    4       -7.472919
    5       -4.902374
    6       -4.839680
    7        2.016171
    8        2.869856
    9        5.748643
   10        6.189382
   11       14.816122
   12       15.417418
 
  0.5000000E+00  0.2222222E+00  0.0000000E+00  0.1543210E-02
    1      -11.020754
    2      -10.876740
    3       -6.439965
    4       -6.373613
    5       -4.554076
    6       -4.504913
    7        0.999392
    8        2.079726
    9        6.786215
   10        7.245039
   11       13.604243
   12       15.547896
 
 -0.4444444E+00  0.2222222E+00  0.0000000E+00  0.1543210E-02
    1      -11.908193
    2      -11.751842
    3       -5.430431
    4       -5.386848
    5       -3.887392
    6       -3.854525
    7        0.004560
    8        1.208644
    9        7.969737
   10        8.381360
   11       12.486751
   12       15.488251
 
 -0.3888889E+00  0.2222222E+00  0.0000000E+00  0.1543210E-02
    1      -12.677114
    2      -12.511216
    3       -4.636026
    4       -4.582669
    5       -2.922479
    6       -2.884600
    7       -0.883769
    8        0.404689
    9        9.116993
   10        9.526826
   11       11.512413
   12       14.373969
 
 -0.3333333E+00  0.2222222E+00  0.0000000E+00  0.1543210E-02
    1      -13.316079
    2      -13.142049
    3       -3.922039
    4       -3.861310
    5       -1.879839
    6       -1.843200
    7       -1.633219
    8       -0.283926
    9       10.188209
   10       10.621644
   11       10.700765
   12       13.256032
 
 -0.2777778E+00  0.2222222E+00  0.0000000E+00  0.1543210E-02
    1      -13.818194
    2      -13.637836
    3       -3.196908
    4       -3.136611
    5       -2.227552
    6       -1.011289
    7       -0.980384
    8       -0.834792
    9       10.063797
   10       11.170646
   11       11.603026
   12       12.512028
 
 -0.2222222E+00  0.2222222E+00  0.0000000E+00  0.7716049E-03
    1      -14.179312
    2      -13.994382
    3       -2.657403
    4       -2.463288
    5       -2.408514
    6       -1.235354
    7       -0.503721
    8       -0.476270
    9        9.610024
   10       12.021422
   11       12.321684
   12       12.496936
 
  0.2777778E+00  0.2777778E+00  0.0000000E+00  0.7716049E-03
    1      -10.102309
    2       -9.972569
    3       -7.063949
    4       -7.011056
    5       -5.424400
    6       -5.387336
    7        2.009974
    8        2.945046
    9        5.781830
   10        6.244502
   11       14.738574
   12       15.526979
 
  0.3333333E+00  0.2777778E+00  0.0000000E+00  0.1543210E-02
    1       -9.157876
    2       -9.054339
    3       -7.880700
    4       -7.816822
    5       -5.861097
    6       -5.810751
    7        2.983165
    8        3.643477
    9        4.951458
   10        5.347483
   11       15.349424
   12       15.493354
 
  0.3888889E+00  0.2777778E+00  0.0000000E+00  0.1543210E-02
    1       -9.158666
    2       -9.055081
    3       -7.880198
    4       -7.816293
    5       -5.860809
    6       -5.810489
    7        2.983054
    8        3.643642
    9        4.951090
   10        5.347312
   11       15.349961
   12       15.493964
 
  0.4444444E+00  0.2777778E+00  0.0000000E+00  0.1543210E-02
    1      -10.103223
    2       -9.973475
    3       -7.064048
    4       -7.011127
    5       -5.423336
    6       -5.386254
    7        2.009750
    8        2.945082
    9        5.781057
   10        6.244033
   11       14.737246
   12       15.527839
 
  0.5000000E+00  0.2777778E+00  0.0000000E+00  0.1543210E-02
    1      -11.020876
    2      -10.876869
    3       -6.441202
    4       -6.374728
    5       -4.552734
    6       -4.503496
    7        0.999384
    8        2.079742
    9        6.785592
   10        7.244722
   11       13.604084
   12       15.552094
 
 -0.4444444E+00  0.2777778E+00  0.0000000E+00  0.1543210E-02
    1      -11.838725
    2      -11.683460
    3       -5.900780
    4       -5.823432
    5       -3.461070
    6       -3.410653
    7        0.073988
    8        1.260401
    9        7.753933
   10        8.262494
   11       12.570828
   12       14.229483
 
 -0.3888889E+00  0.2777778E+00  0.0000000E+00  0.1543210E-02
    1      -12.535667
    2      -12.371582
    3       -5.314658
    4       -5.235678
    5       -2.391741
    6       -2.349284
    7       -0.728108
    8        0.538109
    9        8.687301
   10        9.248771
   11       11.679857
   12       13.057003
 
 -0.3333333E+00  0.2777778E+00  0.0000000E+00  0.1543210E-02
    1      -13.101716
    2      -12.930354
    3       -4.653226
    4       -4.577157
    5       -1.536861
    6       -1.502921
    7       -1.386507
    8       -0.061500
    9        9.593516
   10       10.168011
   11       10.955831
   12       12.280539
 
 -0.2777778E+00  0.2777778E+00  0.0000000E+00  0.7716049E-03
    1      -13.530519
    2      -13.353729
    3       -3.930200
    4       -3.860271
    5       -1.888901
    6       -1.057523
    7       -1.027879
    8       -0.522535
    9       10.417296
   10       10.446755
   11       10.977341
   12       12.079171
 
  0.3333333E+00  0.3333333E+00  0.0000000E+00  0.7716049E-03
    1       -8.391048
    2       -8.328808
    3       -8.328717
    4       -8.269137
    5       -6.276767
    6       -6.276694
    7        3.766227
    8        4.224829
    9        4.225291
   10        4.755114
   11       15.204905
   12       15.205387
 
  0.3888889E+00  0.3333333E+00  0.0000000E+00  0.1543210E-02
    1       -9.158818
    2       -9.055252
    3       -7.881122
    4       -7.817168
    5       -5.859713
    6       -5.809300
    7        2.983269
    8        3.643744
    9        4.950515
   10        5.346809
   11       15.350340
   12       15.493549
 
  0.4444444E+00  0.3333333E+00  0.0000000E+00  0.1543210E-02
    1      -10.047921
    2       -9.920866
    3       -7.561856
    4       -7.474383
    5       -4.900432
    6       -4.837700
    7        2.016278
    8        2.869960
    9        5.747490
   10        6.188660
   11       14.815777
   12       15.422145
 
  0.5000000E+00  0.3333333E+00  0.0000000E+00  0.1543210E-02
    1      -10.889063
    2      -10.747399
    3       -7.182427
    4       -7.087967
    5       -3.800598
    6       -3.743878
    7        1.100063
    8        2.110304
    9        6.494805
   10        7.055559
   11       13.747995
   12       14.092040
 
 -0.4444444E+00  0.3333333E+00  0.0000000E+00  0.1543210E-02
    1      -11.631741
    2      -11.479257
    3       -6.695037
    4       -6.600361
    5       -2.762641
    6       -2.716969
    7        0.278512
    8        1.408872
    9        7.250789
   10        7.906264
   11       12.732077
   12       12.922358
 
 -0.3888889E+00  0.3333333E+00  0.0000000E+00  0.1543210E-02
    1      -12.254568
    2      -12.094039
    3       -6.097736
    4       -6.006578
    5       -1.952140
    6       -1.916346
    7       -0.420986
    8        0.798400
    9        8.036634
   10        8.730016
   11       11.909958
   12       12.112791
 
 -0.3333333E+00  0.3333333E+00  0.0000000E+00  0.7716049E-03
    1      -12.746699
    2      -12.579979
    3       -5.405882
    4       -5.320590
    5       -1.522797
    6       -1.491259
    7       -0.979974
    8        0.302760
    9        8.836957
   10        9.503757
   11       11.360811
   12       11.858217
 
  0.3888889E+00  0.3888889E+00  0.0000000E+00  0.7716049E-03
    1       -9.297356
    2       -9.229995
    3       -8.319208
    4       -8.279898
    5       -5.006862
    6       -4.940449
    7        2.648465
    8        3.144856
    9        5.445877
   10        5.484604
   11       15.343980
   12       15.911736
 
  0.4444444E+00  0.3888889E+00  0.0000000E+00  0.1543210E-02
    1       -9.906086
    2       -9.793957
    3       -8.326312
    4       -8.235866
    5       -3.966324
    6       -3.906962
    7        2.003343
    8        2.650776
    9        5.704324
   10        6.091678
   11       13.977529
   12       14.372434
 
  0.5000000E+00  0.3888889E+00  0.0000000E+00  0.1543210E-02
    1      -10.633627
    2      -10.498700
    3       -7.987624
    4       -7.883489
    5       -2.987515
    6       -2.940037
    7        1.280095
    8        2.141273
    9        6.115843
   10        6.732379
   11       12.740915
   12       13.040143
 
 -0.4444444E+00  0.3888889E+00  0.0000000E+00  0.1543210E-02
    1      -11.291818
    2      -11.144849
    3       -7.474750
    4       -7.370492
    5       -2.237917
    6       -2.200918
    7        0.604773
    8        1.631638
    9        6.670201
   10        7.401116
   11       11.897986
   12       12.154813
 
 -0.3888889E+00  0.3888889E+00  0.0000000E+00  0.7716049E-03
    1      -11.837461
    2      -11.682384
    3       -6.834441
    4       -6.735230
    5       -1.870861
    6       -1.838235
    7        0.028667
    8        1.171171
    9        7.330597
   10        8.083313
   11       11.637403
   12       11.866521
 
  0.4444444E+00  0.4444444E+00  0.0000000E+00  0.7716049E-03
    1       -9.861599
    2       -9.790086
    3       -8.804230
    4       -8.750979
    5       -3.062718
    6       -3.014943
    7        1.856497
    8        2.367903
    9        5.709673
   10        6.138020
   11       12.701377
   12       13.012038
 
  0.5000000E+00  0.4444444E+00  0.0000000E+00  0.1543210E-02
    1      -10.289994
    2      -10.173283
    3       -8.670591
    4       -8.572876
    5       -2.383236
    6       -2.345664
    7        1.484133
    8        2.132150
    9        5.835097
   10        6.421400
   11       11.820560
   12       12.095479
 
 -0.4444444E+00  0.4444444E+00  0.0000000E+00  0.7716049E-03
    1      -10.831616
    2      -10.693958
    3       -8.156107
    4       -8.048392
    5       -2.085274
    6       -2.052082
    7        1.025354
    8        1.888532
    9        6.164489
   10        6.871992
   11       11.526582
   12       11.788080
 
  0.5000000E+00  0.5000000E+00  0.0000000E+00  0.3858025E-03
    1      -10.049930
    2       -9.977071
    3       -8.987193
    4       -8.931642
    5       -2.157568
    6       -2.124326
    7        1.589722
    8        2.105515
    9        5.739582
   10        6.288911
   11       11.486918
   12       11.755319
 