32   
4    

1    
  0.0032980792850203  -0.0000001486515502   0.0094404805496131
  -0.2056646400    0.0040376700   -0.1351556500
   0.0329387200    0.0031153500   -0.0057820400
  -0.0015138500   -0.0167770100   -0.0057194700
  -0.0016083300    0.0230603800   -0.0058598500
  -0.0070615700    0.0031509900    0.0014584500
  -0.0070530100    0.0031549900    0.0014714100
  -0.0070574300    0.0031538600    0.0014712500
  -0.0070518000    0.0031547600    0.0014703000
   0.0050150000   -0.0031142400   -0.0014461400
   0.0049107300   -0.0031901500   -0.0014822100
   0.0050272700   -0.0030661300   -0.0014648200
   0.0048893400   -0.0031279100   -0.0010819000
   0.0057251100   -0.0028678300   -0.0015352200
   0.0058100800   -0.0029366400   -0.0015037300
   0.0058260700   -0.0029761200   -0.0015204200
   0.0056951700   -0.0029304300   -0.0010755900
   0.0019522000   -0.0027900400    0.0119719300
   0.0281345500   -0.0034160300    0.0478659600
   0.0714802500    0.0221914100    0.0482585800
   0.0717194300   -0.0280006300    0.0474270000
   0.0064907500   -0.0028451200   -0.0001851800
   0.0064976800   -0.0028482700   -0.0001758500
   0.0064990800   -0.0028484300   -0.0001763100
   0.0064931300   -0.0028478800   -0.0001756700
  -0.0047486800    0.0028483800    0.0004735500
  -0.0044814800    0.0029195900    0.0004958900
  -0.0046778600    0.0026552300    0.0004874600
  -0.0045547700    0.0028090800    0.0000530200
  -0.0048035200    0.0024897800    0.0004772300
  -0.0050081200    0.0025588400    0.0004540200
  -0.0049667400    0.0027015300    0.0004608200
  -0.0048527500    0.0025810300    0.0000432100

1    
 -0.0032980792850203   0.0000001486515502  -0.0094404805496131
   0.1947213500    0.0039651400    0.1351510100
  -0.0440196900    0.0031145700    0.0056978300
  -0.0093807600    0.0231141000    0.0057591400
  -0.0094800300   -0.0168246400    0.0056528400
  -0.0039705200    0.0031642200   -0.0014167200
  -0.0039802600    0.0031626500   -0.0014291800
  -0.0039774500    0.0031628200   -0.0014290300
  -0.0039786000    0.0031612800   -0.0014284400
   0.0050331700   -0.0032906400    0.0014607600
   0.0051280700   -0.0032164600    0.0014936900
   0.0050179000   -0.0033342200    0.0014768500
   0.0051565700   -0.0032816500    0.0010339500
   0.0059609800   -0.0031804300    0.0015404200
   0.0058565200   -0.0031088900    0.0015064100
   0.0058473300   -0.0030540500    0.0015232300
   0.0059803400   -0.0031131900    0.0011424300
   0.0081032500   -0.0030167400   -0.0120096800
  -0.0179805100   -0.0036215400   -0.0479135700
  -0.0615694800   -0.0282166900   -0.0475100100
  -0.0614043900    0.0220247400   -0.0482736700
   0.0032443400   -0.0027324200    0.0002356900
   0.0032396500   -0.0027323100    0.0002270900
   0.0032388000   -0.0027309900    0.0002260200
   0.0032407500   -0.0027301200    0.0002276700
  -0.0047189800    0.0029753300   -0.0004850300
  -0.0049316700    0.0029022100   -0.0005033700
  -0.0047604100    0.0031249700   -0.0004948600
  -0.0048834100    0.0029998300   -0.0000720300
  -0.0053178200    0.0029408700   -0.0004669500
  -0.0050506600    0.0028705500   -0.0004444900
  -0.0051225700    0.0026731500   -0.0004534000
  -0.0052418400    0.0028285300   -0.0000245900

17   
  0.0032980792850203  -0.0000001486515502   0.0094404805496131
  -0.0079103900    0.0030873400    0.0109211700
   0.0182808000    0.0037007300    0.0468339600
   0.0618006500    0.0282529100    0.0464240400
   0.0616446300   -0.0219095700    0.0471995700
  -0.0072649600    0.0030804900   -0.0011532200
  -0.0072664100    0.0030865800   -0.0011442100
  -0.0072681200    0.0030929600   -0.0011467000
  -0.0072620100    0.0030879300   -0.0011443300
   0.0054991600   -0.0032428300    0.0014975000
   0.0055578100   -0.0031543000    0.0015725500
   0.0054513300   -0.0032403500    0.0015341600
   0.0055858400   -0.0032080600    0.0011071900
   0.0059220600   -0.0031004000    0.0014693800
   0.0058559800   -0.0030461300    0.0013894800
   0.0058427400   -0.0030345500    0.0014284800
   0.0059467500   -0.0030631600    0.0010075600
  -0.1946804800   -0.0036461200   -0.1358158800
   0.0437574900   -0.0027942100   -0.0074171800
   0.0095876100   -0.0225255800   -0.0074752900
   0.0096773000    0.0168807500   -0.0073754800
   0.0069472000   -0.0029177300    0.0002860900
   0.0069497800   -0.0029193700    0.0002127200
   0.0069520400   -0.0029234800    0.0002139200
   0.0069448500   -0.0029253200    0.0002131000
  -0.0059058300    0.0031181800   -0.0000480300
  -0.0056449900    0.0031401600    0.0000562600
  -0.0057949700    0.0029019800   -0.0000033500
  -0.0057671900    0.0030522100   -0.0001405300
  -0.0057334400    0.0027120500   -0.0000549600
  -0.0059926200    0.0027230700   -0.0001220100
  -0.0058717100    0.0029381200   -0.0000979900
  -0.0058408500    0.0027956800   -0.0002279700

17   
 -0.0032980792850203   0.0000001486515502  -0.0094404805496131
  -0.0032901700    0.0030562200   -0.0112204600
  -0.0294436400    0.0036848900   -0.0471356700
  -0.0727798900   -0.0219153200   -0.0475341300
  -0.0730207500    0.0282613900   -0.0466964200
  -0.0022015000    0.0030546200    0.0009303300
  -0.0022050300    0.0030579000    0.0009217900
  -0.0022045300    0.0030587800    0.0009198300
  -0.0022006100    0.0030548000    0.0009234800
   0.0054650100   -0.0031998500   -0.0011717100
   0.0054002900   -0.0032473400   -0.0012520000
   0.0054723800   -0.0031771600   -0.0012116300
   0.0053793000   -0.0032076000   -0.0007903800
   0.0057056300   -0.0030242800   -0.0012549400
   0.0057653300   -0.0031106400   -0.0011744400
   0.0058098100   -0.0031135800   -0.0012144200
   0.0056829700   -0.0030810900   -0.0007867900
   0.2057749400   -0.0038326500    0.1358233300
  -0.0327050300   -0.0028960000    0.0074266200
   0.0013959200    0.0167909800    0.0073675100
   0.0014914700   -0.0226474300    0.0075029800
   0.0019348000   -0.0028833700   -0.0001895900
   0.0019422300   -0.0028836200   -0.0001169800
   0.0019407900   -0.0028867500   -0.0001168200
   0.0019384900   -0.0028848300   -0.0001169100
  -0.0049038300    0.0029594300    0.0000011100
  -0.0051598000    0.0029447100   -0.0000628500
  -0.0050203300    0.0031697700   -0.0000278000
  -0.0050585000    0.0030276300    0.0001049300
  -0.0053583400    0.0030543900   -0.0000533000
  -0.0051006300    0.0030318400    0.0000551100
  -0.0052102700    0.0028185900    0.0000049200
  -0.0052365000    0.0029656000    0.0001452900
