Automatically generated mesh
     455
Reciprocal lattice
    0.00000000000000    0.00000000000000    0.00000000000000             1
    0.05555555555556    0.00000000000000    0.00000000000000             4
    0.11111111111111    0.00000000000000    0.00000000000000             4
    0.16666666666667    0.00000000000000    0.00000000000000             4
    0.22222222222222   -0.00000000000000    0.00000000000000             4
    0.27777777777778    0.00000000000000    0.00000000000000             4
    0.33333333333333    0.00000000000000    0.00000000000000             4
    0.38888888888889    0.00000000000000    0.00000000000000             4
    0.44444444444444   -0.00000000000000    0.00000000000000             4
    0.50000000000000   -0.00000000000000    0.00000000000000             2
    0.05555555555556    0.05555555555556    0.00000000000000             2
    0.11111111111111    0.05555555555556    0.00000000000000             4
    0.16666666666667    0.05555555555556    0.00000000000000             4
    0.22222222222222    0.05555555555556    0.00000000000000             4
    0.27777777777778    0.05555555555556    0.00000000000000             4
    0.33333333333333    0.05555555555556    0.00000000000000             4
    0.38888888888889    0.05555555555556    0.00000000000000             4
    0.44444444444444    0.05555555555556    0.00000000000000             4
    0.50000000000000    0.05555555555556    0.00000000000000             4
   -0.44444444444444    0.05555555555556    0.00000000000000             4
   -0.38888888888889    0.05555555555556    0.00000000000000             4
   -0.33333333333333    0.05555555555556    0.00000000000000             4
   -0.27777777777778    0.05555555555556    0.00000000000000             4
   -0.22222222222222    0.05555555555556    0.00000000000000             4
   -0.16666666666667    0.05555555555556    0.00000000000000             4
   -0.11111111111111    0.05555555555556    0.00000000000000             4
   -0.05555555555556    0.05555555555556    0.00000000000000             2
    0.11111111111111    0.11111111111111    0.00000000000000             2
    0.16666666666667    0.11111111111111    0.00000000000000             4
    0.22222222222222    0.11111111111111    0.00000000000000             4
    0.27777777777778    0.11111111111111    0.00000000000000             4
    0.33333333333333    0.11111111111111    0.00000000000000             4
    0.38888888888889    0.11111111111111    0.00000000000000             4
    0.44444444444444    0.11111111111111    0.00000000000000             4
    0.50000000000000    0.11111111111111    0.00000000000000             4
   -0.44444444444444    0.11111111111111    0.00000000000000             4
   -0.38888888888889    0.11111111111111    0.00000000000000             4
   -0.33333333333333    0.11111111111111    0.00000000000000             4
   -0.27777777777778    0.11111111111111    0.00000000000000             4
   -0.22222222222222    0.11111111111111    0.00000000000000             4
   -0.16666666666667    0.11111111111111    0.00000000000000             4
   -0.11111111111111    0.11111111111111    0.00000000000000             2
    0.16666666666667    0.16666666666667    0.00000000000000             2
    0.22222222222222    0.16666666666667    0.00000000000000             4
    0.27777777777778    0.16666666666667    0.00000000000000             4
    0.33333333333333    0.16666666666667    0.00000000000000             4
    0.38888888888889    0.16666666666667    0.00000000000000             4
    0.44444444444444    0.16666666666667    0.00000000000000             4
    0.50000000000000    0.16666666666667    0.00000000000000             4
   -0.44444444444444    0.16666666666667    0.00000000000000             4
   -0.38888888888889    0.16666666666667    0.00000000000000             4
   -0.33333333333333    0.16666666666667    0.00000000000000             4
   -0.27777777777778    0.16666666666667    0.00000000000000             4
   -0.22222222222222    0.16666666666667    0.00000000000000             4
   -0.16666666666667    0.16666666666667    0.00000000000000             2
    0.22222222222222    0.22222222222222    0.00000000000000             2
    0.27777777777778    0.22222222222222    0.00000000000000             4
    0.33333333333333    0.22222222222222    0.00000000000000             4
    0.38888888888889    0.22222222222222    0.00000000000000             4
    0.44444444444444    0.22222222222222    0.00000000000000             4
    0.50000000000000    0.22222222222222    0.00000000000000             4
   -0.44444444444444    0.22222222222222    0.00000000000000             4
   -0.38888888888889    0.22222222222222    0.00000000000000             4
   -0.33333333333333    0.22222222222222    0.00000000000000             4
   -0.27777777777778    0.22222222222222    0.00000000000000             4
   -0.22222222222222    0.22222222222222    0.00000000000000             2
    0.27777777777778    0.27777777777778    0.00000000000000             2
    0.33333333333333    0.27777777777778    0.00000000000000             4
    0.38888888888889    0.27777777777778    0.00000000000000             4
    0.44444444444444    0.27777777777778    0.00000000000000             4
    0.50000000000000    0.27777777777778    0.00000000000000             4
   -0.44444444444444    0.27777777777778    0.00000000000000             4
   -0.38888888888889    0.27777777777778    0.00000000000000             4
   -0.33333333333333    0.27777777777778    0.00000000000000             4
   -0.27777777777778    0.27777777777778    0.00000000000000             2
    0.33333333333333    0.33333333333333    0.00000000000000             2
    0.38888888888889    0.33333333333333    0.00000000000000             4
    0.44444444444444    0.33333333333333    0.00000000000000             4
    0.50000000000000    0.33333333333333    0.00000000000000             4
   -0.44444444444444    0.33333333333333    0.00000000000000             4
   -0.38888888888889    0.33333333333333    0.00000000000000             4
   -0.33333333333333    0.33333333333333    0.00000000000000             2
    0.38888888888889    0.38888888888889    0.00000000000000             2
    0.44444444444444    0.38888888888889    0.00000000000000             4
    0.50000000000000    0.38888888888889    0.00000000000000             4
   -0.44444444444444    0.38888888888889    0.00000000000000             4
   -0.38888888888889    0.38888888888889    0.00000000000000             2
    0.44444444444444    0.44444444444444    0.00000000000000             2
    0.50000000000000    0.44444444444444    0.00000000000000             4
   -0.44444444444444    0.44444444444444    0.00000000000000             2
    0.50000000000000    0.50000000000000    0.00000000000000             1
    0.00000000000000    0.00000000000000    0.12500000000000             2
    0.05555555555556    0.00000000000000    0.12500000000000             8
    0.11111111111111    0.00000000000000    0.12500000000000             8
    0.16666666666667    0.00000000000000    0.12500000000000             8
    0.22222222222222   -0.00000000000000    0.12500000000000             8
    0.27777777777778    0.00000000000000    0.12500000000000             8
    0.33333333333333    0.00000000000000    0.12500000000000             8
    0.38888888888889    0.00000000000000    0.12500000000000             8
    0.44444444444444   -0.00000000000000    0.12500000000000             8
    0.50000000000000   -0.00000000000000    0.12500000000000             4
    0.05555555555556    0.05555555555556    0.12500000000000             4
    0.11111111111111    0.05555555555556    0.12500000000000             8
    0.16666666666667    0.05555555555556    0.12500000000000             8
    0.22222222222222    0.05555555555556    0.12500000000000             8
    0.27777777777778    0.05555555555556    0.12500000000000             8
    0.33333333333333    0.05555555555556    0.12500000000000             8
    0.38888888888889    0.05555555555556    0.12500000000000             8
    0.44444444444444    0.05555555555556    0.12500000000000             8
    0.50000000000000    0.05555555555556    0.12500000000000             8
   -0.44444444444444    0.05555555555556    0.12500000000000             8
   -0.38888888888889    0.05555555555556    0.12500000000000             8
   -0.33333333333333    0.05555555555556    0.12500000000000             8
   -0.27777777777778    0.05555555555556    0.12500000000000             8
   -0.22222222222222    0.05555555555556    0.12500000000000             8
   -0.16666666666667    0.05555555555556    0.12500000000000             8
   -0.11111111111111    0.05555555555556    0.12500000000000             8
   -0.05555555555556    0.05555555555556    0.12500000000000             4
    0.11111111111111    0.11111111111111    0.12500000000000             4
    0.16666666666667    0.11111111111111    0.12500000000000             8
    0.22222222222222    0.11111111111111    0.12500000000000             8
    0.27777777777778    0.11111111111111    0.12500000000000             8
    0.33333333333333    0.11111111111111    0.12500000000000             8
    0.38888888888889    0.11111111111111    0.12500000000000             8
    0.44444444444444    0.11111111111111    0.12500000000000             8
    0.50000000000000    0.11111111111111    0.12500000000000             8
   -0.44444444444444    0.11111111111111    0.12500000000000             8
   -0.38888888888889    0.11111111111111    0.12500000000000             8
   -0.33333333333333    0.11111111111111    0.12500000000000             8
   -0.27777777777778    0.11111111111111    0.12500000000000             8
   -0.22222222222222    0.11111111111111    0.12500000000000             8
   -0.16666666666667    0.11111111111111    0.12500000000000             8
   -0.11111111111111    0.11111111111111    0.12500000000000             4
    0.16666666666667    0.16666666666667    0.12500000000000             4
    0.22222222222222    0.16666666666667    0.12500000000000             8
    0.27777777777778    0.16666666666667    0.12500000000000             8
    0.33333333333333    0.16666666666667    0.12500000000000             8
    0.38888888888889    0.16666666666667    0.12500000000000             8
    0.44444444444444    0.16666666666667    0.12500000000000             8
    0.50000000000000    0.16666666666667    0.12500000000000             8
   -0.44444444444444    0.16666666666667    0.12500000000000             8
   -0.38888888888889    0.16666666666667    0.12500000000000             8
   -0.33333333333333    0.16666666666667    0.12500000000000             8
   -0.27777777777778    0.16666666666667    0.12500000000000             8
   -0.22222222222222    0.16666666666667    0.12500000000000             8
   -0.16666666666667    0.16666666666667    0.12500000000000             4
    0.22222222222222    0.22222222222222    0.12500000000000             4
    0.27777777777778    0.22222222222222    0.12500000000000             8
    0.33333333333333    0.22222222222222    0.12500000000000             8
    0.38888888888889    0.22222222222222    0.12500000000000             8
    0.44444444444444    0.22222222222222    0.12500000000000             8
    0.50000000000000    0.22222222222222    0.12500000000000             8
   -0.44444444444444    0.22222222222222    0.12500000000000             8
   -0.38888888888889    0.22222222222222    0.12500000000000             8
   -0.33333333333333    0.22222222222222    0.12500000000000             8
   -0.27777777777778    0.22222222222222    0.12500000000000             8
   -0.22222222222222    0.22222222222222    0.12500000000000             4
    0.27777777777778    0.27777777777778    0.12500000000000             4
    0.33333333333333    0.27777777777778    0.12500000000000             8
    0.38888888888889    0.27777777777778    0.12500000000000             8
    0.44444444444444    0.27777777777778    0.12500000000000             8
    0.50000000000000    0.27777777777778    0.12500000000000             8
   -0.44444444444444    0.27777777777778    0.12500000000000             8
   -0.38888888888889    0.27777777777778    0.12500000000000             8
   -0.33333333333333    0.27777777777778    0.12500000000000             8
   -0.27777777777778    0.27777777777778    0.12500000000000             4
    0.33333333333333    0.33333333333333    0.12500000000000             4
    0.38888888888889    0.33333333333333    0.12500000000000             8
    0.44444444444444    0.33333333333333    0.12500000000000             8
    0.50000000000000    0.33333333333333    0.12500000000000             8
   -0.44444444444444    0.33333333333333    0.12500000000000             8
   -0.38888888888889    0.33333333333333    0.12500000000000             8
   -0.33333333333333    0.33333333333333    0.12500000000000             4
    0.38888888888889    0.38888888888889    0.12500000000000             4
    0.44444444444444    0.38888888888889    0.12500000000000             8
    0.50000000000000    0.38888888888889    0.12500000000000             8
   -0.44444444444444    0.38888888888889    0.12500000000000             8
   -0.38888888888889    0.38888888888889    0.12500000000000             4
    0.44444444444444    0.44444444444444    0.12500000000000             4
    0.50000000000000    0.44444444444444    0.12500000000000             8
   -0.44444444444444    0.44444444444444    0.12500000000000             4
    0.50000000000000    0.50000000000000    0.12500000000000             2
    0.00000000000000    0.00000000000000    0.25000000000000             2
    0.05555555555556    0.00000000000000    0.25000000000000             8
    0.11111111111111    0.00000000000000    0.25000000000000             8
    0.16666666666667    0.00000000000000    0.25000000000000             8
    0.22222222222222   -0.00000000000000    0.25000000000000             8
    0.27777777777778    0.00000000000000    0.25000000000000             8
    0.33333333333333    0.00000000000000    0.25000000000000             8
    0.38888888888889    0.00000000000000    0.25000000000000             8
    0.44444444444444   -0.00000000000000    0.25000000000000             8
    0.50000000000000   -0.00000000000000    0.25000000000000             4
    0.05555555555556    0.05555555555556    0.25000000000000             4
    0.11111111111111    0.05555555555556    0.25000000000000             8
    0.16666666666667    0.05555555555556    0.25000000000000             8
    0.22222222222222    0.05555555555556    0.25000000000000             8
    0.27777777777778    0.05555555555556    0.25000000000000             8
    0.33333333333333    0.05555555555556    0.25000000000000             8
    0.38888888888889    0.05555555555556    0.25000000000000             8
    0.44444444444444    0.05555555555556    0.25000000000000             8
    0.50000000000000    0.05555555555556    0.25000000000000             8
   -0.44444444444444    0.05555555555556    0.25000000000000             8
   -0.38888888888889    0.05555555555556    0.25000000000000             8
   -0.33333333333333    0.05555555555556    0.25000000000000             8
   -0.27777777777778    0.05555555555556    0.25000000000000             8
   -0.22222222222222    0.05555555555556    0.25000000000000             8
   -0.16666666666667    0.05555555555556    0.25000000000000             8
   -0.11111111111111    0.05555555555556    0.25000000000000             8
   -0.05555555555556    0.05555555555556    0.25000000000000             4
    0.11111111111111    0.11111111111111    0.25000000000000             4
    0.16666666666667    0.11111111111111    0.25000000000000             8
    0.22222222222222    0.11111111111111    0.25000000000000             8
    0.27777777777778    0.11111111111111    0.25000000000000             8
    0.33333333333333    0.11111111111111    0.25000000000000             8
    0.38888888888889    0.11111111111111    0.25000000000000             8
    0.44444444444444    0.11111111111111    0.25000000000000             8
    0.50000000000000    0.11111111111111    0.25000000000000             8
   -0.44444444444444    0.11111111111111    0.25000000000000             8
   -0.38888888888889    0.11111111111111    0.25000000000000             8
   -0.33333333333333    0.11111111111111    0.25000000000000             8
   -0.27777777777778    0.11111111111111    0.25000000000000             8
   -0.22222222222222    0.11111111111111    0.25000000000000             8
   -0.16666666666667    0.11111111111111    0.25000000000000             8
   -0.11111111111111    0.11111111111111    0.25000000000000             4
    0.16666666666667    0.16666666666667    0.25000000000000             4
    0.22222222222222    0.16666666666667    0.25000000000000             8
    0.27777777777778    0.16666666666667    0.25000000000000             8
    0.33333333333333    0.16666666666667    0.25000000000000             8
    0.38888888888889    0.16666666666667    0.25000000000000             8
    0.44444444444444    0.16666666666667    0.25000000000000             8
    0.50000000000000    0.16666666666667    0.25000000000000             8
   -0.44444444444444    0.16666666666667    0.25000000000000             8
   -0.38888888888889    0.16666666666667    0.25000000000000             8
   -0.33333333333333    0.16666666666667    0.25000000000000             8
   -0.27777777777778    0.16666666666667    0.25000000000000             8
   -0.22222222222222    0.16666666666667    0.25000000000000             8
   -0.16666666666667    0.16666666666667    0.25000000000000             4
    0.22222222222222    0.22222222222222    0.25000000000000             4
    0.27777777777778    0.22222222222222    0.25000000000000             8
    0.33333333333333    0.22222222222222    0.25000000000000             8
    0.38888888888889    0.22222222222222    0.25000000000000             8
    0.44444444444444    0.22222222222222    0.25000000000000             8
    0.50000000000000    0.22222222222222    0.25000000000000             8
   -0.44444444444444    0.22222222222222    0.25000000000000             8
   -0.38888888888889    0.22222222222222    0.25000000000000             8
   -0.33333333333333    0.22222222222222    0.25000000000000             8
   -0.27777777777778    0.22222222222222    0.25000000000000             8
   -0.22222222222222    0.22222222222222    0.25000000000000             4
    0.27777777777778    0.27777777777778    0.25000000000000             4
    0.33333333333333    0.27777777777778    0.25000000000000             8
    0.38888888888889    0.27777777777778    0.25000000000000             8
    0.44444444444444    0.27777777777778    0.25000000000000             8
    0.50000000000000    0.27777777777778    0.25000000000000             8
   -0.44444444444444    0.27777777777778    0.25000000000000             8
   -0.38888888888889    0.27777777777778    0.25000000000000             8
   -0.33333333333333    0.27777777777778    0.25000000000000             8
   -0.27777777777778    0.27777777777778    0.25000000000000             4
    0.33333333333333    0.33333333333333    0.25000000000000             4
    0.38888888888889    0.33333333333333    0.25000000000000             8
    0.44444444444444    0.33333333333333    0.25000000000000             8
    0.50000000000000    0.33333333333333    0.25000000000000             8
   -0.44444444444444    0.33333333333333    0.25000000000000             8
   -0.38888888888889    0.33333333333333    0.25000000000000             8
   -0.33333333333333    0.33333333333333    0.25000000000000             4
    0.38888888888889    0.38888888888889    0.25000000000000             4
    0.44444444444444    0.38888888888889    0.25000000000000             8
    0.50000000000000    0.38888888888889    0.25000000000000             8
   -0.44444444444444    0.38888888888889    0.25000000000000             8
   -0.38888888888889    0.38888888888889    0.25000000000000             4
    0.44444444444444    0.44444444444444    0.25000000000000             4
    0.50000000000000    0.44444444444444    0.25000000000000             8
   -0.44444444444444    0.44444444444444    0.25000000000000             4
    0.50000000000000    0.50000000000000    0.25000000000000             2
    0.00000000000000    0.00000000000000    0.37500000000000             2
    0.05555555555556    0.00000000000000    0.37500000000000             8
    0.11111111111111    0.00000000000000    0.37500000000000             8
    0.16666666666667    0.00000000000000    0.37500000000000             8
    0.22222222222222   -0.00000000000000    0.37500000000000             8
    0.27777777777778    0.00000000000000    0.37500000000000             8
    0.33333333333333    0.00000000000000    0.37500000000000             8
    0.38888888888889    0.00000000000000    0.37500000000000             8
    0.44444444444444   -0.00000000000000    0.37500000000000             8
    0.50000000000000   -0.00000000000000    0.37500000000000             4
    0.05555555555556    0.05555555555556    0.37500000000000             4
    0.11111111111111    0.05555555555556    0.37500000000000             8
    0.16666666666667    0.05555555555556    0.37500000000000             8
    0.22222222222222    0.05555555555556    0.37500000000000             8
    0.27777777777778    0.05555555555556    0.37500000000000             8
    0.33333333333333    0.05555555555556    0.37500000000000             8
    0.38888888888889    0.05555555555556    0.37500000000000             8
    0.44444444444444    0.05555555555556    0.37500000000000             8
    0.50000000000000    0.05555555555556    0.37500000000000             8
   -0.44444444444444    0.05555555555556    0.37500000000000             8
   -0.38888888888889    0.05555555555556    0.37500000000000             8
   -0.33333333333333    0.05555555555556    0.37500000000000             8
   -0.27777777777778    0.05555555555556    0.37500000000000             8
   -0.22222222222222    0.05555555555556    0.37500000000000             8
   -0.16666666666667    0.05555555555556    0.37500000000000             8
   -0.11111111111111    0.05555555555556    0.37500000000000             8
   -0.05555555555556    0.05555555555556    0.37500000000000             4
    0.11111111111111    0.11111111111111    0.37500000000000             4
    0.16666666666667    0.11111111111111    0.37500000000000             8
    0.22222222222222    0.11111111111111    0.37500000000000             8
    0.27777777777778    0.11111111111111    0.37500000000000             8
    0.33333333333333    0.11111111111111    0.37500000000000             8
    0.38888888888889    0.11111111111111    0.37500000000000             8
    0.44444444444444    0.11111111111111    0.37500000000000             8
    0.50000000000000    0.11111111111111    0.37500000000000             8
   -0.44444444444444    0.11111111111111    0.37500000000000             8
   -0.38888888888889    0.11111111111111    0.37500000000000             8
   -0.33333333333333    0.11111111111111    0.37500000000000             8
   -0.27777777777778    0.11111111111111    0.37500000000000             8
   -0.22222222222222    0.11111111111111    0.37500000000000             8
   -0.16666666666667    0.11111111111111    0.37500000000000             8
   -0.11111111111111    0.11111111111111    0.37500000000000             4
    0.16666666666667    0.16666666666667    0.37500000000000             4
    0.22222222222222    0.16666666666667    0.37500000000000             8
    0.27777777777778    0.16666666666667    0.37500000000000             8
    0.33333333333333    0.16666666666667    0.37500000000000             8
    0.38888888888889    0.16666666666667    0.37500000000000             8
    0.44444444444444    0.16666666666667    0.37500000000000             8
    0.50000000000000    0.16666666666667    0.37500000000000             8
   -0.44444444444444    0.16666666666667    0.37500000000000             8
   -0.38888888888889    0.16666666666667    0.37500000000000             8
   -0.33333333333333    0.16666666666667    0.37500000000000             8
   -0.27777777777778    0.16666666666667    0.37500000000000             8
   -0.22222222222222    0.16666666666667    0.37500000000000             8
   -0.16666666666667    0.16666666666667    0.37500000000000             4
    0.22222222222222    0.22222222222222    0.37500000000000             4
    0.27777777777778    0.22222222222222    0.37500000000000             8
    0.33333333333333    0.22222222222222    0.37500000000000             8
    0.38888888888889    0.22222222222222    0.37500000000000             8
    0.44444444444444    0.22222222222222    0.37500000000000             8
    0.50000000000000    0.22222222222222    0.37500000000000             8
   -0.44444444444444    0.22222222222222    0.37500000000000             8
   -0.38888888888889    0.22222222222222    0.37500000000000             8
   -0.33333333333333    0.22222222222222    0.37500000000000             8
   -0.27777777777778    0.22222222222222    0.37500000000000             8
   -0.22222222222222    0.22222222222222    0.37500000000000             4
    0.27777777777778    0.27777777777778    0.37500000000000             4
    0.33333333333333    0.27777777777778    0.37500000000000             8
    0.38888888888889    0.27777777777778    0.37500000000000             8
    0.44444444444444    0.27777777777778    0.37500000000000             8
    0.50000000000000    0.27777777777778    0.37500000000000             8
   -0.44444444444444    0.27777777777778    0.37500000000000             8
   -0.38888888888889    0.27777777777778    0.37500000000000             8
   -0.33333333333333    0.27777777777778    0.37500000000000             8
   -0.27777777777778    0.27777777777778    0.37500000000000             4
    0.33333333333333    0.33333333333333    0.37500000000000             4
    0.38888888888889    0.33333333333333    0.37500000000000             8
    0.44444444444444    0.33333333333333    0.37500000000000             8
    0.50000000000000    0.33333333333333    0.37500000000000             8
   -0.44444444444444    0.33333333333333    0.37500000000000             8
   -0.38888888888889    0.33333333333333    0.37500000000000             8
   -0.33333333333333    0.33333333333333    0.37500000000000             4
    0.38888888888889    0.38888888888889    0.37500000000000             4
    0.44444444444444    0.38888888888889    0.37500000000000             8
    0.50000000000000    0.38888888888889    0.37500000000000             8
   -0.44444444444444    0.38888888888889    0.37500000000000             8
   -0.38888888888889    0.38888888888889    0.37500000000000             4
    0.44444444444444    0.44444444444444    0.37500000000000             4
    0.50000000000000    0.44444444444444    0.37500000000000             8
   -0.44444444444444    0.44444444444444    0.37500000000000             4
    0.50000000000000    0.50000000000000    0.37500000000000             2
    0.00000000000000    0.00000000000000    0.50000000000000             1
    0.05555555555556    0.00000000000000    0.50000000000000             4
    0.11111111111111    0.00000000000000    0.50000000000000             4
    0.16666666666667    0.00000000000000    0.50000000000000             4
    0.22222222222222   -0.00000000000000    0.50000000000000             4
    0.27777777777778    0.00000000000000    0.50000000000000             4
    0.33333333333333    0.00000000000000    0.50000000000000             4
    0.38888888888889    0.00000000000000    0.50000000000000             4
    0.44444444444444   -0.00000000000000    0.50000000000000             4
    0.50000000000000   -0.00000000000000    0.50000000000000             2
    0.05555555555556    0.05555555555556    0.50000000000000             2
    0.11111111111111    0.05555555555556    0.50000000000000             4
    0.16666666666667    0.05555555555556    0.50000000000000             4
    0.22222222222222    0.05555555555556    0.50000000000000             4
    0.27777777777778    0.05555555555556    0.50000000000000             4
    0.33333333333333    0.05555555555556    0.50000000000000             4
    0.38888888888889    0.05555555555556    0.50000000000000             4
    0.44444444444444    0.05555555555556    0.50000000000000             4
    0.50000000000000    0.05555555555556    0.50000000000000             4
   -0.44444444444444    0.05555555555556    0.50000000000000             4
   -0.38888888888889    0.05555555555556    0.50000000000000             4
   -0.33333333333333    0.05555555555556    0.50000000000000             4
   -0.27777777777778    0.05555555555556    0.50000000000000             4
   -0.22222222222222    0.05555555555556    0.50000000000000             4
   -0.16666666666667    0.05555555555556    0.50000000000000             4
   -0.11111111111111    0.05555555555556    0.50000000000000             4
   -0.05555555555556    0.05555555555556    0.50000000000000             2
    0.11111111111111    0.11111111111111    0.50000000000000             2
    0.16666666666667    0.11111111111111    0.50000000000000             4
    0.22222222222222    0.11111111111111    0.50000000000000             4
    0.27777777777778    0.11111111111111    0.50000000000000             4
    0.33333333333333    0.11111111111111    0.50000000000000             4
    0.38888888888889    0.11111111111111    0.50000000000000             4
    0.44444444444444    0.11111111111111    0.50000000000000             4
    0.50000000000000    0.11111111111111    0.50000000000000             4