mesh: [     9,     9,     4 ]
nqpoint: 50     
reciprocal_lattice:
- [   0.40533564,   0.23404500,   0.00000000 ] # a*
- [   0.00002110,   0.46805346,   0.00000000 ] # b*
- [   0.00000000,   0.00000000,   0.14160236 ] # c*
natom:   4      
lattice:
- [     2.467155442383188,    -0.000111200019553,     0.000000000000000 ] # a
- [    -1.233674023183305,     2.136563688137034,     0.000000000000000 ] # b
- [     0.000000000000000,     0.000000000000000,     7.062029428000000 ] # c
points:
- symbol: C  # 1
  coordinates: [  0.999999697166835,  0.000000349172772,  0.250000000000000 ]
  mass: 12.010700
- symbol: C  # 2
  coordinates: [  0.000000349172772,  0.999999697166835,  0.750000000000000 ]
  mass: 12.010700
- symbol: C  # 3
  coordinates: [  0.333298929956719,  0.666701052703672,  0.250000000000000 ]
  mass: 12.010700
- symbol: C  # 4
  coordinates: [  0.666701052703672,  0.333298929956719,  0.750000000000000 ]
  mass: 12.010700
phonon:
- q-position: [    0.0000000,    0.0000000,    0.1250000 ]
  weight: 2    
  band:
  - # 1
    frequency:    -4.1115168978
  - # 2
    frequency:    -3.1386218550
  - # 3
    frequency:    -1.0679453160
  - # 4
    frequency:    -0.7446221621
  - # 5
    frequency:     0.7864446534
  - # 6
    frequency:     1.6205851793
  - # 7
    frequency:    25.1743355139
  - # 8
    frequency:    26.1094581366
  - # 9
    frequency:    43.2646269221
  - # 10
    frequency:    43.3717420265
  - # 11
    frequency:    43.5337580236
  - # 12
    frequency:    43.6187439096

- q-position: [    0.1111111,    0.0000000,    0.1250000 ]
  weight: 8    
  band:
  - # 1
    frequency:     4.0536413445
  - # 2
    frequency:     4.3875201052
  - # 3
    frequency:     5.0646154709
  - # 4
    frequency:     6.0331497702
  - # 5
    frequency:    10.8025325256
  - # 6
    frequency:    11.4404758299
  - # 7
    frequency:    24.6530755991
  - # 8
    frequency:    25.5121463693
  - # 9
    frequency:    43.1619349508
  - # 10
    frequency:    43.4435812134
  - # 11
    frequency:    43.6503565962
  - # 12
    frequency:    43.8441875445

- q-position: [    0.2222222,    0.0000000,    0.1250000 ]
  weight: 8    
  band:
  - # 1
    frequency:     7.7613655729
  - # 2
    frequency:     8.0628431733
  - # 3
    frequency:    11.1779715803
  - # 4
    frequency:    11.5950811491
  - # 5
    frequency:    21.7519619984
  - # 6
    frequency:    22.0675774799
  - # 7
    frequency:    23.2060822549
  - # 8
    frequency:    23.8557428789
  - # 9
    frequency:    42.7933013977
  - # 10
    frequency:    43.0065648919
  - # 11
    frequency:    44.1516189797
  - # 12
    frequency:    44.3019423368

- q-position: [    0.3333333,    0.0000000,    0.1250000 ]
  weight: 8    
  band:
  - # 1
    frequency:    11.0641380891
  - # 2
    frequency:    11.3451749420
  - # 3
    frequency:    15.7491183344
  - # 4
    frequency:    15.9623455963
  - # 5
    frequency:    21.1690884918
  - # 6
    frequency:    21.5336507131
  - # 7
    frequency:    30.8378750753
  - # 8
    frequency:    31.0245780507
  - # 9
    frequency:    42.2603356656
  - # 10
    frequency:    42.3835847601
  - # 11
    frequency:    43.9197674893
  - # 12
    frequency:    44.0050679182

- q-position: [    0.4444444,    0.0000000,    0.1250000 ]
  weight: 8    
  band:
  - # 1
    frequency:    13.6014787228
  - # 2
    frequency:    13.7949168711
  - # 3
    frequency:    18.3512337791
  - # 4
    frequency:    18.4183680810
  - # 5
    frequency:    19.2068107157
  - # 6
    frequency:    19.3164521570
  - # 7
    frequency:    37.6513471065
  - # 8
    frequency:    37.7426746088
  - # 9
    frequency:    41.8361320925
  - # 10
    frequency:    41.8737601579
  - # 11
    frequency:    41.9885548578
  - # 12
    frequency:    42.0189286966

- q-position: [    0.1111111,    0.1111111,    0.1250000 ]
  weight: 4    
  band:
  - # 1
    frequency:     7.0978468617
  - # 2
    frequency:     7.3368880220
  - # 3
    frequency:    10.1914670185
  - # 4
    frequency:    10.6611798261
  - # 5
    frequency:    18.5605297099
  - # 6
    frequency:    18.9755834879
  - # 7
    frequency:    23.5931668764
  - # 8
    frequency:    24.3020712746
  - # 9
    frequency:    43.0312600223
  - # 10
    frequency:    43.2917918121
  - # 11
    frequency:    44.0000861748
  - # 12
    frequency:    44.1434558313

- q-position: [    0.2222222,    0.1111111,    0.1250000 ]
  weight: 8    
  band:
  - # 1
    frequency:    10.3124864668
  - # 2
    frequency:    10.5373588242
  - # 3
    frequency:    15.5920971626
  - # 4
    frequency:    15.8995700836
  - # 5
    frequency:    21.7764714771
  - # 6
    frequency:    22.2292684499
  - # 7
    frequency:    26.9813197355
  - # 8
    frequency:    27.2447333038
  - # 9
    frequency:    42.7865837105
  - # 10
    frequency:    42.9477864685
  - # 11
    frequency:    43.9806427362
  - # 12
    frequency:    44.1040303013

- q-position: [    0.3333333,    0.1111111,    0.1250000 ]
  weight: 8    
  band:
  - # 1
    frequency:    13.0934249709
  - # 2
    frequency:    13.2791703308
  - # 3
    frequency:    19.4934838397
  - # 4
    frequency:    19.6661629546
  - # 5
    frequency:    19.6860167572
  - # 6
    frequency:    19.8356738467
  - # 7
    frequency:    34.1478509700
  - # 8
    frequency:    34.3095773539
  - # 9
    frequency:    42.1776388411
  - # 10
    frequency:    42.2617504376
  - # 11
    frequency:    43.0626028627
  - # 12
    frequency:    43.1243245138

- q-position: [   -0.5555556,    0.1111111,    0.1250000 ]
  weight: 8    
  band:
  - # 1
    frequency:    14.3291084926
  - # 2
    frequency:    14.5097621192
  - # 3
    frequency:    18.5501246624
  - # 4
    frequency:    18.5806615953
  - # 5
    frequency:    21.0409472760
  - # 6
    frequency:    21.1225534024
  - # 7
    frequency:    39.2746515904
  - # 8
    frequency:    39.3173527747
  - # 9
    frequency:    39.5892038408
  - # 10
    frequency:    39.6170958767
  - # 11
    frequency:    42.5301882778
  - # 12
    frequency:    42.5461153237

- q-position: [   -0.4444444,    0.1111111,    0.1250000 ]
  weight: 8    
  band:
  - # 1
    frequency:    12.4539516427
  - # 2
    frequency:    12.7761679940
  - # 3
    frequency:    19.7995262875
  - # 4
    frequency:    19.8304576073
  - # 5
    frequency:    20.0170731089
  - # 6
    frequency:    20.2247030426
  - # 7
    frequency:    34.3290555464
  - # 8
    frequency:    34.4045430601
  - # 9
    frequency:    42.0839152095
  - # 10
    frequency:    42.1502290845
  - # 11
    frequency:    42.9709951783
  - # 12
    frequency:    42.9905063565

- q-position: [   -0.3333333,    0.1111111,    0.1250000 ]
  weight: 8    
  band:
  - # 1
    frequency:     9.5081869105
  - # 2
    frequency:     9.9031921760
  - # 3
    frequency:    15.9999391766
  - # 4
    frequency:    16.1678179392
  - # 5
    frequency:    22.0877788223
  - # 6
    frequency:    22.5718899239
  - # 7
    frequency:    27.2132668125
  - # 8
    frequency:    27.3575532378
  - # 9
    frequency:    42.6694641648
  - # 10
    frequency:    42.8027014295
  - # 11
    frequency:    43.8882951120
  - # 12
    frequency:    43.9936303041

- q-position: [   -0.2222222,    0.1111111,    0.1250000 ]
  weight: 8    
  band:
  - # 1
    frequency:     6.2601071135
  - # 2
    frequency:     6.6911514664
  - # 3
    frequency:    10.4468808983
  - # 4
    frequency:    10.9139885668
  - # 5
    frequency:    18.9146144142
  - # 6
    frequency:    19.1212965702
  - # 7
    frequency:    23.7946350165
  - # 8
    frequency:    24.5230755011
  - # 9
    frequency:    42.9972339837
  - # 10
    frequency:    43.1596707108
  - # 11
    frequency:    43.8757629231
  - # 12
    frequency:    44.0943092201

- q-position: [   -0.1111111,    0.1111111,    0.1250000 ]
  weight: 4    
  band:
  - # 1
    frequency:     3.5229260948
  - # 2
    frequency:     4.0021095423
  - # 3
    frequency:     4.7322068944
  - # 4
    frequency:     6.0617488486
  - # 5
    frequency:    11.2510167365
  - # 6
    frequency:    11.6008202318
  - # 7
    frequency:    24.7223957850
  - # 8
    frequency:    25.5881130345
  - # 9
    frequency:    43.2245657522
  - # 10
    frequency:    43.3751599814
  - # 11
    frequency:    43.5279041711
  - # 12
    frequency:    43.8497728348

- q-position: [    0.2222222,    0.2222222,    0.1250000 ]
  weight: 4    
  band:
  - # 1
    frequency:    12.9137443763
  - # 2
    frequency:    13.0933784765
  - # 3
    frequency:    19.8288655914
  - # 4
    frequency:    20.0202690632
  - # 5
    frequency:    21.4199917969
  - # 6
    frequency:    21.6169561067
  - # 7
    frequency:    31.7731117332
  - # 8
    frequency:    31.9483947406
  - # 9
    frequency:    42.6457417853
  - # 10
    frequency:    42.7474864425
  - # 11
    frequency:    43.1162465156
  - # 12
    frequency:    43.1866505690

- q-position: [    0.3333333,    0.2222222,    0.1250000 ]
  weight: 8    
  band:
  - # 1
    frequency:    14.9982915902
  - # 2
    frequency:    15.1332601795
  - # 3
    frequency:    17.9152592905
  - # 4
    frequency:    17.9547122303
  - # 5
    frequency:    25.3597642901
  - # 6
    frequency:    25.4808258013
  - # 7
    frequency:    35.9593235022
  - # 8
    frequency:    36.0607447828
  - # 9
    frequency:    39.9479003628
  - # 10
    frequency:    40.0081103195
  - # 11
    frequency:    43.4121178120
  - # 12
    frequency:    43.4199801564

- q-position: [   -0.5555556,    0.2222222,    0.1250000 ]
  weight: 8    
  band:
  - # 1
    frequency:    14.2820835985
  - # 2
    frequency:    14.5708251971
  - # 3
    frequency:    18.4385973254
  - # 4
    frequency:    18.4686218970
  - # 5
    frequency:    25.5694638017
  - # 6
    frequency:    25.6237853038
  - # 7
    frequency:    36.1227005720
  - # 8
    frequency:    36.1453116728
  - # 9
    frequency:    39.8000125745
  - # 10
    frequency:    39.8411050102
  - # 11
    frequency:    43.3425891529
  - # 12
    frequency:    43.3651802495

- q-position: [   -0.4444444,    0.2222222,    0.1250000 ]
  weight: 8    
  band:
  - # 1
    frequency:    11.8759899538
  - # 2
    frequency:    12.2735432400
  - # 3
    frequency:    20.3770630846
  - # 4
    frequency:    20.6266849269
  - # 5
    frequency:    21.8593862417
  - # 6
    frequency:    21.8919599406
  - # 7
    frequency:    32.0471622495
  - # 8
    frequency:    32.0702579842
  - # 9
    frequency:    42.4774563262
  - # 10
    frequency:    42.5425828601
  - # 11
    frequency:    42.9920446258
  - # 12
    frequency:    43.0254299840

- q-position: [   -0.3333333,    0.2222222,    0.1250000 ]
  weight: 8    
  band:
  - # 1
    frequency:     9.2501182988
  - # 2
    frequency:     9.7131586416
  - # 3
    frequency:    15.9344621480
  - # 4
    frequency:    16.1345222874
  - # 5
    frequency:    22.1797834875
  - # 6
    frequency:    22.6732369809
  - # 7
    frequency:    27.3955611978
  - # 8
    frequency:    27.4535451836
  - # 9
    frequency:    42.7179661764
  - # 10
    frequency:    42.7961797415
  - # 11
    frequency:    43.7680924250
  - # 12
    frequency:    43.9349251740

- q-position: [   -0.2222222,    0.2222222,    0.1250000 ]
  weight: 4    
  band:
  - # 1
    frequency:     6.9708468870
  - # 2
    frequency:     7.4655776428
  - # 3
    frequency:    11.2020711038
  - # 4
    frequency:    11.6569599497
  - # 5
    frequency:    22.1701491553
  - # 6
    frequency:    22.2846652098
  - # 7
    frequency:    23.4179411084
  - # 8
    frequency:    24.0886908647
  - # 9
    frequency:    42.8135942654
  - # 10
    frequency:    42.9277830059
  - # 11
    frequency:    43.9646720307
  - # 12
    frequency:    44.2052267714

- q-position: [   -0.6666667,    0.3333333,    0.1250000 ]
  weight: 4    
  band:
  - # 1
    frequency:    16.0096290543
  - # 2
    frequency:    16.1588765708
  - # 3
    frequency:    16.8013629613
  - # 4
    frequency:    16.8977359693
  - # 5
    frequency:    29.0252158167
  - # 6
    frequency:    29.0326936774
  - # 7
    frequency:    37.0680993303
  - # 8
    frequency:    37.0845980151
  - # 9
    frequency:    37.1893962596
  - # 10
    frequency:    37.2157472638
  - # 11
    frequency:    43.7596757706
  - # 12
    frequency:    43.7851816305

- q-position: [   -0.5555556,    0.3333333,    0.1250000 ]
  weight: 8    
  band:
  - # 1
    frequency:    14.2698347664
  - # 2
    frequency:    14.5433521138
  - # 3
    frequency:    18.4557790837
  - # 4
    frequency:    18.4853256873
  - # 5
    frequency:    25.6266667373
  - # 6
    frequency:    25.6494254315
  - # 7
    frequency:    36.0855216537
  - # 8
    frequency:    36.0934332684
  - # 9
    frequency:    39.8303153580
  - # 10
    frequency:    39.8419971257
  - # 11
    frequency:    43.3463252095
  - # 12
    frequency:    43.3571891963

- q-position: [   -0.4444444,    0.3333333,    0.1250000 ]
  weight: 8    
  band:
  - # 1
    frequency:    12.3445528978
  - # 2
    frequency:    12.7037066536
  - # 3
    frequency:    19.7547384203
  - # 4
    frequency:    19.8011797902
  - # 5
    frequency:    20.0739895897
  - # 6
    frequency:    20.2856311120
  - # 7
    frequency:    34.4263996945
  - # 8
    frequency:    34.4642649181
  - # 9
    frequency:    42.1126234299
  - # 10
    frequency:    42.1373233683
  - # 11
    frequency:    42.8883170804
  - # 12
    frequency:    42.9644024700

- q-position: [   -0.3333333,    0.3333333,    0.1250000 ]
  weight: 4    
  band:
  - # 1
    frequency:    10.4426414680
  - # 2
    frequency:    10.8790039861
  - # 3
    frequency:    15.8260634432
  - # 4
    frequency:    15.9828736848
  - # 5
    frequency:    21.4343280020
  - # 6
    frequency:    21.8254635423
  - # 7
    frequency:    31.1503752751
  - # 8
    frequency:    31.2065217598
  - # 9
    frequency:    42.2630329063
  - # 10
    frequency:    42.3195549993
  - # 11
    frequency:    43.7261474780
  - # 12
    frequency:    43.8710320150

- q-position: [   -0.5555556,    0.4444444,    0.1250000 ]
  weight: 4    
  band:
  - # 1
    frequency:    14.2449489125
  - # 2
    frequency:    14.4238315575
  - # 3
    frequency:    18.6136413334
  - # 4
    frequency:    18.6555277602
  - # 5
    frequency:    21.1240986985
  - # 6
    frequency:    21.1371300409
  - # 7
    frequency:    39.2743979898
  - # 8
    frequency:    39.2889545224
  - # 9
    frequency:    39.5898333957
  - # 10
    frequency:    39.6268153391
  - # 11
    frequency:    42.5195064818
  - # 12
    frequency:    42.5229705206

- q-position: [   -0.4444444,    0.4444444,    0.1250000 ]
  weight: 4    
  band:
  - # 1
    frequency:    13.4496424787
  - # 2
    frequency:    13.6942025893
  - # 3
    frequency:    18.3820827567
  - # 4
    frequency:    18.4000182014
  - # 5
    frequency:    19.2966709546
  - # 6
    frequency:    19.4122062097
  - # 7
    frequency:    37.7635471328
  - # 8
    frequency:    37.8109425393
  - # 9
    frequency:    41.8404902798
  - # 10
    frequency:    41.8465949113
  - # 11
    frequency:    41.8937679498
  - # 12
    frequency:    41.9661856798

- q-position: [    0.0000000,    0.0000000,    0.3750000 ]
  weight: 2    
  band:
  - # 1
    frequency:    -3.5654104871
  - # 2
    frequency:    -2.6190355449
  - # 3
    frequency:    -2.3107799616
  - # 4
    frequency:    -1.3430011622
  - # 5
    frequency:     1.9661927989
  - # 6
    frequency:     2.2234047221
  - # 7
    frequency:    25.7851495821
  - # 8
    frequency:    26.1716915424
  - # 9
    frequency:    43.7391413965
  - # 10
    frequency:    43.7944499055
  - # 11
    frequency:    43.8687005447
  - # 12
    frequency:    43.8878625666

- q-position: [    0.1111111,    0.0000000,    0.3750000 ]
  weight: 8    
  band:
  - # 1
    frequency:     4.4021347702
  - # 2
    frequency:     4.5536365253
  - # 3
    frequency:     5.4549797419
  - # 4
    frequency:     5.8207192842
  - # 5
    frequency:    11.0016469224
  - # 6
    frequency:    11.2427550273
  - # 7
    frequency:    25.2114761920
  - # 8
    frequency:    25.5665781681
  - # 9
    frequency:    43.5784224749
  - # 10
    frequency:    43.6985725209
  - # 11
    frequency:    44.0329370407
  - # 12
    frequency:    44.1177761015

- q-position: [    0.2222222,    0.0000000,    0.3750000 ]
  weight: 8    
  band:
  - # 1
    frequency:     7.9235752239
  - # 2
    frequency:     8.0530788736
  - # 3
    frequency:    11.3104279780
  - # 4
    frequency:    11.4742019079
  - # 5
    frequency:    21.8415088391
  - # 6
    frequency:    21.9651185795
  - # 7
    frequency:    23.6215478582
  - # 8
    frequency:    23.8900455896
  - # 9
    frequency:    43.0837122585
  - # 10
    frequency:    43.1740091844
  - # 11
    frequency:    44.4137041950
  - # 12
    frequency:    44.4791080361

- q-position: [    0.3333333,    0.0000000,    0.3750000 ]
  weight: 8    
  band:
  - # 1
    frequency:    11.1522490910
  - # 2
    frequency:    11.2694238500
  - # 3
    frequency:    15.8047780609
  - # 4
    frequency:    15.8909960896
  - # 5
    frequency:    21.3931048191
  - # 6
    frequency:    21.5437104447
  - # 7
    frequency:    30.8780820682
  - # 8
    frequency:    30.9534876204
  - # 9
    frequency:    42.3982557523
  - # 10
    frequency:    42.4500099650
  - # 11
    frequency:    44.0474923326
  - # 12
    frequency:    44.0840893278

- q-position: [    0.4444444,    0.0000000,    0.3750000 ]
  weight: 8    
  band:
  - # 1
    frequency:    13.6568736797
  - # 2
    frequency:    13.7370412374
  - # 3
    frequency:    18.3691766788
  - # 4
    frequency:    18.3968991323
  - # 5
    frequency:    19.2603041035
  - # 6
    frequency:    19.3056237546
  - # 7
    frequency:    37.6654269663
  - # 8
    frequency:    37.7031289911
  - # 9
    frequency:    41.8596557795
  - # 10
    frequency:    41.8752885162
  - # 11
    frequency:    42.0199007627
  - # 12
    frequency:    42.0323658699

- q-position: [    0.1111111,    0.1111111,    0.3750000 ]
  weight: 4    
  band:
  - # 1
    frequency:     7.2896962442
  - # 2
    frequency:     7.3950567028
  - # 3
    frequency:    10.4044816101
  - # 4
    frequency:    10.5876348063
  - # 5
    frequency:    18.6860329479
  - # 6
    frequency:    18.8460371976
  - # 7
    frequency:    24.0461513401
  - # 8
    frequency:    24.3392487664
  - # 9
    frequency:    43.3557624748
  - # 10
    frequency:    43.4657819610
  - # 11
    frequency:    44.2890875502
  - # 12
    frequency:    44.3534660442

- q-position: [    0.2222222,    0.1111111,    0.3750000 ]
  weight: 8    
  band:
  - # 1
    frequency:    10.4217936964
  - # 2
    frequency:    10.5163715091
  - # 3
    frequency:    15.7100474863
  - # 4
    frequency:    15.8333762817
  - # 5
    frequency:    22.0542652478
  - # 6
    frequency:    22.2414560895
  - # 7
    frequency:    27.0655687347
  - # 8
    frequency:    27.1705426007
  - # 9
    frequency:    42.9633601022
  - # 10
    frequency:    43.0317507108
  - # 11
    frequency:    44.1470973925
  - # 12
    frequency:    44.2008199161

- q-position: [    0.3333333,    0.1111111,    0.3750000 ]
  weight: 8    
  band:
  - # 1
    frequency:    13.1567868580
  - # 2
    frequency:    13.2336607204
  - # 3
    frequency:    19.5577933573
  - # 4
    frequency:    19.6369010153
  - # 5
    frequency:    19.7556049126
  - # 6
    frequency:    19.8256353569
  - # 7
    frequency:    34.1952138697
  - # 8
    frequency:    34.2614812123
  - # 9
    frequency:    42.2312902789
  - # 10
    frequency:    42.2663833820
  - # 11
    frequency:    43.1107195105
  - # 12
    frequency:    43.1366710050

- q-position: [   -0.5555556,    0.1111111,    0.3750000 ]
  weight: 8    
  band:
  - # 1
    frequency:    14.3747312774
  - # 2
    frequency:    14.4499364325
  - # 3
    frequency:    18.5546822094
  - # 4
    frequency:    18.5673312806
  - # 5
    frequency:    21.0538546965
  - # 6
    frequency:    21.0877417757
  - # 7
    frequency:    39.2842742380
  - # 8
    frequency:    39.3042281308
  - # 9
    frequency:    39.5845259331
  - # 10
    frequency:    39.5991442414
  - # 11
    frequency:    42.5290047262
  - # 12
    frequency:    42.5357016556

- q-position: [   -0.4444444,    0.1111111,    0.3750000 ]
  weight: 8    
  band:
  - # 1
    frequency:    12.5106591408
  - # 2
    frequency:    12.6445913220
  - # 3
    frequency:    19.7656038581
  - # 4
    frequency:    19.7782373779
  - # 5
    frequency:    20.1465840869
  - # 6
    frequency:    20.2322835042
  - # 7
    frequency:    34.3201655633
  - # 8
    frequency:    34.3513057623
  - # 9
    frequency:    42.1539504340
  - # 10
    frequency:    42.1815506140
  - # 11
    frequency:    43.0335236337
  - # 12
    frequency:    43.0417174546

- q-position: [   -0.3333333,    0.1111111,    0.3750000 ]
  weight: 8    
  band:
  - # 1
    frequency:     9.6118872924
  - # 2
    frequency:     9.7777207347
  - # 3
    frequency:    15.9841098820
  - # 4
    frequency:    16.0508030823
  - # 5
    frequency:    22.3985009186
  - # 6
    frequency:    22.5984034772
  - # 7
    frequency:    27.2343434741
  - # 8
    frequency:    27.2920671030
  - # 9
    frequency:    42.8688053923
  - # 10
    frequency:    42.9251444643
  - # 11
    frequency:    44.0708225064
  - # 12
    frequency:    44.1161578101

- q-position: [   -0.2222222,    0.1111111,    0.3750000 ]
  weight: 8    
  band:
  - # 1
    frequency:     6.4612888067
  - # 2
    frequency:     6.6464856597
  - # 3
    frequency:    10.5214942817
  - # 4
    frequency:    10.7020235865
  - # 5
    frequency:    18.9679655911
  - # 6
    frequency:    19.0479006238
  - # 7
    frequency:    24.2683358459
  - # 8
    frequency:    24.5692758563
  - # 9
    frequency:    43.3169855089
  - # 10
    frequency:    43.3875586198
  - # 11
    frequency:    44.2009187232
  - # 12
    frequency:    44.2940465893

- q-position: [   -0.1111111,    0.1111111,    0.3750000 ]
  weight: 4    
  band:
  - # 1
    frequency:     3.9155435859
  - # 2
    frequency:     4.1232752588
  - # 3
    frequency:     5.0721858124
  - # 4
    frequency:     5.5804678060
  - # 5
    frequency:    11.3892250027
  - # 6
    frequency:    11.5236364086
  - # 7
    frequency:    25.2878631536
  - # 8
    frequency:    25.6456171719
  - # 9
    frequency:    43.6069702792
  - # 10
    frequency:    43.6747779116
  - # 11
    frequency:    43.9577073480
  - # 12
    frequency:    44.0926631362

- q-position: [    0.2222222,    0.2222222,    0.3750000 ]
  weight: 4    
  band:
  - # 1
    frequency:    12.9801256636
  - # 2
    frequency:    13.0544614815
  - # 3
    frequency:    19.9313275978
  - # 4
    frequency:    20.0104305215
  - # 5
    frequency:    21.4863747887
  - # 6
    frequency:    21.5671488296
  - # 7
    frequency:    31.8322588395
  - # 8
    frequency:    31.9038597701
  - # 9
    frequency:    42.7133274633
  - # 10
    frequency:    42.7552520174
  - # 11
    frequency:    43.1679000562
  - # 12
    frequency:    43.1965215302

- q-position: [    0.3333333,    0.2222222,    0.3750000 ]
  weight: 8    
  band:
  - # 1
    frequency:    15.0355284986
  - # 2
    frequency:    15.0922456719
  - # 3
    frequency:    17.8973777059
  - # 4
    frequency:    17.9131258186
  - # 5
    frequency:    25.3854679847
  - # 6
    frequency:    25.4359615835
  - # 7
    frequency:    35.9820347527
  - # 8
    frequency:    36.0247284952
  - # 9
    frequency:    39.9400185025
  - # 10
    frequency:    39.9645230574
  - # 11
    frequency:    43.3970398296
  - # 12
    frequency:    43.4004373829

- q-position: [   -0.5555556,    0.2222222,    0.3750000 ]
  weight: 8    
  band:
  - # 1
    frequency:    14.3098361652
  - # 2
    frequency:    14.4304051079
  - # 3
    frequency:    18.4612824729
  - # 4
    frequency:    18.4736411092
  - # 5
    frequency:    25.5375180896
  - # 6
    frequency:    25.5601782251
  - # 7
    frequency:    36.0933191778
  - # 8
    frequency:    36.1026388907
  - # 9
    frequency:    39.8222966775
  - # 10
    frequency:    39.8390836389
  - # 11
    frequency:    43.3457254968
  - # 12
    frequency:    43.3552068542

- q-position: [   -0.4444444,    0.2222222,    0.3750000 ]
  weight: 8    
  band:
  - # 1
    frequency:    11.9306943109
  - # 2
    frequency:    12.0962998639
  - # 3
    frequency:    20.5405938670
  - # 4
    frequency:    20.6436021169
  - # 5
    frequency:    21.7901547707
  - # 6
    frequency:    21.8035058054
  - # 7
    frequency:    32.0244728579
  - # 8
    frequency:    32.0340750062
  - # 9
    frequency:    42.5735992925
  - # 10
    frequency:    42.6005729973
  - # 11
    frequency:    43.0649157811
  - # 12
    frequency:    43.0789728849

- q-position: [   -0.3333333,    0.2222222,    0.3750000 ]
  weight: 8    
  band:
  - # 1
    frequency:     9.3536365888
  - # 2
    frequency:     9.5480271392
  - # 3
    frequency:    15.9212126123
  - # 4
    frequency:    16.0012804638
  - # 5
    frequency:    22.5010558540
  - # 6
    frequency:    22.7047890689
  - # 7
    frequency:    27.3729741867
  - # 8
    frequency:    27.3961372668
  - # 9
    frequency:    42.8982004784
  - # 10
    frequency:    42.9318788135
  - # 11
    frequency:    43.9857040101
  - # 12
    frequency:    44.0554612812

- q-position: [   -0.2222222,    0.2222222,    0.3750000 ]
  weight: 4    
  band:
  - # 1
    frequency:     7.1382719282
  - # 2
    frequency:     7.3485082241
  - # 3
    frequency:    11.2690369527
  - # 4
    frequency:    11.4480881578
  - # 5
    frequency:    22.1663290922
  - # 6
    frequency:    22.2115265635
  - # 7
    frequency:    23.8560532363
  - # 8
    frequency:    24.1330719118
  - # 9
    frequency:    43.0852621654
  - # 10
    frequency:    43.1347795221
  - # 11
    frequency:    44.2806944885
  - # 12
    frequency:    44.3810650300

- q-position: [   -0.6666667,    0.3333333,    0.3750000 ]
  weight: 4    
  band:
  - # 1
    frequency:    15.9985280730
  - # 2
    frequency:    16.0676672474
  - # 3
    frequency:    16.8142333943
  - # 4
    frequency:    16.8474127111
  - # 5
    frequency:    28.9906445812
  - # 6
    frequency:    28.9935421263
  - # 7
    frequency:    37.0505524472
  - # 8
    frequency:    37.0603019654
  - # 9
    frequency:    37.1630120032
  - # 10
    frequency:    37.1706064440
  - # 11
    frequency:    43.7432580929
  - # 12
    frequency:    43.7540572610

- q-position: [   -0.5555556,    0.3333333,    0.3750000 ]
  weight: 8    
  band:
  - # 1
    frequency:    14.2937941370
  - # 2
    frequency:    14.4080327012
  - # 3
    frequency:    18.4774195306
  - # 4
    frequency:    18.4900284568
  - # 5
    frequency:    25.5753798283
  - # 6
    frequency:    25.5849032727
  - # 7
    frequency:    36.0633897234
  - # 8
    frequency:    36.0668935378
  - # 9
    frequency:    39.8398343962
  - # 10
    frequency:    39.8445980827
  - # 11
    frequency:    43.3459807226
  - # 12
    frequency:    43.3504960654

- q-position: [   -0.4444444,    0.3333333,    0.3750000 ]
  weight: 8    
  band:
  - # 1
    frequency:    12.4024428695
  - # 2
    frequency:    12.5518243357
  - # 3
    frequency:    19.7265528310
  - # 4
    frequency:    19.7456639407
  - # 5
    frequency:    20.2102463173
  - # 6
    frequency:    20.2976155111
  - # 7
    frequency:    34.3968845887
  - # 8
    frequency:    34.4125503684
  - # 9
    frequency:    42.1697820307
  - # 10
    frequency:    42.1796665433
  - # 11
    frequency:    42.9752818824
  - # 12
    frequency:    43.0069890683

- q-position: [   -0.3333333,    0.3333333,    0.3750000 ]
  weight: 4    
  band:
  - # 1
    frequency:    10.5283764700
  - # 2
    frequency:    10.7106059577
  - # 3
    frequency:    15.8323681102
  - # 4
    frequency:    15.8960164873
  - # 5
    frequency:    21.6885957581
  - # 6
    frequency:    21.8501152125
  - # 7
    frequency:    31.1127447781
  - # 8
    frequency:    31.1358542053
  - # 9
    frequency:    42.3891062037
  - # 10
    frequency:    42.4128781037
  - # 11
    frequency:    43.9040998304
  - # 12
    frequency:    43.9641236217

- q-position: [   -0.5555556,    0.4444444,    0.3750000 ]
  weight: 4    
  band:
  - # 1
    frequency:    14.2848348114
  - # 2
    frequency:    14.3592150137
  - # 3
    frequency:    18.6253359571
  - # 4
    frequency:    18.6428558671
  - # 5
    frequency:    21.1057928042
  - # 6
    frequency:    21.1112013977
  - # 7
    frequency:    39.2752231615
  - # 8
    frequency:    39.2821316280
  - # 9
    frequency:    39.5932712673
  - # 10
    frequency:    39.6094651617
  - # 11
    frequency:    42.5171261986
  - # 12
    frequency:    42.5185623748

- q-position: [   -0.4444444,    0.4444444,    0.3750000 ]
  weight: 4    
  band:
  - # 1
    frequency:    13.5075943833
  - # 2
    frequency:    13.6091171224
  - # 3
    frequency:    18.3814845793
  - # 4
    frequency:    18.3888945275
  - # 5
    frequency:    19.3604238841
  - # 6
    frequency:    19.4081135939
  - # 7
    frequency:    37.7491331115
  - # 8
    frequency:    37.7687907753
  - # 9
    frequency:    41.8554189103
  - # 10
    frequency:    41.8579569532
  - # 11
    frequency:    41.9523869285
  - # 12
    frequency:    41.9822806881

