mesh: [     9,     9,     4 ]
nqpoint: 50     
natom:   4      
reciprocal_lattice:
- [   0.40533564,   0.23404500,   0.00000000 ] # a*
- [   0.00002110,   0.46805346,   0.00000000 ] # b*
- [   0.00000000,   0.00000000,   0.14160236 ] # c*
phonon:
- q-position: [    0.0000000,    0.0000000,    0.1250000 ]
  weight: 2    
  band:
  - # 1
    frequency:    -4.1113730800
  - # 2
    frequency:    -3.1449887163
  - # 3
    frequency:    -1.0682679052
  - # 4
    frequency:    -0.7432895989
  - # 5
    frequency:     0.7887325008
  - # 6
    frequency:     1.6215454330
  - # 7
    frequency:    25.1743423485
  - # 8
    frequency:    26.1094649192
  - # 9
    frequency:    43.2653638652
  - # 10
    frequency:    43.3716784192
  - # 11
    frequency:    43.5339525450
  - # 12
    frequency:    43.6186851468

- q-position: [    0.1111111,    0.0000000,    0.1250000 ]
  weight: 8    
  band:
  - # 1
    frequency:     4.0541890501
  - # 2
    frequency:     4.3881277895
  - # 3
    frequency:     5.0619533136
  - # 4
    frequency:     6.0333110296
  - # 5
    frequency:    10.8019044632
  - # 6
    frequency:    11.4405465245
  - # 7
    frequency:    24.6530808827
  - # 8
    frequency:    25.5121472767
  - # 9
    frequency:    43.1624555814
  - # 10
    frequency:    43.4435878830
  - # 11
    frequency:    43.6503122415
  - # 12
    frequency:    43.8442507970

- q-position: [    0.2222222,    0.0000000,    0.1250000 ]
  weight: 8    
  band:
  - # 1
    frequency:     7.7615722548
  - # 2
    frequency:     8.0630983537
  - # 3
    frequency:    11.1770383837
  - # 4
    frequency:    11.5953925980
  - # 5
    frequency:    21.7515047316
  - # 6
    frequency:    22.0676342418
  - # 7
    frequency:    23.2060853101
  - # 8
    frequency:    23.8557294046
  - # 9
    frequency:    42.7936321915
  - # 10
    frequency:    43.0065008882
  - # 11
    frequency:    44.1513303213
  - # 12
    frequency:    44.3019140176

- q-position: [    0.3333333,    0.0000000,    0.1250000 ]
  weight: 8    
  band:
  - # 1
    frequency:    11.0642249164
  - # 2
    frequency:    11.3452921354
  - # 3
    frequency:    15.7487112867
  - # 4
    frequency:    15.9626210264
  - # 5
    frequency:    21.1690962744
  - # 6
    frequency:    21.5336239823
  - # 7
    frequency:    30.8374273630
  - # 8
    frequency:    31.0244982067
  - # 9
    frequency:    42.2604957860
  - # 10
    frequency:    42.3834882727
  - # 11
    frequency:    43.9192190022
  - # 12
    frequency:    44.0049512988

- q-position: [    0.4444444,    0.0000000,    0.1250000 ]
  weight: 8    
  band:
  - # 1
    frequency:    13.6015076525
  - # 2
    frequency:    13.7949523649
  - # 3
    frequency:    18.3511175509
  - # 4
    frequency:    18.4184801814
  - # 5
    frequency:    19.2068398827
  - # 6
    frequency:    19.3164235523
  - # 7
    frequency:    37.6508958020
  - # 8
    frequency:    37.7424602870
  - # 9
    frequency:    41.8361566628
  - # 10
    frequency:    41.8737059120
  - # 11
    frequency:    41.9877332233
  - # 12
    frequency:    42.0188951691

- q-position: [    0.1111111,    0.1111111,    0.1250000 ]
  weight: 4    
  band:
  - # 1
    frequency:     7.0980523889
  - # 2
    frequency:     7.3372233545
  - # 3
    frequency:    10.1896605155
  - # 4
    frequency:    10.6611340173
  - # 5
    frequency:    18.5603814879
  - # 6
    frequency:    18.9755705969
  - # 7
    frequency:    23.5931843520
  - # 8
    frequency:    24.3020487093
  - # 9
    frequency:    43.0315403049
  - # 10
    frequency:    43.2913933227
  - # 11
    frequency:    43.9999345724
  - # 12
    frequency:    44.1437632852

- q-position: [    0.2222222,    0.1111111,    0.1250000 ]
  weight: 8    
  band:
  - # 1
    frequency:    10.3125694989
  - # 2
    frequency:    10.5375326513
  - # 3
    frequency:    15.5912498349
  - # 4
    frequency:    15.8995676662
  - # 5
    frequency:    21.7764970323
  - # 6
    frequency:    22.2292272815
  - # 7
    frequency:    26.9809002046
  - # 8
    frequency:    27.2446561875
  - # 9
    frequency:    42.7865762567
  - # 10
    frequency:    42.9473749937
  - # 11
    frequency:    43.9803676742
  - # 12
    frequency:    44.1042429950

- q-position: [    0.3333333,    0.1111111,    0.1250000 ]
  weight: 8    
  band:
  - # 1
    frequency:    13.0934562527
  - # 2
    frequency:    13.2792300066
  - # 3
    frequency:    19.4932033244
  - # 4
    frequency:    19.6661972515
  - # 5
    frequency:    19.6860013336
  - # 6
    frequency:    19.8356346101
  - # 7
    frequency:    34.1472474747
  - # 8
    frequency:    34.3093108185
  - # 9
    frequency:    42.1775793619
  - # 10
    frequency:    42.2619351170
  - # 11
    frequency:    43.0621519157
  - # 12
    frequency:    43.1240036434

- q-position: [   -0.5555556,    0.1111111,    0.1250000 ]
  weight: 8    
  band:
  - # 1
    frequency:    14.3291328001
  - # 2
    frequency:    14.5097670718
  - # 3
    frequency:    18.5501470452
  - # 4
    frequency:    18.5806514698
  - # 5
    frequency:    21.0410613649
  - # 6
    frequency:    21.1224478991
  - # 7
    frequency:    39.2748158301
  - # 8
    frequency:    39.3166441760
  - # 9
    frequency:    39.5888424689
  - # 10
    frequency:    39.6169055723
  - # 11
    frequency:    42.5299200569
  - # 12
    frequency:    42.5459635717

- q-position: [   -0.4444444,    0.1111111,    0.1250000 ]
  weight: 8    
  band:
  - # 1
    frequency:    12.4540406071
  - # 2
    frequency:    12.7762108772
  - # 3
    frequency:    19.7993401812
  - # 4
    frequency:    19.8308676495
  - # 5
    frequency:    20.0170515650
  - # 6
    frequency:    20.2247030414
  - # 7
    frequency:    34.3288619829
  - # 8
    frequency:    34.4045369186
  - # 9
    frequency:    42.0840980103
  - # 10
    frequency:    42.1502250351
  - # 11
    frequency:    42.9700006178
  - # 12
    frequency:    42.9904280557

- q-position: [   -0.3333333,    0.1111111,    0.1250000 ]
  weight: 8    
  band:
  - # 1
    frequency:     9.5083951808
  - # 2
    frequency:     9.9032967785
  - # 3
    frequency:    15.9996972287
  - # 4
    frequency:    16.1683037027
  - # 5
    frequency:    22.0877419364
  - # 6
    frequency:    22.5719015810
  - # 7
    frequency:    27.2130135838
  - # 8
    frequency:    27.3577306614
  - # 9
    frequency:    42.6697070469
  - # 10
    frequency:    42.8028777130
  - # 11
    frequency:    43.8877640019
  - # 12
    frequency:    43.9934166025

- q-position: [   -0.2222222,    0.1111111,    0.1250000 ]
  weight: 8    
  band:
  - # 1
    frequency:     6.2605000739
  - # 2
    frequency:     6.6913932481
  - # 3
    frequency:    10.4463635711
  - # 4
    frequency:    10.9144009582
  - # 5
    frequency:    18.9140943982
  - # 6
    frequency:    19.1217849945
  - # 7
    frequency:    23.7946063354
  - # 8
    frequency:    24.5230958025
  - # 9
    frequency:    42.9972391425
  - # 10
    frequency:    43.1597122307
  - # 11
    frequency:    43.8758898120
  - # 12
    frequency:    44.0943999995

- q-position: [   -0.1111111,    0.1111111,    0.1250000 ]
  weight: 4    
  band:
  - # 1
    frequency:     3.5236218120
  - # 2
    frequency:     4.0026601180
  - # 3
    frequency:     4.7313099583
  - # 4
    frequency:     6.0622335230
  - # 5
    frequency:    11.2494472106
  - # 6
    frequency:    11.6015344117
  - # 7
    frequency:    24.7223842732
  - # 8
    frequency:    25.5881302137
  - # 9
    frequency:    43.2243577422
  - # 10
    frequency:    43.3751252631
  - # 11
    frequency:    43.5286616517
  - # 12
    frequency:    43.8499002309

- q-position: [    0.2222222,    0.2222222,    0.1250000 ]
  weight: 4    
  band:
  - # 1
    frequency:    12.9137763180
  - # 2
    frequency:    13.0934475819
  - # 3
    frequency:    19.8289025731
  - # 4
    frequency:    20.0202258794
  - # 5
    frequency:    21.4195470338
  - # 6
    frequency:    21.6168916849
  - # 7
    frequency:    31.7724635820
  - # 8
    frequency:    31.9482004227
  - # 9
    frequency:    42.6454689573
  - # 10
    frequency:    42.7479245100
  - # 11
    frequency:    43.1159687257
  - # 12
    frequency:    43.1861561802

- q-position: [    0.3333333,    0.2222222,    0.1250000 ]
  weight: 8    
  band:
  - # 1
    frequency:    14.9983124848
  - # 2
    frequency:    15.1332346865
  - # 3
    frequency:    17.9152545755
  - # 4
    frequency:    17.9547482066
  - # 5
    frequency:    25.3597764919
  - # 6
    frequency:    25.4807261940
  - # 7
    frequency:    35.9586945498
  - # 8
    frequency:    36.0603541917
  - # 9
    frequency:    39.9476254007
  - # 10
    frequency:    40.0084951659
  - # 11
    frequency:    43.4117777522
  - # 12
    frequency:    43.4197317797

- q-position: [   -0.5555556,    0.2222222,    0.1250000 ]
  weight: 8    
  band:
  - # 1
    frequency:    14.2821665818
  - # 2
    frequency:    14.5708189247
  - # 3
    frequency:    18.4385368471
  - # 4
    frequency:    18.4686535195
  - # 5
    frequency:    25.5698671557
  - # 6
    frequency:    25.6236053536
  - # 7
    frequency:    36.1224713469
  - # 8
    frequency:    36.1456527012
  - # 9
    frequency:    39.7996738192
  - # 10
    frequency:    39.8408484417
  - # 11
    frequency:    43.3422004404
  - # 12
    frequency:    43.3650254149

- q-position: [   -0.4444444,    0.2222222,    0.1250000 ]
  weight: 8    
  band:
  - # 1
    frequency:    11.8761951487
  - # 2
    frequency:    12.2735427739
  - # 3
    frequency:    20.3769664895
  - # 4
    frequency:    20.6267288146
  - # 5
    frequency:    21.8592439062
  - # 6
    frequency:    21.8923588730
  - # 7
    frequency:    32.0471377229
  - # 8
    frequency:    32.0708008018
  - # 9
    frequency:    42.4774176320
  - # 10
    frequency:    42.5426786994
  - # 11
    frequency:    42.9916080342
  - # 12
    frequency:    43.0251331576

- q-position: [   -0.3333333,    0.2222222,    0.1250000 ]
  weight: 8    
  band:
  - # 1
    frequency:     9.2504535157
  - # 2
    frequency:     9.7131865160
  - # 3
    frequency:    15.9338531882
  - # 4
    frequency:    16.1350692635
  - # 5
    frequency:    22.1796928887
  - # 6
    frequency:    22.6732898171
  - # 7
    frequency:    27.3952672944
  - # 8
    frequency:    27.4548610831
  - # 9
    frequency:    42.7173917543
  - # 10
    frequency:    42.7953274092
  - # 11
    frequency:    43.7686008247
  - # 12
    frequency:    43.9355872745

- q-position: [   -0.2222222,    0.2222222,    0.1250000 ]
  weight: 4    
  band:
  - # 1
    frequency:     6.9712849650
  - # 2
    frequency:     7.4656954581
  - # 3
    frequency:    11.2009963150
  - # 4
    frequency:    11.6576793922
  - # 5
    frequency:    22.1696132336
  - # 6
    frequency:    22.2860819694
  - # 7
    frequency:    23.4178773782
  - # 8
    frequency:    24.0887358225
  - # 9
    frequency:    42.8130745178
  - # 10
    frequency:    42.9270639681
  - # 11
    frequency:    43.9654611871
  - # 12
    frequency:    44.2058301908

- q-position: [   -0.6666667,    0.3333333,    0.1250000 ]
  weight: 4    
  band:
  - # 1
    frequency:    16.0097186928
  - # 2
    frequency:    16.1589206391
  - # 3
    frequency:    16.8013984605
  - # 4
    frequency:    16.8975924965
  - # 5
    frequency:    29.0255289977
  - # 6
    frequency:    29.0326699902
  - # 7
    frequency:    37.0675316727
  - # 8
    frequency:    37.0846472928
  - # 9
    frequency:    37.1893901334
  - # 10
    frequency:    37.2157095994
  - # 11
    frequency:    43.7593325743
  - # 12
    frequency:    43.7849828321

- q-position: [   -0.5555556,    0.3333333,    0.1250000 ]
  weight: 8    
  band:
  - # 1
    frequency:    14.2700389249
  - # 2
    frequency:    14.5433475284
  - # 3
    frequency:    18.4555952207
  - # 4
    frequency:    18.4853917934
  - # 5
    frequency:    25.6267546885
  - # 6
    frequency:    25.6495943831
  - # 7
    frequency:    36.0857765673
  - # 8
    frequency:    36.0937298750
  - # 9
    frequency:    39.8302894656
  - # 10
    frequency:    39.8420589584
  - # 11
    frequency:    43.3457806365
  - # 12
    frequency:    43.3570210019

- q-position: [   -0.4444444,    0.3333333,    0.1250000 ]
  weight: 8    
  band:
  - # 1
    frequency:    12.3448603096
  - # 2
    frequency:    12.7036668568
  - # 3
    frequency:    19.7544683872
  - # 4
    frequency:    19.8015110642
  - # 5
    frequency:    20.0738147617
  - # 6
    frequency:    20.2857114392
  - # 7
    frequency:    34.4264724774
  - # 8
    frequency:    34.4657071527
  - # 9
    frequency:    42.1117387428
  - # 10
    frequency:    42.1361152574
  - # 11
    frequency:    42.8886637698
  - # 12
    frequency:    42.9654222202

- q-position: [   -0.3333333,    0.3333333,    0.1250000 ]
  weight: 4    
  band:
  - # 1
    frequency:    10.4430068077
  - # 2
    frequency:    10.8789698250
  - # 3
    frequency:    15.8253556076
  - # 4
    frequency:    15.9834274233
  - # 5
    frequency:    21.4341866267
  - # 6
    frequency:    21.8255423025
  - # 7
    frequency:    31.1503168808
  - # 8
    frequency:    31.2083151863
  - # 9
    frequency:    42.2622576241
  - # 10
    frequency:    42.3178349586
  - # 11
    frequency:    43.7268987060
  - # 12
    frequency:    43.8722397190

- q-position: [   -0.5555556,    0.4444444,    0.1250000 ]
  weight: 4    
  band:
  - # 1
    frequency:    14.2452612625
  - # 2
    frequency:    14.4238384470
  - # 3
    frequency:    18.6133660323
  - # 4
    frequency:    18.6556086225
  - # 5
    frequency:    21.1242058606
  - # 6
    frequency:    21.1372167748
  - # 7
    frequency:    39.2742558580
  - # 8
    frequency:    39.2894765267
  - # 9
    frequency:    39.5902111442
  - # 10
    frequency:    39.6282423903
  - # 11
    frequency:    42.5191763214
  - # 12
    frequency:    42.5217953566

- q-position: [   -0.4444444,    0.4444444,    0.1250000 ]
  weight: 4    
  band:
  - # 1
    frequency:    13.4499843858
  - # 2
    frequency:    13.6941787264
  - # 3
    frequency:    18.3819178662
  - # 4
    frequency:    18.4002973135
  - # 5
    frequency:    19.2964245331
  - # 6
    frequency:    19.4122937438
  - # 7
    frequency:    37.7637640312
  - # 8
    frequency:    37.8127343459
  - # 9
    frequency:    41.8394671683
  - # 10
    frequency:    41.8441912749
  - # 11
    frequency:    41.8943196286
  - # 12
    frequency:    41.9680774624

- q-position: [    0.0000000,    0.0000000,    0.3750000 ]
  weight: 2    
  band:
  - # 1
    frequency:    -3.5658881270
  - # 2
    frequency:    -2.6198262228
  - # 3
    frequency:    -2.3149766599
  - # 4
    frequency:    -1.3435703057
  - # 5
    frequency:     1.9714435666
  - # 6
    frequency:     2.2278341948
  - # 7
    frequency:    25.7851684528
  - # 8
    frequency:    26.1717154772
  - # 9
    frequency:    43.7389646521
  - # 10
    frequency:    43.7938685724
  - # 11
    frequency:    43.8682257566
  - # 12
    frequency:    43.8873674612

- q-position: [    0.1111111,    0.0000000,    0.3750000 ]
  weight: 8    
  band:
  - # 1
    frequency:     4.4048989940
  - # 2
    frequency:     4.5563520728
  - # 3
    frequency:     5.4532708271
  - # 4
    frequency:     5.8201314213
  - # 5
    frequency:    11.0009218694
  - # 6
    frequency:    11.2423305042
  - # 7
    frequency:    25.2114889231
  - # 8
    frequency:    25.5665933822
  - # 9
    frequency:    43.5781938899
  - # 10
    frequency:    43.6981327198
  - # 11
    frequency:    44.0324428767
  - # 12
    frequency:    44.1173277221

- q-position: [    0.2222222,    0.0000000,    0.3750000 ]
  weight: 8    
  band:
  - # 1
    frequency:     7.9245664834
  - # 2
    frequency:     8.0540843755
  - # 3
    frequency:    11.3098369664
  - # 4
    frequency:    11.4741182863
  - # 5
    frequency:    21.8408181999
  - # 6
    frequency:    21.9646507833
  - # 7
    frequency:    23.6215442929
  - # 8
    frequency:    23.8900376037
  - # 9
    frequency:    43.0835610537
  - # 10
    frequency:    43.1736957426
  - # 11
    frequency:    44.4132091585
  - # 12
    frequency:    44.4787175338

- q-position: [    0.3333333,    0.0000000,    0.3750000 ]
  weight: 8    
  band:
  - # 1
    frequency:    11.1525805124
  - # 2
    frequency:    11.2697661398
  - # 3
    frequency:    15.8045385434
  - # 4
    frequency:    15.8910378628
  - # 5
    frequency:    21.3930866311
  - # 6
    frequency:    21.5436785591
  - # 7
    frequency:    30.8774036179
  - # 8
    frequency:    30.9529691316
  - # 9
    frequency:    42.3982003453
  - # 10
    frequency:    42.4498480389
  - # 11
    frequency:    44.0469472556
  - # 12
    frequency:    44.0837170293

- q-position: [    0.4444444,    0.0000000,    0.3750000 ]
  weight: 8    
  band:
  - # 1
    frequency:    13.6569149220
  - # 2
    frequency:    13.7370851350
  - # 3
    frequency:    18.3691229912
  - # 4
    frequency:    18.3969399558
  - # 5
    frequency:    19.2602996316
  - # 6
    frequency:    19.3055954390
  - # 7
    frequency:    37.6648492100
  - # 8
    frequency:    37.7026536642
  - # 9
    frequency:    41.8596493887
  - # 10
    frequency:    41.8752465996
  - # 11
    frequency:    42.0191889012
  - # 12
    frequency:    42.0319793069

- q-position: [    0.1111111,    0.1111111,    0.3750000 ]
  weight: 4    
  band:
  - # 1
    frequency:     7.2908476127
  - # 2
    frequency:     7.3962562050
  - # 3
    frequency:    10.4032492086
  - # 4
    frequency:    10.5871096557
  - # 5
    frequency:    18.6854614422
  - # 6
    frequency:    18.8455328894
  - # 7
    frequency:    24.0461608560
  - # 8
    frequency:    24.3392444171
  - # 9
    frequency:    43.3555812503
  - # 10
    frequency:    43.4653270987
  - # 11
    frequency:    44.2886180925
  - # 12
    frequency:    44.3531847123

- q-position: [    0.2222222,    0.1111111,    0.3750000 ]
  weight: 8    
  band:
  - # 1
    frequency:    10.4222121839
  - # 2
    frequency:    10.5168259292
  - # 3
    frequency:    15.7093821105
  - # 4
    frequency:    15.8330582801
  - # 5
    frequency:    22.0542654056
  - # 6
    frequency:    22.2414294482
  - # 7
    frequency:    27.0648552749
  - # 8
    frequency:    27.1699808105
  - # 9
    frequency:    42.9631899030
  - # 10
    frequency:    43.0314160331
  - # 11
    frequency:    44.1466948716
  - # 12
    frequency:    44.2006196807

- q-position: [    0.3333333,    0.1111111,    0.3750000 ]
  weight: 8    
  band:
  - # 1
    frequency:    13.1568611375
  - # 2
    frequency:    13.2337464083
  - # 3
    frequency:    19.5575375384
  - # 4
    frequency:    19.6367549652
  - # 5
    frequency:    19.7556059241
  - # 6
    frequency:    19.8256055534
  - # 7
    frequency:    34.1945179465
  - # 8
    frequency:    34.2609298199
  - # 9
    frequency:    42.2311783364
  - # 10
    frequency:    42.2663680085
  - # 11
    frequency:    43.1102730065
  - # 12
    frequency:    43.1362771267

- q-position: [   -0.5555556,    0.1111111,    0.3750000 ]
  weight: 8    
  band:
  - # 1
    frequency:    14.3747304661
  - # 2
    frequency:    14.4499279538
  - # 3
    frequency:    18.5546765573
  - # 4
    frequency:    18.5673121776
  - # 5
    frequency:    21.0539158953
  - # 6
    frequency:    21.0877118097
  - # 7
    frequency:    39.2843461153
  - # 8
    frequency:    39.3039676789
  - # 9
    frequency:    39.5838149585
  - # 10
    frequency:    39.5985850013
  - # 11
    frequency:    42.5286694683
  - # 12
    frequency:    42.5354153011

- q-position: [   -0.4444444,    0.1111111,    0.3750000 ]
  weight: 8    
  band:
  - # 1
    frequency:    12.5108655611
  - # 2
    frequency:    12.6447773262
  - # 3
    frequency:    19.7656223159
  - # 4
    frequency:    19.7785027092
  - # 5
    frequency:    20.1465420188
  - # 6
    frequency:    20.2322499621
  - # 7
    frequency:    34.3197555686
  - # 8
    frequency:    34.3509789575
  - # 9
    frequency:    42.1539030359
  - # 10
    frequency:    42.1814252233
  - # 11
    frequency:    43.0327602904
  - # 12
    frequency:    43.0413265386

- q-position: [   -0.3333333,    0.1111111,    0.3750000 ]
  weight: 8    
  band:
  - # 1
    frequency:     9.6125488647
  - # 2
    frequency:     9.7783349222
  - # 3
    frequency:    15.9840957579
  - # 4
    frequency:    16.0510939496
  - # 5
    frequency:    22.3984664265
  - # 6
    frequency:    22.5983905757
  - # 7
    frequency:    27.2338463784
  - # 8
    frequency:    27.2917552407
  - # 9
    frequency:    42.8686430273
  - # 10
    frequency:    42.9249506976
  - # 11
    frequency:    44.0702962888
  - # 12
    frequency:    44.1157403736

- q-position: [   -0.2222222,    0.1111111,    0.3750000 ]
  weight: 8    
  band:
  - # 1
    frequency:     6.4628385619
  - # 2
    frequency:     6.6479541847
  - # 3
    frequency:    10.5212421465
  - # 4
    frequency:    10.7021703295
  - # 5
    frequency:    18.9674101588
  - # 6
    frequency:    19.0477703538
  - # 7
    frequency:    24.2683237531
  - # 8
    frequency:    24.5692874498
  - # 9
    frequency:    43.3165893360
  - # 10
    frequency:    43.3871789606
  - # 11
    frequency:    44.2005924342
  - # 12
    frequency:    44.2936797772

- q-position: [   -0.1111111,    0.1111111,    0.3750000 ]
  weight: 4    
  band:
  - # 1
    frequency:     3.9186076118
  - # 2
    frequency:     4.1261920998
  - # 3
    frequency:     5.0715356440
  - # 4
    frequency:     5.5804468192
  - # 5
    frequency:    11.3882486612
  - # 6
    frequency:    11.5235977339
  - # 7
    frequency:    25.2878687584
  - # 8
    frequency:    25.6456392223
  - # 9
    frequency:    43.6063936262
  - # 10
    frequency:    43.6742758598
  - # 11
    frequency:    43.9575575024
  - # 12
    frequency:    44.0922593363

- q-position: [    0.2222222,    0.2222222,    0.3750000 ]
  weight: 4    
  band:
  - # 1
    frequency:    12.9802127746
  - # 2
    frequency:    13.0545635219
  - # 3
    frequency:    19.9313300557
  - # 4
    frequency:    20.0103997479
  - # 5
    frequency:    21.4859643498
  - # 6
    frequency:    21.5668972000
  - # 7
    frequency:    31.8315573044
  - # 8
    frequency:    31.9033528415
  - # 9
    frequency:    42.7130456841
  - # 10
    frequency:    42.7552548749
  - # 11
    frequency:    43.1676109911
  - # 12
    frequency:    43.1961371817

- q-position: [    0.3333333,    0.2222222,    0.3750000 ]
  weight: 8    
  band:
  - # 1
    frequency:    15.0354900052
  - # 2
    frequency:    15.0921889816
  - # 3
    frequency:    17.8973727540
  - # 4
    frequency:    17.9131368823
  - # 5
    frequency:    25.3854276789
  - # 6
    frequency:    25.4358739284
  - # 7
    frequency:    35.9815412677
  - # 8
    frequency:    36.0243260551
  - # 9
    frequency:    39.9397576457
  - # 10
    frequency:    39.9645414034
  - # 11
    frequency:    43.3966133952
  - # 12
    frequency:    43.4000508289

- q-position: [   -0.5555556,    0.2222222,    0.3750000 ]
  weight: 8    
  band:
  - # 1
    frequency:    14.3099340629
  - # 2
    frequency:    14.4304651266
  - # 3
    frequency:    18.4612121124
  - # 4
    frequency:    18.4736095759
  - # 5
    frequency:    25.5378116593
  - # 6
    frequency:    25.5602306375
  - # 7
    frequency:    36.0930844993
  - # 8
    frequency:    36.1026396223
  - # 9
    frequency:    39.8219426987
  - # 10
    frequency:    39.8387647006
  - # 11
    frequency:    43.3452310150
  - # 12
    frequency:    43.3548160304

- q-position: [   -0.4444444,    0.2222222,    0.3750000 ]
  weight: 8    
  band:
  - # 1
    frequency:    11.9310671891
  - # 2
    frequency:    12.0965848821
  - # 3
    frequency:    20.5405232662
  - # 4
    frequency:    20.6435898268
  - # 5
    frequency:    21.7902462425
  - # 6
    frequency:    21.8038241136
  - # 7
    frequency:    32.0242373972
  - # 8
    frequency:    32.0340817753
  - # 9
    frequency:    42.5733218866
  - # 10
    frequency:    42.6003982863
  - # 11
    frequency:    43.0644571898
  - # 12
    frequency:    43.0785876535

- q-position: [   -0.3333333,    0.2222222,    0.3750000 ]
  weight: 8    
  band:
  - # 1
    frequency:     9.3544572916
  - # 2
    frequency:     9.5487145880
  - # 3
    frequency:    15.9210131672
  - # 4
    frequency:    16.0015702107
  - # 5
    frequency:    22.5010106133
  - # 6
    frequency:    22.7048050731
  - # 7
    frequency:    27.3726343985
  - # 8
    frequency:    27.3964783733
  - # 9
    frequency:    42.8977190615
  - # 10
    frequency:    42.9312795220
  - # 11
    frequency:    43.9855854170
  - # 12
    frequency:    44.0553876381

- q-position: [   -0.2222222,    0.2222222,    0.3750000 ]
  weight: 4    
  band:
  - # 1
    frequency:     7.1396520939
  - # 2
    frequency:     7.3497396545
  - # 3
    frequency:    11.2685510781
  - # 4
    frequency:    11.4483704402
  - # 5
    frequency:    22.1659187349
  - # 6
    frequency:    22.2119391845
  - # 7
    frequency:    23.8560258738
  - # 8
    frequency:    24.1330929184
  - # 9
    frequency:    43.0847258658
  - # 10
    frequency:    43.1341717437
  - # 11
    frequency:    44.2806063927
  - # 12
    frequency:    44.3808985286

- q-position: [   -0.6666667,    0.3333333,    0.3750000 ]
  weight: 4    
  band:
  - # 1
    frequency:    15.9986022363
  - # 2
    frequency:    16.0677221548
  - # 3
    frequency:    16.8141869116
  - # 4
    frequency:    16.8472923367
  - # 5
    frequency:    28.9909184549
  - # 6
    frequency:    28.9936756542
  - # 7
    frequency:    37.0505497650
  - # 8
    frequency:    37.0603146147
  - # 9
    frequency:    37.1624811130
  - # 10
    frequency:    37.1702929801
  - # 11
    frequency:    43.7427562014
  - # 12
    frequency:    43.7536226343

- q-position: [   -0.5555556,    0.3333333,    0.3750000 ]
  weight: 8    
  band:
  - # 1
    frequency:    14.2939942524
  - # 2
    frequency:    14.4081434442
  - # 3
    frequency:    18.4773293316
  - # 4
    frequency:    18.4900401254
  - # 5
    frequency:    25.5755587185
  - # 6
    frequency:    25.5851114742
  - # 7
    frequency:    36.0633823508
  - # 8
    frequency:    36.0669090494
  - # 9
    frequency:    39.8396683197
  - # 10
    frequency:    39.8444676345
  - # 11
    frequency:    43.3454467211
  - # 12
    frequency:    43.3501272912

- q-position: [   -0.4444444,    0.3333333,    0.3750000 ]
  weight: 8    
  band:
  - # 1
    frequency:    12.4028605661
  - # 2
    frequency:    12.5520958493
  - # 3
    frequency:    19.7265013404
  - # 4
    frequency:    19.7458643229
  - # 5
    frequency:    20.2101848518
  - # 6
    frequency:    20.2976597087
  - # 7
    frequency:    34.3967645054
  - # 8
    frequency:    34.4130029846
  - # 9
    frequency:    42.1693081442
  - # 10
    frequency:    42.1790901166
  - # 11
    frequency:    42.9751305456
  - # 12
    frequency:    43.0071059834

- q-position: [   -0.3333333,    0.3333333,    0.3750000 ]
  weight: 4    
  band:
  - # 1
    frequency:    10.5290540983
  - # 2
    frequency:    10.7111146622
  - # 3
    frequency:    15.8320964400
  - # 4
    frequency:    15.8962718857
  - # 5
    frequency:    21.6885433870
  - # 6
    frequency:    21.8501553210
  - # 7
    frequency:    31.1125548727
  - # 8
    frequency:    31.1364336065
  - # 9
    frequency:    42.3886758899
  - # 10
    frequency:    42.4120691161
  - # 11
    frequency:    43.9040585956
  - # 12
    frequency:    43.9642649616

- q-position: [   -0.5555556,    0.4444444,    0.3750000 ]
  weight: 4    
  band:
  - # 1
    frequency:    14.2850942371
  - # 2
    frequency:    14.3593452846
  - # 3
    frequency:    18.6252756185
  - # 4
    frequency:    18.6429411591
  - # 5
    frequency:    21.1058967831
  - # 6
    frequency:    21.1112947465
  - # 7
    frequency:    39.2752056449
  - # 8
    frequency:    39.2823893795
  - # 9
    frequency:    39.5931081551
  - # 10
    frequency:    39.6097514170
  - # 11
    frequency:    42.5168249232
  - # 12
    frequency:    42.5178967721

- q-position: [   -0.4444444,    0.4444444,    0.3750000 ]
  weight: 4    
  band:
  - # 1
    frequency:    13.5079376149
  - # 2
    frequency:    13.6093067686
  - # 3
    frequency:    18.3814382848
  - # 4
    frequency:    18.3890331835
  - # 5
    frequency:    19.3603769426
  - # 6
    frequency:    19.4082049375
  - # 7
    frequency:    37.7490462922
  - # 8
    frequency:    37.7693624057
  - # 9
    frequency:    41.8550421351
  - # 10
    frequency:    41.8570127387
  - # 11
    frequency:    41.9523077442
  - # 12
    frequency:    41.9827500540

