# Thermal properties / unit cell (natom)

unit:
  temperature:   K
  free_energy:   kJ/mol
  entropy:       J/K/mol
  heat_capacity: J/K/mol

natom:     4
num_modes: 3888
num_integrated_modes: 3872

zero_point_energy:      65.7097450
high_T_entropy:        229.8560892

thermal_properties:
- temperature:         0.0000000
  free_energy:        65.7097450
  entropy:             0.0000000
  heat_capacity:       0.0000000
  energy:             65.7097450

- temperature:        10.0000000
  free_energy:        65.7097329
  entropy:             0.0059351
  heat_capacity:       0.0192701
  energy:             65.7097923

- temperature:        20.0000000
  free_energy:        65.7095407
  entropy:             0.0357872
  heat_capacity:       0.0791643
  energy:             65.7102564

- temperature:        30.0000000
  free_energy:        65.7089428
  entropy:             0.0888526
  heat_capacity:       0.2101013
  energy:             65.7116084

- temperature:        40.0000000
  free_energy:        65.7076286
  entropy:             0.1821373
  heat_capacity:       0.4749350
  energy:             65.7149141

- temperature:        50.0000000
  free_energy:        65.7051208
  entropy:             0.3288933
  heat_capacity:       0.8771193
  energy:             65.7215654

- temperature:        60.0000000
  free_energy:        65.7008569
  entropy:             0.5337177
  heat_capacity:       1.4067863
  energy:             65.7328800

- temperature:        70.0000000
  free_energy:        65.6942473
  entropy:             0.7982617
  heat_capacity:       2.0638852
  energy:             65.7501257

- temperature:        80.0000000
  free_energy:        65.6846883
  entropy:             1.1238062
  heat_capacity:       2.8513742
  energy:             65.7745928

- temperature:        90.0000000
  free_energy:        65.6715645
  entropy:             1.5113463
  heat_capacity:       3.7684277
  energy:             65.8075856

- temperature:       100.0000000
  free_energy:        65.6542536
  entropy:             1.9611961
  heat_capacity:       4.8088832
  energy:             65.8503732

- temperature:       110.0000000
  free_energy:        65.6321347
  entropy:             2.4727735
  heat_capacity:       5.9621856
  energy:             65.9041398

- temperature:       120.0000000
  free_energy:        65.6045972
  entropy:             3.0445925
  heat_capacity:       7.2148613
  energy:             65.9699483

- temperature:       130.0000000
  free_energy:        65.5710496
  entropy:             3.6743743
  heat_capacity:       8.5518910
  energy:             66.0487182

- temperature:       140.0000000
  free_energy:        65.5309262
  entropy:             4.3592125
  heat_capacity:       9.9578707
  energy:             66.1412159

- temperature:       150.0000000
  free_energy:        65.4836930
  entropy:             5.0957524
  heat_capacity:      11.4179392
  energy:             66.2480558

- temperature:       160.0000000
  free_energy:        65.4288509
  entropy:             5.8803654
  heat_capacity:      12.9184517
  energy:             66.3697093

- temperature:       170.0000000
  free_energy:        65.3659379
  entropy:             6.7093030
  heat_capacity:      14.4473976
  energy:             66.5065194

- temperature:       180.0000000
  free_energy:        65.2945295
  entropy:             7.5788241
  heat_capacity:      15.9945834
  energy:             66.6587179

- temperature:       190.0000000
  free_energy:        65.2142383
  entropy:             8.4852920
  heat_capacity:      17.5516282
  energy:             66.8264438

- temperature:       200.0000000
  free_energy:        65.1247121
  entropy:             9.4252434
  heat_capacity:      19.1118258
  energy:             67.0097608

- temperature:       210.0000000
  free_energy:        65.0256327
  entropy:            10.3954310
  heat_capacity:      20.6699283
  energy:             67.2086732

- temperature:       220.0000000
  free_energy:        64.9167128
  entropy:            11.3928456
  heat_capacity:      22.2218977
  energy:             67.4231388

- temperature:       230.0000000
  free_energy:        64.7976942
  entropy:            12.4147222
  heat_capacity:      23.7646560
  energy:             67.6530803

- temperature:       240.0000000
  free_energy:        64.6683452
  entropy:            13.4585338
  heat_capacity:      25.2958583
  energy:             67.8983933

- temperature:       250.0000000
  free_energy:        64.5284581
  entropy:            14.5219791
  heat_capacity:      26.8136980
  energy:             68.1589529

- temperature:       260.0000000
  free_energy:        64.3778472
  entropy:            15.6029645
  heat_capacity:      28.3167498
  energy:             68.4346180

- temperature:       270.0000000
  free_energy:        64.2163467
  entropy:            16.6995851
  heat_capacity:      29.8038481
  energy:             68.7252347

- temperature:       280.0000000
  free_energy:        64.0438092
  entropy:            17.8101045
  heat_capacity:      31.2739984
  energy:             69.0306384

- temperature:       290.0000000
  free_energy:        63.8601036
  entropy:            18.9329366
  heat_capacity:      32.7263162
  energy:             69.3506552

- temperature:       300.0000000
  free_energy:        63.6651143
  entropy:            20.0666278
  heat_capacity:      34.1599870
  energy:             69.6851026

- temperature:       310.0000000
  free_energy:        63.4587393
  entropy:            21.2098416
  heat_capacity:      35.5742431
  energy:             70.0337902

- temperature:       320.0000000
  free_energy:        63.2408898
  entropy:            22.3613453
  heat_capacity:      36.9683530
  energy:             70.3965203

- temperature:       330.0000000
  free_energy:        63.0114886
  entropy:            23.5199976
  heat_capacity:      38.3416176
  energy:             70.7730878

- temperature:       340.0000000
  free_energy:        62.7704696
  entropy:            24.6847394
  heat_capacity:      39.6933731
  energy:             71.1632810

- temperature:       350.0000000
  free_energy:        62.5177768
  entropy:            25.8545848
  heat_capacity:      41.0229958
  energy:             71.5668815

- temperature:       360.0000000
  free_energy:        62.2533639
  entropy:            27.0286145
  heat_capacity:      42.3299080
  energy:             71.9836652

- temperature:       370.0000000
  free_energy:        61.9771934
  entropy:            28.2059696
  heat_capacity:      43.6135849
  energy:             72.4134022

- temperature:       380.0000000
  free_energy:        61.6892361
  entropy:            29.3858466
  heat_capacity:      44.8735596
  energy:             72.8558579

- temperature:       390.0000000
  free_energy:        61.3894706
  entropy:            30.5674934
  heat_capacity:      46.1094282
  energy:             73.3107930

- temperature:       400.0000000
  free_energy:        61.0778827
  entropy:            31.7502055
  heat_capacity:      47.3208524
  energy:             73.7779649

- temperature:       410.0000000
  free_energy:        60.7544652
  entropy:            32.9333232
  heat_capacity:      48.5075617
  energy:             74.2571277

- temperature:       420.0000000
  free_energy:        60.4192170
  entropy:            34.1162288
  heat_capacity:      49.6693536
  energy:             74.7480331

- temperature:       430.0000000
  free_energy:        60.0721432
  entropy:            35.2983442
  heat_capacity:      50.8060931
  energy:             75.2504312

- temperature:       440.0000000
  free_energy:        59.7132545
  entropy:            36.4791288
  heat_capacity:      51.9177112
  energy:             75.7640712

- temperature:       450.0000000
  free_energy:        59.3425668
  entropy:            37.6580776
  heat_capacity:      53.0042019
  energy:             76.2887017

- temperature:       460.0000000
  free_energy:        58.9601007
  entropy:            38.8347195
  heat_capacity:      54.0656191
  energy:             76.8240717

- temperature:       470.0000000
  free_energy:        58.5658815
  entropy:            40.0086156
  heat_capacity:      55.1020732
  energy:             77.3699309

- temperature:       480.0000000
  free_energy:        58.1599389
  entropy:            41.1793574
  heat_capacity:      56.1137267
  energy:             77.9260305

- temperature:       490.0000000
  free_energy:        57.7423062
  entropy:            42.3465658
  heat_capacity:      57.1007901
  energy:             78.4921234

- temperature:       500.0000000
  free_energy:        57.3130205
  entropy:            43.5098892
  heat_capacity:      58.0635174
  energy:             79.0679651

- temperature:       510.0000000
  free_energy:        56.8721224
  entropy:            44.6690024
  heat_capacity:      59.0022018
  energy:             79.6533136

- temperature:       520.0000000
  free_energy:        56.4196555
  entropy:            45.8236050
  heat_capacity:      59.9171712
  energy:             80.2479301

- temperature:       530.0000000
  free_energy:        55.9556663
  entropy:            46.9734206
  heat_capacity:      60.8087843
  energy:             80.8515792

- temperature:       540.0000000
  free_energy:        55.4802039
  entropy:            48.1181950
  heat_capacity:      61.6774263
  energy:             81.4640292

- temperature:       550.0000000
  free_energy:        54.9933200
  entropy:            49.2576955
  heat_capacity:      62.5235052
  energy:             82.0850525

- temperature:       560.0000000
  free_energy:        54.4950683
  entropy:            50.3917094
  heat_capacity:      63.3474480
  energy:             82.7144255

- temperature:       570.0000000
  free_energy:        53.9855047
  entropy:            51.5200429
  heat_capacity:      64.1496979
  energy:             83.3519292

- temperature:       580.0000000
  free_energy:        53.4646869
  entropy:            52.6425203
  heat_capacity:      64.9307104
  energy:             83.9973487

- temperature:       590.0000000
  free_energy:        52.9326744
  entropy:            53.7589827
  heat_capacity:      65.6909512
  energy:             84.6504741

- temperature:       600.0000000
  free_energy:        52.3895278
  entropy:            54.8692871
  heat_capacity:      66.4308931
  energy:             85.3111001

- temperature:       610.0000000
  free_energy:        51.8353096
  entropy:            55.9733055
  heat_capacity:      67.1510139
  energy:             85.9790259

- temperature:       620.0000000
  free_energy:        51.2700830
  entropy:            57.0709239
  heat_capacity:      67.8517941
  energy:             86.6540559

- temperature:       630.0000000
  free_energy:        50.6939128
  entropy:            58.1620416
  heat_capacity:      68.5337152
  energy:             87.3359989

- temperature:       640.0000000
  free_energy:        50.1068642
  entropy:            59.2465699
  heat_capacity:      69.1972578
  energy:             88.0246689

- temperature:       650.0000000
  free_energy:        49.5090036
  entropy:            60.3244321
  heat_capacity:      69.8429001
  energy:             88.7198844

- temperature:       660.0000000
  free_energy:        48.9003980
  entropy:            61.3955619
  heat_capacity:      70.4711169
  energy:             89.4214688

- temperature:       670.0000000
  free_energy:        48.2811150
  entropy:            62.4599034
  heat_capacity:      71.0823779
  energy:             90.1292503

- temperature:       680.0000000
  free_energy:        47.6512227
  entropy:            63.5174099
  heat_capacity:      71.6771473
  energy:             90.8430614

- temperature:       690.0000000
  free_energy:        47.0107897
  entropy:            64.5680436
  heat_capacity:      72.2558824
  energy:             91.5627398

- temperature:       700.0000000
  free_energy:        46.3598848
  entropy:            65.6117747
  heat_capacity:      72.8190331
  energy:             92.2881271

- temperature:       710.0000000
  free_energy:        45.6985773
  entropy:            66.6485812
  heat_capacity:      73.3670416
  energy:             93.0190699

- temperature:       720.0000000
  free_energy:        45.0269363
  entropy:            67.6784480
  heat_capacity:      73.9003412
  energy:             93.7554189

- temperature:       730.0000000
  free_energy:        44.3450315
  entropy:            68.7013667
  heat_capacity:      74.4193565
  energy:             94.4970292

- temperature:       740.0000000
  free_energy:        43.6529322
  entropy:            69.7173347
  heat_capacity:      74.9245027
  energy:             95.2437598

- temperature:       750.0000000
  free_energy:        42.9507079
  entropy:            70.7263552
  heat_capacity:      75.4161855
  energy:             95.9954743

- temperature:       760.0000000
  free_energy:        42.2384282
  entropy:            71.7284365
  heat_capacity:      75.8948011
  energy:             96.7520400

- temperature:       770.0000000
  free_energy:        41.5161623
  entropy:            72.7235919
  heat_capacity:      76.3607355
  energy:             97.5133281

- temperature:       780.0000000
  free_energy:        40.7839794
  entropy:            73.7118388
  heat_capacity:      76.8143650
  energy:             98.2792137

- temperature:       790.0000000
  free_energy:        40.0419485
  entropy:            74.6931989
  heat_capacity:      77.2560561
  energy:             99.0495756

- temperature:       800.0000000
  free_energy:        39.2901383
  entropy:            75.6676974
  heat_capacity:      77.6861651
  energy:             99.8242962

- temperature:       810.0000000
  free_energy:        38.5286173
  entropy:            76.6353631
  heat_capacity:      78.1050386
  energy:            100.6032614

- temperature:       820.0000000
  free_energy:        37.7574537
  entropy:            77.5962280
  heat_capacity:      78.5130134
  energy:            101.3863606

- temperature:       830.0000000
  free_energy:        36.9767153
  entropy:            78.5503267
  heat_capacity:      78.9104165
  energy:            102.1734865

- temperature:       840.0000000
  free_energy:        36.1864696
  entropy:            79.4976967
  heat_capacity:      79.2975654
  energy:            102.9645348

- temperature:       850.0000000
  free_energy:        35.3867837
  entropy:            80.4383776
  heat_capacity:      79.6747683
  energy:            103.7594046

- temperature:       860.0000000
  free_energy:        34.5777242
  entropy:            81.3724114
  heat_capacity:      80.0423240
  energy:            104.5579980

- temperature:       870.0000000
  free_energy:        33.7593575
  entropy:            82.2998419
  heat_capacity:      80.4005223
  energy:            105.3602199

- temperature:       880.0000000
  free_energy:        32.9317492
  entropy:            83.2207147
  heat_capacity:      80.7496440
  energy:            106.1659782

- temperature:       890.0000000
  free_energy:        32.0949649
  entropy:            84.1350771
  heat_capacity:      81.0899615
  energy:            106.9751834

- temperature:       900.0000000
  free_energy:        31.2490692
  entropy:            85.0429775
  heat_capacity:      81.4217385
  energy:            107.7877490

- temperature:       910.0000000
  free_energy:        30.3941267
  entropy:            85.9444658
  heat_capacity:      81.7452303
  energy:            108.6035906

- temperature:       920.0000000
  free_energy:        29.5302011
  entropy:            86.8395931
  heat_capacity:      82.0606844
  energy:            109.4226268

- temperature:       930.0000000
  free_energy:        28.6573559
  entropy:            87.7284112
  heat_capacity:      82.3683404
  energy:            110.2447783

- temperature:       940.0000000
  free_energy:        27.7756537
  entropy:            88.6109730
  heat_capacity:      82.6684300
  energy:            111.0699684

- temperature:       950.0000000
  free_energy:        26.8851571
  entropy:            89.4873320
  heat_capacity:      82.9611779
  energy:            111.8981224

- temperature:       960.0000000
  free_energy:        25.9859276
  entropy:            90.3575423
  heat_capacity:      83.2468012
  energy:            112.7291682

- temperature:       970.0000000
  free_energy:        25.0780265
  entropy:            91.2216586
  heat_capacity:      83.5255102
  energy:            113.5630354

- temperature:       980.0000000
  free_energy:        24.1615146
  entropy:            92.0797362
  heat_capacity:      83.7975084
  energy:            114.3996560

- temperature:       990.0000000
  free_energy:        23.2364518
  entropy:            92.9318304
  heat_capacity:      84.0629927
  energy:            115.2389639

- temperature:      1000.0000000
  free_energy:        22.3028977
  entropy:            93.7779971
  heat_capacity:      84.3221536
  energy:            116.0808948
