# Thermal properties / unit cell (natom)

unit:
  temperature:   K
  free_energy:   kJ/mol
  entropy:       J/K/mol
  heat_capacity: J/K/mol

natom:     4
num_modes: 3888
num_integrated_modes: 3872

zero_point_energy:      65.7098612
high_T_entropy:        229.8568752

thermal_properties:
- temperature:         0.0000000
  free_energy:        65.7098612
  entropy:             0.0000000
  heat_capacity:       0.0000000
  energy:             65.7098612

- temperature:        10.0000000
  free_energy:        65.7098491
  entropy:             0.0059880
  heat_capacity:       0.0193837
  energy:             65.7099089

- temperature:        20.0000000
  free_energy:        65.7096558
  entropy:             0.0359524
  heat_capacity:       0.0793884
  energy:             65.7103748

- temperature:        30.0000000
  free_energy:        65.7090556
  entropy:             0.0891272
  heat_capacity:       0.2104183
  energy:             65.7117295

- temperature:        40.0000000
  free_energy:        65.7077382
  entropy:             0.1825122
  heat_capacity:       0.4753126
  energy:             65.7150387

- temperature:        50.0000000
  free_energy:        65.7052262
  entropy:             0.3293560
  heat_capacity:       0.8775250
  energy:             65.7216940

- temperature:        60.0000000
  free_energy:        65.7009573
  entropy:             0.5342553
  heat_capacity:       1.4071997
  energy:             65.7330126

- temperature:        70.0000000
  free_energy:        65.6943420
  entropy:             0.7988628
  heat_capacity:       2.0642940
  energy:             65.7502624

- temperature:        80.0000000
  free_energy:        65.6847767
  entropy:             1.1244611
  heat_capacity:       2.8517700
  energy:             65.7747336

- temperature:        90.0000000
  free_energy:        65.6716461
  entropy:             1.5120468
  heat_capacity:       3.7688050
  energy:             65.8077303

- temperature:       100.0000000
  free_energy:        65.6543280
  entropy:             1.9619352
  heat_capacity:       4.8092383
  energy:             65.8505215

- temperature:       110.0000000
  free_energy:        65.6322016
  entropy:             2.4735454
  heat_capacity:       5.9625168
  energy:             65.9042915

- temperature:       120.0000000
  free_energy:        65.6046562
  entropy:             3.0453921
  heat_capacity:       7.2151679
  energy:             65.9701033

- temperature:       130.0000000
  free_energy:        65.5711004
  entropy:             3.6751975
  heat_capacity:       8.5521731
  energy:             66.0488761

- temperature:       140.0000000
  free_energy:        65.5309687
  entropy:             4.3600557
  heat_capacity:       9.9581292
  energy:             66.1413765

- temperature:       150.0000000
  free_energy:        65.4837270
  entropy:             5.0966127
  heat_capacity:      11.4181752
  energy:             66.2482189

- temperature:       160.0000000
  free_energy:        65.4288762
  entropy:             5.8812402
  heat_capacity:      12.9186664
  energy:             66.3698746

- temperature:       170.0000000
  free_energy:        65.3659544
  entropy:             6.7101903
  heat_capacity:      14.4475922
  energy:             66.5066868

- temperature:       180.0000000
  free_energy:        65.2945371
  entropy:             7.5797219
  heat_capacity:      15.9947591
  energy:             66.6588871

- temperature:       190.0000000
  free_energy:        65.2142369
  entropy:             8.4861988
  heat_capacity:      17.5517861
  energy:             66.8266146

- temperature:       200.0000000
  free_energy:        65.1247016
  entropy:             9.4261579
  heat_capacity:      19.1119668
  energy:             67.0099332

- temperature:       210.0000000
  free_energy:        65.0256129
  entropy:            10.3963520
  heat_capacity:      20.6700534
  energy:             67.2088469

- temperature:       220.0000000
  free_energy:        64.9166838
  entropy:            11.3937721
  heat_capacity:      22.2220076
  energy:             67.4233137

- temperature:       230.0000000
  free_energy:        64.7976560
  entropy:            12.4156532
  heat_capacity:      23.7647514
  energy:             67.6532562

- temperature:       240.0000000
  free_energy:        64.6682977
  entropy:            13.4594686
  heat_capacity:      25.2959398
  energy:             67.8985701

- temperature:       250.0000000
  free_energy:        64.5284012
  entropy:            14.5229170
  heat_capacity:      26.8137663
  energy:             68.1591304

- temperature:       260.0000000
  free_energy:        64.3777809
  entropy:            15.6039048
  heat_capacity:      28.3168053
  energy:             68.4347961

- temperature:       270.0000000
  free_energy:        64.2162710
  entropy:            16.7005272
  heat_capacity:      29.8038913
  energy:             68.7254134

- temperature:       280.0000000
  free_energy:        64.0437240
  entropy:            17.8110480
  heat_capacity:      31.2740298
  energy:             69.0308175

- temperature:       290.0000000
  free_energy:        63.8600090
  entropy:            18.9338810
  heat_capacity:      32.7263364
  energy:             69.3508345

- temperature:       300.0000000
  free_energy:        63.6650102
  entropy:            20.0675727
  heat_capacity:      34.1599963
  energy:             69.6852820

- temperature:       310.0000000
  free_energy:        63.4586258
  entropy:            21.2107867
  heat_capacity:      35.5742422
  energy:             70.0339697

- temperature:       320.0000000
  free_energy:        63.2407669
  entropy:            22.3622901
  heat_capacity:      36.9683422
  energy:             70.3966997

- temperature:       330.0000000
  free_energy:        63.0113562
  entropy:            23.5209420
  heat_capacity:      38.3415975
  energy:             70.7732671

- temperature:       340.0000000
  free_energy:        62.7703277
  entropy:            24.6856830
  heat_capacity:      39.6933442
  energy:             71.1634600

- temperature:       350.0000000
  free_energy:        62.5176255
  entropy:            25.8555275
  heat_capacity:      41.0229585
  energy:             71.5670602

- temperature:       360.0000000
  free_energy:        62.2532032
  entropy:            27.0295561
  heat_capacity:      42.3298629
  energy:             71.9838434

- temperature:       370.0000000
  free_energy:        61.9770233
  entropy:            28.2069098
  heat_capacity:      43.6135324
  energy:             72.4135800

- temperature:       380.0000000
  free_energy:        61.6890567
  entropy:            29.3867853
  heat_capacity:      44.8735002
  energy:             72.8560351

- temperature:       390.0000000
  free_energy:        61.3892817
  entropy:            30.5684304
  heat_capacity:      46.1093624
  energy:             73.3109696

- temperature:       400.0000000
  free_energy:        61.0776845
  entropy:            31.7511408
  heat_capacity:      47.3207806
  energy:             73.7781408

- temperature:       410.0000000
  free_energy:        60.7542576
  entropy:            32.9342567
  heat_capacity:      48.5074843
  energy:             74.2573028

- temperature:       420.0000000
  free_energy:        60.4190001
  entropy:            34.1171604
  heat_capacity:      49.6692711
  energy:             74.7482074

- temperature:       430.0000000
  free_energy:        60.0719170
  entropy:            35.2992738
  heat_capacity:      50.8060060
  energy:             75.2506047

- temperature:       440.0000000
  free_energy:        59.7130190
  entropy:            36.4800563
  heat_capacity:      51.9176198
  energy:             75.7642438

- temperature:       450.0000000
  free_energy:        59.3423220
  entropy:            37.6590030
  heat_capacity:      53.0041065
  energy:             76.2888734

- temperature:       460.0000000
  free_energy:        58.9598467
  entropy:            38.8356428
  heat_capacity:      54.0655202
  energy:             76.8242424

- temperature:       470.0000000
  free_energy:        58.5656183
  entropy:            40.0095367
  heat_capacity:      55.1019711
  energy:             77.3701006

- temperature:       480.0000000
  free_energy:        58.1596665
  entropy:            41.1802764
  heat_capacity:      56.1136217
  energy:             77.9261991

- temperature:       490.0000000
  free_energy:        57.7420246
  entropy:            42.3474826
  heat_capacity:      57.1006825
  energy:             78.4922910

- temperature:       500.0000000
  free_energy:        57.3127298
  entropy:            43.5108038
  heat_capacity:      58.0634076
  energy:             79.0681316

- temperature:       510.0000000
  free_energy:        56.8718225
  entropy:            44.6699147
  heat_capacity:      59.0020899
  energy:             79.6534790

- temperature:       520.0000000
  free_energy:        56.4193465
  entropy:            45.8245152
  heat_capacity:      59.9170576
  energy:             80.2480944

- temperature:       530.0000000
  free_energy:        55.9553482
  entropy:            46.9743286
  heat_capacity:      60.8086692
  energy:             80.8517423

- temperature:       540.0000000
  free_energy:        55.4798767
  entropy:            48.1191009
  heat_capacity:      61.6773099
  energy:             81.4641912

- temperature:       550.0000000
  free_energy:        54.9929837
  entropy:            49.2585992
  heat_capacity:      62.5233877
  energy:             82.0852133

- temperature:       560.0000000
  free_energy:        54.4947230
  entropy:            50.3926109
  heat_capacity:      63.3473297
  energy:             82.7145852

- temperature:       570.0000000
  free_energy:        53.9851505
  entropy:            51.5209423
  heat_capacity:      64.1495789
  energy:             83.3520876

- temperature:       580.0000000
  free_energy:        53.4643237
  entropy:            52.6434177
  heat_capacity:      64.9305909
  energy:             83.9975060

- temperature:       590.0000000
  free_energy:        52.9323022
  entropy:            53.7598780
  heat_capacity:      65.6908314
  energy:             84.6506302

- temperature:       600.0000000
  free_energy:        52.3891467
  entropy:            54.8701804
  heat_capacity:      66.4307731
  energy:             85.3112549

- temperature:       610.0000000
  free_energy:        51.8349195
  entropy:            55.9741968
  heat_capacity:      67.1508938
  energy:             85.9791796

- temperature:       620.0000000
  free_energy:        51.2696841
  entropy:            57.0718133
  heat_capacity:      67.8516741
  energy:             86.6542083

- temperature:       630.0000000
  free_energy:        50.6935049
  entropy:            58.1629290
  heat_capacity:      68.5335953
  energy:             87.3361502

- temperature:       640.0000000
  free_energy:        50.1064475
  entropy:            59.2474555
  heat_capacity:      69.1971381
  energy:             88.0248190

- temperature:       650.0000000
  free_energy:        49.5085780
  entropy:            60.3253158
  heat_capacity:      69.8427808
  energy:             88.7200333

- temperature:       660.0000000
  free_energy:        48.8999636
  entropy:            61.3964438
  heat_capacity:      70.4709980
  energy:             89.4216165

- temperature:       670.0000000
  free_energy:        48.2806718
  entropy:            62.4607835
  heat_capacity:      71.0822596
  energy:             90.1293967

- temperature:       680.0000000
  free_energy:        47.6507707
  entropy:            63.5182883
  heat_capacity:      71.6770296
  energy:             90.8432067

- temperature:       690.0000000
  free_energy:        47.0103289
  entropy:            64.5689202
  heat_capacity:      72.2557653
  energy:             91.5628839

- temperature:       700.0000000
  free_energy:        46.3594153
  entropy:            65.6126497
  heat_capacity:      72.8189168
  energy:             92.2882701

- temperature:       710.0000000
  free_energy:        45.6980990
  entropy:            66.6494545
  heat_capacity:      73.3669260
  energy:             93.0192117

- temperature:       720.0000000
  free_energy:        45.0264494
  entropy:            67.6793197
  heat_capacity:      73.9002265
  energy:             93.7555596

- temperature:       730.0000000
  free_energy:        44.3445358
  entropy:            68.7022368
  heat_capacity:      74.4192426
  energy:             94.4971687

- temperature:       740.0000000
  free_energy:        43.6524278
  entropy:            69.7182033
  heat_capacity:      74.9243897
  energy:             95.2438982

- temperature:       750.0000000
  free_energy:        42.9501949
  entropy:            70.7272223
  heat_capacity:      75.4160735
  energy:             95.9956116

- temperature:       760.0000000
  free_energy:        42.2379065
  entropy:            71.7293022
  heat_capacity:      75.8946900
  energy:             96.7521761

- temperature:       770.0000000
  free_energy:        41.5156319
  entropy:            72.7244561
  heat_capacity:      76.3606254
  energy:             97.5134631

- temperature:       780.0000000
  free_energy:        40.7834404
  entropy:            73.7127016
  heat_capacity:      76.8142560
  energy:             98.2793476

- temperature:       790.0000000
  free_energy:        40.0414008
  entropy:            74.6940602
  heat_capacity:      77.2559481
  energy:             99.0497084

- temperature:       800.0000000
  free_energy:        39.2895821
  entropy:            75.6685574
  heat_capacity:      77.6860581
  energy:             99.8244280

- temperature:       810.0000000
  free_energy:        38.5280525
  entropy:            76.6362218
  heat_capacity:      78.1049327
  energy:            100.6033921

- temperature:       820.0000000
  free_energy:        37.7568803
  entropy:            77.5970854
  heat_capacity:      78.5129085
  energy:            101.3864903

- temperature:       830.0000000
  free_energy:        36.9761333
  entropy:            78.5511828
  heat_capacity:      78.9103127
  energy:            102.1736151

- temperature:       840.0000000
  free_energy:        36.1858791
  entropy:            79.4985516
  heat_capacity:      79.2974627
  energy:            102.9646624

- temperature:       850.0000000
  free_energy:        35.3861846
  entropy:            80.4392313
  heat_capacity:      79.6746667
  energy:            103.7595312

- temperature:       860.0000000
  free_energy:        34.5771166
  entropy:            81.3732639
  heat_capacity:      80.0422235
  energy:            104.5581235

- temperature:       870.0000000
  free_energy:        33.7587413
  entropy:            82.3006933
  heat_capacity:      80.4004229
  energy:            105.3603445

- temperature:       880.0000000
  free_energy:        32.9311246
  entropy:            83.2215650
  heat_capacity:      80.7495458
  energy:            106.1661017

- temperature:       890.0000000
  free_energy:        32.0943317
  entropy:            84.1359262
  heat_capacity:      81.0898644
  energy:            106.9753060

- temperature:       900.0000000
  free_energy:        31.2484276
  entropy:            85.0438255
  heat_capacity:      81.4216425
  energy:            107.7878706

- temperature:       910.0000000
  free_energy:        30.3934766
  entropy:            85.9453128
  heat_capacity:      81.7451354
  energy:            108.6037113

- temperature:       920.0000000
  free_energy:        29.5295425
  entropy:            86.8404391
  heat_capacity:      82.0605906
  energy:            109.4227465

- temperature:       930.0000000
  free_energy:        28.6566888
  entropy:            87.7292562
  heat_capacity:      82.3682477
  energy:            110.2448971

- temperature:       940.0000000
  free_energy:        27.7749783
  entropy:            88.6118170
  heat_capacity:      82.6683384
  energy:            111.0700862

- temperature:       950.0000000
  free_energy:        26.8844732
  entropy:            89.4881749
  heat_capacity:      82.9610873
  energy:            111.8982394

- temperature:       960.0000000
  free_energy:        25.9852353
  entropy:            90.3583843
  heat_capacity:      83.2467117
  energy:            112.7292842

- temperature:       970.0000000
  free_energy:        25.0773258
  entropy:            91.2224998
  heat_capacity:      83.5254218
  energy:            113.5631506

- temperature:       980.0000000
  free_energy:        24.1608054
  entropy:            92.0805764
  heat_capacity:      83.7974211
  energy:            114.3997703

- temperature:       990.0000000
  free_energy:        23.2357342
  entropy:            92.9326697
  heat_capacity:      84.0629064
  energy:            115.2390773

- temperature:      1000.0000000
  free_energy:        22.3021718
  entropy:            93.7788356
  heat_capacity:      84.3220683
  energy:            116.0810073
