# Thermal properties / unit cell (natom)

unit:
  temperature:   K
  free_energy:   kJ/mol
  entropy:       J/K/mol
  heat_capacity: J/K/mol

natom:     4
num_modes: 3888
num_integrated_modes: 3872

zero_point_energy:      65.3652245
high_T_entropy:        230.7045765

thermal_properties:
- temperature:         0.0000000
  free_energy:        65.3652245
  entropy:             0.0000000
  heat_capacity:       0.0000000
  energy:             65.3652245

- temperature:        10.0000000
  free_energy:        65.3652125
  entropy:             0.0059354
  heat_capacity:       0.0192758
  energy:             65.3652718

- temperature:        20.0000000
  free_energy:        65.3650190
  entropy:             0.0363286
  heat_capacity:       0.0828023
  energy:             65.3657456

- temperature:        30.0000000
  free_energy:        65.3643998
  entropy:             0.0931888
  heat_capacity:       0.2262299
  energy:             65.3671955

- temperature:        40.0000000
  free_energy:        65.3630140
  entropy:             0.1920865
  heat_capacity:       0.4957645
  energy:             65.3706975

- temperature:        50.0000000
  free_energy:        65.3603849
  entropy:             0.3426658
  heat_capacity:       0.8875052
  energy:             65.3775182

- temperature:        60.0000000
  free_energy:        65.3559804
  entropy:             0.5472799
  heat_capacity:       1.3907126
  energy:             65.3888172

- temperature:        70.0000000
  free_energy:        65.3492574
  entropy:             0.8065233
  heat_capacity:       2.0086923
  energy:             65.4057140

- temperature:        80.0000000
  free_energy:        65.3396630
  entropy:             1.1219016
  heat_capacity:       2.7538245
  energy:             65.4294151

- temperature:        90.0000000
  free_energy:        65.3266240
  entropy:             1.4958769
  heat_capacity:       3.6374234
  energy:             65.4612530

- temperature:       100.0000000
  free_energy:        65.3095416
  entropy:             1.9309735
  heat_capacity:       4.6633211
  energy:             65.5026390

- temperature:       110.0000000
  free_energy:        65.2877949
  entropy:             2.4289262
  heat_capacity:       5.8261739
  energy:             65.5549768

- temperature:       120.0000000
  free_energy:        65.2607519
  entropy:             2.9901994
  heat_capacity:       7.1128628
  energy:             65.6195758

- temperature:       130.0000000
  free_energy:        65.2277828
  entropy:             3.6138743
  heat_capacity:       8.5051951
  energy:             65.6975864

- temperature:       140.0000000
  free_energy:        65.1882735
  entropy:             4.2977864
  heat_capacity:       9.9826938
  energy:             65.7899636

- temperature:       150.0000000
  free_energy:        65.1416366
  entropy:             5.0387937
  heat_capacity:      11.5248679
  energy:             65.8974557

- temperature:       160.0000000
  free_energy:        65.0873200
  entropy:             5.8330821
  heat_capacity:      13.1127710
  energy:             66.0206131

- temperature:       170.0000000
  free_energy:        65.0248114
  entropy:             6.6764518
  heat_capacity:      14.7298877
  energy:             66.1598082

- temperature:       180.0000000
  free_energy:        64.9536418
  entropy:             7.5645574
  heat_capacity:      16.3624880
  energy:             66.3152621

- temperature:       190.0000000
  free_energy:        64.8733855
  entropy:             8.4930908
  heat_capacity:      17.9996093
  energy:             66.4870727

- temperature:       200.0000000
  free_energy:        64.7836591
  entropy:             9.4579098
  heat_capacity:      19.6328097
  energy:             66.6752410

- temperature:       210.0000000
  free_energy:        64.6841194
  entropy:            10.4551208
  heat_capacity:      21.2558057
  energy:             66.8796947

- temperature:       220.0000000
  free_energy:        64.5744607
  entropy:            11.4811235
  heat_capacity:      22.8640733
  energy:             67.1003079

- temperature:       230.0000000
  free_energy:        64.4544119
  entropy:            12.5326285
  heat_capacity:      24.4544619
  energy:             67.3369165

- temperature:       240.0000000
  free_energy:        64.3237331
  entropy:            13.6066553
  heat_capacity:      26.0248518
  energy:             67.5893304

- temperature:       250.0000000
  free_energy:        64.1822127
  entropy:            14.7005179
  heat_capacity:      27.5738660
  energy:             67.8573422

- temperature:       260.0000000
  free_energy:        64.0296647
  entropy:            15.8118032
  heat_capacity:      29.1006394
  energy:             68.1407335

- temperature:       270.0000000
  free_energy:        63.8659258
  entropy:            16.9383453
  heat_capacity:      30.6046420
  energy:             68.4392791

- temperature:       280.0000000
  free_energy:        63.6908534
  entropy:            18.0781998
  heat_capacity:      32.0855491
  energy:             68.7527494

- temperature:       290.0000000
  free_energy:        63.5043233
  entropy:            19.2296174
  heat_capacity:      33.5431496
  energy:             69.0809124

- temperature:       300.0000000
  free_energy:        63.3062278
  entropy:            20.3910211
  heat_capacity:      34.9772856
  energy:             69.4235341

- temperature:       310.0000000
  free_energy:        63.0964744
  entropy:            21.5609839
  heat_capacity:      36.3878151
  energy:             69.7803794

- temperature:       320.0000000
  free_energy:        62.8749839
  entropy:            22.7382104
  heat_capacity:      37.7745920
  energy:             70.1512113

- temperature:       330.0000000
  free_energy:        62.6416899
  entropy:            23.9215201
  heat_capacity:      39.1374580
  energy:             70.5357915

- temperature:       340.0000000
  free_energy:        62.3965369
  entropy:            25.1098332
  heat_capacity:      40.4762425
  energy:             70.9338802

- temperature:       350.0000000
  free_energy:        62.1394799
  entropy:            26.3021590
  heat_capacity:      41.7907671
  energy:             71.3452355

- temperature:       360.0000000
  free_energy:        61.8704834
  entropy:            27.4975852
  heat_capacity:      43.0808532
  energy:             71.7696140

- temperature:       370.0000000
  free_energy:        61.5895206
  entropy:            28.6952700
  heat_capacity:      44.3463302
  energy:             72.2067705

- temperature:       380.0000000
  free_energy:        61.2965730
  entropy:            29.8944344
  heat_capacity:      45.5870442
  energy:             72.6564581

- temperature:       390.0000000
  free_energy:        60.9916294
  entropy:            31.0943564
  heat_capacity:      46.8028646
  energy:             73.1184284

- temperature:       400.0000000
  free_energy:        60.6746856
  entropy:            32.2943661
  heat_capacity:      47.9936916
  energy:             73.5924321

- temperature:       410.0000000
  free_energy:        60.3457439
  entropy:            33.4938411
  heat_capacity:      49.1594603
  energy:             74.0782187

- temperature:       420.0000000
  free_energy:        60.0048125
  entropy:            34.6922027
  heat_capacity:      50.3001447
  energy:             74.5755377

- temperature:       430.0000000
  free_energy:        59.6519053
  entropy:            35.8889133
  heat_capacity:      51.4157602
  energy:             75.0841381

- temperature:       440.0000000
  free_energy:        59.2870414
  entropy:            37.0834729
  heat_capacity:      52.5063645
  energy:             75.6037695

- temperature:       450.0000000
  free_energy:        58.9102446
  entropy:            38.2754171
  heat_capacity:      53.5720576
  energy:             76.1341823

- temperature:       460.0000000
  free_energy:        58.5215432
  entropy:            39.4643149
  heat_capacity:      54.6129816
  energy:             76.6751281

- temperature:       470.0000000
  free_energy:        58.1209698
  entropy:            40.6497663
  heat_capacity:      55.6293186
  energy:             77.2263600

- temperature:       480.0000000
  free_energy:        57.7085606
  entropy:            41.8314012
  heat_capacity:      56.6212890
  energy:             77.7876332

- temperature:       490.0000000
  free_energy:        57.2843556
  entropy:            43.0088770
  heat_capacity:      57.5891489
  energy:             78.3587054

- temperature:       500.0000000
  free_energy:        56.8483980
  entropy:            44.1818776
  heat_capacity:      58.5331875
  energy:             78.9393368

- temperature:       510.0000000
  free_energy:        56.4007340
  entropy:            45.3501114
  heat_capacity:      59.4537240
  energy:             79.5292908

- temperature:       520.0000000
  free_energy:        55.9414126
  entropy:            46.5133106
  heat_capacity:      60.3511049
  energy:             80.1283341

- temperature:       530.0000000
  free_energy:        55.4704854
  entropy:            47.6712294
  heat_capacity:      61.2257004
  energy:             80.7362369

- temperature:       540.0000000
  free_energy:        54.9880063
  entropy:            48.8236428
  heat_capacity:      62.0779020
  energy:             81.3527734

- temperature:       550.0000000
  free_energy:        54.4940316
  entropy:            49.9703457
  heat_capacity:      62.9081189
  energy:             81.9777217

- temperature:       560.0000000
  free_energy:        53.9886191
  entropy:            51.1111516
  heat_capacity:      63.7167758
  energy:             82.6108640

- temperature:       570.0000000
  free_energy:        53.4718287
  entropy:            52.2458913
  heat_capacity:      64.5043101
  energy:             83.2519868

- temperature:       580.0000000
  free_energy:        52.9437220
  entropy:            53.3744125
  heat_capacity:      65.2711688
  energy:             83.9008812

- temperature:       590.0000000
  free_energy:        52.4043617
  entropy:            54.4965781
  heat_capacity:      66.0178070
  energy:             84.5573428

- temperature:       600.0000000
  free_energy:        51.8538120
  entropy:            55.6122658
  heat_capacity:      66.7446852
  energy:             85.2211715

- temperature:       610.0000000
  free_energy:        51.2921383
  entropy:            56.7213669
  heat_capacity:      67.4522674
  energy:             85.8921722

- temperature:       620.0000000
  free_energy:        50.7194070
  entropy:            57.8237857
  heat_capacity:      68.1410197
  energy:             86.5701541

- temperature:       630.0000000
  free_energy:        50.1356852
  entropy:            58.9194384
  heat_capacity:      68.8114078
  energy:             87.2549313

- temperature:       640.0000000
  free_energy:        49.5410410
  entropy:            60.0082525
  heat_capacity:      69.4638965
  energy:             87.9463226

- temperature:       650.0000000
  free_energy:        48.9355431
  entropy:            61.0901662
  heat_capacity:      70.0989478
  energy:             88.6441511

- temperature:       660.0000000
  free_energy:        48.3192608
  entropy:            62.1651274
  heat_capacity:      70.7170198
  energy:             89.3482449

- temperature:       670.0000000
  free_energy:        47.6922639
  entropy:            63.2330934
  heat_capacity:      71.3185660
  energy:             90.0584365

- temperature:       680.0000000
  free_energy:        47.0546224
  entropy:            64.2940298
  heat_capacity:      71.9040340
  energy:             90.7745627

- temperature:       690.0000000
  free_energy:        46.4064068
  entropy:            65.3479104
  heat_capacity:      72.4738650
  energy:             91.4964650

- temperature:       700.0000000
  free_energy:        45.7476878
  entropy:            66.3947164
  heat_capacity:      73.0284931
  energy:             92.2239893

- temperature:       710.0000000
  free_energy:        45.0785361
  entropy:            67.4344359
  heat_capacity:      73.5683446
  energy:             92.9569856

- temperature:       720.0000000
  free_energy:        44.3990227
  entropy:            68.4670634
  heat_capacity:      74.0938379
  energy:             93.6953083

- temperature:       730.0000000
  free_energy:        43.7092185
  entropy:            69.4925992
  heat_capacity:      74.6053826
  energy:             94.4388159

- temperature:       740.0000000
  free_energy:        43.0091943
  entropy:            70.5110493
  heat_capacity:      75.1033797
  energy:             95.1873708

- temperature:       750.0000000
  free_energy:        42.2990211
  entropy:            71.5224247
  heat_capacity:      75.5882208
  energy:             95.9408396

- temperature:       760.0000000
  free_energy:        41.5787694
  entropy:            72.5267412
  heat_capacity:      76.0602888
  energy:             96.6990927

- temperature:       770.0000000
  free_energy:        40.8485097
  entropy:            73.5240186
  heat_capacity:      76.5199567
  energy:             97.4620041

- temperature:       780.0000000
  free_energy:        40.1083124
  entropy:            74.5142811
  heat_capacity:      76.9675884
  energy:             98.2294517

- temperature:       790.0000000
  free_energy:        39.3582474
  entropy:            75.4975563
  heat_capacity:      77.4035382
  energy:             99.0013169

- temperature:       800.0000000
  free_energy:        38.5983844
  entropy:            76.4738753
  heat_capacity:      77.8281511
  energy:             99.7774846

- temperature:       810.0000000
  free_energy:        37.8287930
  entropy:            77.4432720
  heat_capacity:      78.2417626
  energy:            100.5578432

- temperature:       820.0000000
  free_energy:        37.0495420
  entropy:            78.4057834
  heat_capacity:      78.6446989
  energy:            101.3422843

- temperature:       830.0000000
  free_energy:        36.2607001
  entropy:            79.3614489
  heat_capacity:      79.0372769
  energy:            102.1307027

- temperature:       840.0000000
  free_energy:        35.4623357
  entropy:            80.3103104
  heat_capacity:      79.4198044
  energy:            102.9229964

- temperature:       850.0000000
  free_energy:        34.6545164
  entropy:            81.2524116
  heat_capacity:      79.7925803
  energy:            103.7190663

- temperature:       860.0000000
  free_energy:        33.8373098
  entropy:            82.1877984
  heat_capacity:      80.1558947
  energy:            104.5188164

- temperature:       870.0000000
  free_energy:        33.0107827
  entropy:            83.1165183
  heat_capacity:      80.5100287
  energy:            105.3221536

- temperature:       880.0000000
  free_energy:        32.1750015
  entropy:            84.0386202
  heat_capacity:      80.8552553
  energy:            106.1289873

- temperature:       890.0000000
  free_energy:        31.3300322
  entropy:            84.9541547
  heat_capacity:      81.1918391
  energy:            106.9392299

- temperature:       900.0000000
  free_energy:        30.4759401
  entropy:            85.8631733
  heat_capacity:      81.5200363
  energy:            107.7527961

- temperature:       910.0000000
  free_energy:        29.6127903
  entropy:            86.7657288
  heat_capacity:      81.8400954
  energy:            108.5696035

- temperature:       920.0000000
  free_energy:        28.7406469
  entropy:            87.6618748
  heat_capacity:      82.1522572
  energy:            109.3895717

- temperature:       930.0000000
  free_energy:        27.8595739
  entropy:            88.5516657
  heat_capacity:      82.4567549
  energy:            110.2126231

- temperature:       940.0000000
  free_energy:        26.9696346
  entropy:            89.4351568
  heat_capacity:      82.7538143
  energy:            111.0386820

- temperature:       950.0000000
  free_energy:        26.0708916
  entropy:            90.3124039
  heat_capacity:      83.0436540
  energy:            111.8676753

- temperature:       960.0000000
  free_energy:        25.1634072
  entropy:            91.1834631
  heat_capacity:      83.3264859
  energy:            112.6995317

- temperature:       970.0000000
  free_energy:        24.2472428
  entropy:            92.0483913
  heat_capacity:      83.6025150
  energy:            113.5341823

- temperature:       980.0000000
  free_energy:        23.3224596
  entropy:            92.9072454
  heat_capacity:      83.8719398
  energy:            114.3715600

- temperature:       990.0000000
  free_energy:        22.3891179
  entropy:            93.7600826
  heat_capacity:      84.1349524
  energy:            115.2115998

- temperature:      1000.0000000
  free_energy:        21.4472778
  entropy:            94.6069605
  heat_capacity:      84.3917388
  energy:            116.0542383
