    4    4  200    1
  0.3545204E+01  0.2467155E-09  0.2467155E-09  0.2690297E-09  0.5000000E-15
  1.000000000000000E-004
  CAR 
 graphite                                
     16    455     12
 
  0.0000000E+00  0.0000000E+00  0.0000000E+00  0.3858025E-03
    1      -11.138911
    2        1.317634
    3        8.770604
    4        8.921071
    5        8.926285
    6       13.628128
    7       13.628478
    8       20.862518
    9       20.873610
   10       25.144525
   11       25.145780
   12       26.638887
 
  0.5555556E-01  0.1040834E-16  0.0000000E+00  0.1543210E-02
    1      -11.060936
    2        1.394674
    3        8.367369
    4        8.600834
    5        8.816545
    6       13.758100
    7       13.973001
    8       20.675733
    9       21.099088
   10       24.557693
   11       24.994639
   12       26.432203
 
  0.1111111E+00  0.2081668E-16  0.0000000E+00  0.1543210E-02
    1      -10.827312
    2        1.624051
    3        7.020608
    4        7.862799
    5        8.951477
    6       13.919031
    7       14.739827
    8       20.110999
    9       21.543000
   10       23.781109
   11       24.788818
   12       25.836715
 
  0.1666667E+00  0.5551115E-16  0.0000000E+00  0.1543210E-02
    1      -10.438856
    2        1.998041
    3        5.323063
    4        7.013626
    5        9.172795
    6       13.913796
    7       15.518312
    8       19.244526
    9       21.193291
   10       24.103491
   11       24.904078
   12       24.962715
 
  0.2222222E+00  0.1387779E-16  0.0000000E+00  0.1543210E-02
    1       -9.897100
    2        2.502255
    3        3.509538
    4        6.204217
    5        9.473526
    6       13.768883
    7       16.052140
    8       18.149483
    9       20.157730
   10       23.997168
   11       25.376358
   12       25.568880
 
  0.2777778E+00  0.5551115E-16  0.0000000E+00  0.1543210E-02
    1       -9.204741
    2        1.696508
    3        3.114247
    4        5.500245
    5        9.841212
    6       13.560040
    7       16.283270
    8       16.912214
    9       19.043183
   10       23.108958
   11       26.808404
   12       26.959586
 
  0.3333333E+00  0.1110223E-15  0.0000000E+00  0.1543210E-02
    1       -8.368215
    2       -0.052148
    3        3.789222
    4        4.933400
    5       10.252546
    6       13.343290
    7       15.648929
    8       16.303868
    9       18.016953
   10       22.392074
   11       28.473042
   12       28.680908
 
  0.3888889E+00  0.1110223E-15  0.0000000E+00  0.1543210E-02
    1       -7.400421
    2       -1.687704
    3        4.449184
    4        4.520285
    5       10.664026
    6       13.152175
    7       14.510916
    8       16.236177
    9       17.167380
   10       21.878660
   11       30.326159
   12       30.443050
 
  0.4444444E+00  0.2775558E-16  0.0000000E+00  0.1543210E-02
    1       -6.355845
    2       -3.140363
    3        4.269288
    4        4.963009
    5       10.994920
    6       13.010159
    7       13.686756
    8       16.165779
    9       16.587597
   10       21.572558
   11       32.009868
   12       32.039392
 
  0.5000000E+00  0.5551115E-16  0.0000000E+00  0.7716049E-03
    1       -5.660956
    2       -3.971751
    3        4.185764
    4        5.163676
    5       11.129057
    6       12.953968
    7       13.378696
    8       16.137847
    9       16.377989
   10       21.471073
   11       32.795490
   12       32.811439
 
  0.5555556E-01  0.5555556E-01  0.0000000E+00  0.7716049E-03
    1      -10.905147
    2        1.547819
    3        7.509763
    4        7.979823
    5        8.911617
    6       14.025459
    7       14.400043
    8       20.296657
    9       21.469605
   10       23.826552
   11       24.917570
   12       26.024667
 
  0.1111111E+00  0.5555556E-01  0.0000000E+00  0.1543210E-02
    1      -10.593970
    2        1.849718
    3        6.102559
    4        7.088017
    5        9.093895
    6       14.215006
    7       15.054316
    8       19.593613
    9       21.661280
   10       23.194494
   11       25.233253
   12       25.257419
 
  0.1666667E+00  0.5555556E-01  0.0000000E+00  0.1543210E-02
    1      -10.128931
    2        2.289173
    3        4.401445
    4        6.219700
    5        9.359867
    6       14.151496
    7       15.699208
    8       18.638017
    9       20.889441
   10       23.575328
   11       24.281098
   12       26.182051
 
  0.2222222E+00  0.5555556E-01  0.0000000E+00  0.1543210E-02
    1       -9.511870
    2        2.613007
    3        2.848741
    4        5.450538
    5        9.702382
    6       13.953806
    7       16.084102
    8       17.501584
    9       19.798945
   10       23.293681
   11       24.603138
   12       27.602148
 
  0.2777778E+00  0.5555556E-01  0.0000000E+00  0.1543210E-02
    1       -8.746650
    2        0.844145
    3        3.495720
    4        4.812322
    5       10.107009
    6       13.701108
    7       16.202670
    8       16.274593
    9       18.746616
   10       22.441804
   11       26.083866
   12       29.258298
 
  0.3333333E+00  0.5555556E-01  0.0000000E+00  0.1543210E-02
    1       -7.842602
    2       -0.843483
    3        4.170987
    4        4.322513
    5       10.546366
    6       13.435154
    7       15.084424
    8       16.170105
    9       17.839682
   10       21.792772
   11       27.877071
   12       30.964660
 
  0.3888889E+00  0.5555556E-01  0.0000000E+00  0.1543210E-02
    1       -6.824822
    2       -2.395906
    3        3.991362
    4        4.772310
    5       10.965148
    6       13.182953
    7       14.099611
    8       16.095501
    9       17.160516
   10       21.362798
   11       29.804563
   12       32.396881
 
  0.4444444E+00  0.5555556E-01  0.0000000E+00  0.1543210E-02
    1       -5.834586
    2       -3.657323
    3        3.824725
    4        5.145109
    5       11.253527
    6       13.001779
    7       13.522634
    8       16.044387
    9       16.791273
   10       21.149631
   11       31.597903
   12       32.772508
 
  0.5000000E+00  0.5555556E-01  0.0000000E+00  0.1543210E-02
    1       -5.834713
    2       -3.657182
    3        3.824654
    4        5.145098
    5       11.253504
    6       13.001897
    7       13.522599
    8       16.044461
    9       16.791220
   10       21.149647
   11       31.602909
   12       32.769398
 
 -0.4444444E+00  0.5555556E-01  0.0000000E+00  0.1543210E-02
    1       -6.824994
    2       -2.395697
    3        3.991150
    4        4.772282
    5       10.965101
    6       13.183309
    7       14.099496
    8       16.095613
    9       17.160453
   10       21.362854
   11       29.810606
   12       32.393058
 
 -0.3888889E+00  0.5555556E-01  0.0000000E+00  0.1543210E-02
    1       -7.842762
    2       -0.843275
    3        4.170947
    4        4.322173
    5       10.546320
    6       13.435772
    7       15.084208
    8       16.170157
    9       17.839687
   10       21.792890
   11       27.883038
   12       30.959587
 
 -0.3333333E+00  0.5555556E-01  0.0000000E+00  0.1543210E-02
    1       -8.746789
    2        0.844313
    3        3.495676
    4        4.811883
    5       10.106978
    6       13.702015
    7       16.202689
    8       16.274251
    9       18.746687
   10       22.442011
   11       26.089207
   12       29.253082
 
 -0.2777778E+00  0.5555556E-01  0.0000000E+00  0.1543210E-02
    1       -9.511985
    2        2.613063
    3        2.848699
    4        5.450077
    5        9.702373
    6       13.955014
    7       16.084176
    8       17.501114
    9       19.799086
   10       23.293989
   11       24.607422
   12       27.597386
 
 -0.2222222E+00  0.5555556E-01  0.0000000E+00  0.1543210E-02
    1      -10.129021
    2        2.289136
    3        4.401209
    4        6.219418
    5        9.359888
    6       14.153000
    7       15.699369
    8       18.637462
    9       20.889796
   10       23.577954
   11       24.281481
   12       26.178185
 
 -0.1666667E+00  0.5555556E-01  0.0000000E+00  0.1543210E-02
    1      -10.594035
    2        1.849690
    3        6.101492
    4        7.088520
    5        9.093958
    6       14.216751
    7       15.054377
    8       19.593069
    9       21.662476
   10       23.194304
   11       25.230903
   12       25.257808
 
 -0.1111111E+00  0.5555556E-01  0.0000000E+00  0.1543210E-02
    1      -10.905186
    2        1.547802
    3        7.506610
    4        7.982510
    5        8.911737
    6       14.026767
    7       14.400130
    8       20.296250
    9       21.470365
   10       23.824857
   11       24.917022
   12       26.024964
 
 -0.5555556E-01  0.5555556E-01  0.0000000E+00  0.7716049E-03
    1      -11.060949
    2        1.394668
    3        8.363565
    4        8.604507
    5        8.816595
    6       13.758000
    7       13.973587
    8       20.675581
    9       21.099232
   10       24.556174
   11       24.995168
   12       26.432316
 
  0.1111111E+00  0.1111111E+00  0.0000000E+00  0.7716049E-03
    1      -10.206465
    2        2.217445
    3        4.942393
    4        5.937886
    5        9.327894
    6       14.688778
    7       15.236933
    8       18.825158
    9       21.758295
   10       22.300886
   11       24.333903
   12       26.459088
 
  0.1666667E+00  0.1111111E+00  0.0000000E+00  0.1543210E-02
    1       -9.665738
    2        2.713655
    3        3.451588
    4        4.936698
    5        9.644256
    6       14.698355
    7       15.603449
    8       17.877147
    9       20.971930
   10       22.597345
   11       23.242272
   12       28.051226
 
  0.2222222E+00  0.1111111E+00  0.0000000E+00  0.1543210E-02
    1       -8.975232
    2        1.777784
    3        3.312011
    4        4.170538
    5       10.035962
    6       14.428556
    7       15.852558
    8       16.807981
    9       19.957944
   10       22.192183
   11       23.722695
   12       29.771724
 
  0.2777778E+00  0.1111111E+00  0.0000000E+00  0.1543210E-02
    1       -8.141174
    2        0.096252
    3        3.587127
    4        3.969138
    5       10.489692
    6       14.061388
    7       15.697278
    8       15.895195
    9       19.069360
   10       21.327539
   11       25.334091
   12       31.434571
 
  0.3333333E+00  0.1111111E+00  0.0000000E+00  0.1543210E-02
    1       -7.178381
    2       -1.502571
    3        3.171125
    4        4.606750
    5       10.977744
    6       13.645871
    7       14.675652
    8       15.839886
    9       18.381539
   10       20.707829
   11       27.252009
   12       32.664499
 
  0.3888889E+00  0.1111111E+00  0.0000000E+00  0.1543210E-02
    1       -6.142248
    2       -2.931058
    3        2.921189
    4        5.098497
    5       11.433359
    6       13.240495
    7       13.926190
    8       15.776317
    9       17.947172
   10       20.340988
   11       29.293434
   12       32.688583
 
  0.4444444E+00  0.1111111E+00  0.0000000E+00  0.1543210E-02
    1       -5.459608
    2       -3.746169
    3        2.837665
    4        5.289026
    5       11.658974
    6       13.033362
    7       13.644802
    8       15.750647
    9       17.798851
   10       20.220077
   11       30.932022
   12       31.651997
 
  0.5000000E+00  0.1111111E+00  0.0000000E+00  0.1543210E-02
    1       -6.142574
    2       -2.930689
    3        2.920988
    4        5.098462
    5       11.433159
    6       13.241013
    7       13.925993
    8       15.776346
    9       17.947222
   10       20.341140
   11       29.299644
   12       32.685076
 
 -0.4444444E+00  0.1111111E+00  0.0000000E+00  0.1543210E-02
    1       -7.178713
    2       -1.502176
    3        3.170746
    4        4.606688
    5       10.977532
    6       13.646783
    7       14.675226
    8       15.839903
    9       18.381651
   10       20.708162
   11       27.258210
   12       32.661341
 
 -0.3888889E+00  0.1111111E+00  0.0000000E+00  0.1543210E-02
    1       -8.141472
    2        0.096568
    3        3.586637
    4        3.969060
    5       10.489520
    6       14.062736
    7       15.696581
    8       15.895183
    9       19.069533
   10       21.328097
   11       25.339725
   12       31.430160
 
 -0.3333333E+00  0.1111111E+00  0.0000000E+00  0.1543210E-02
    1       -8.975485
    2        1.777846
    3        3.311930
    4        4.170112
    5       10.035841
    6       14.430429
    7       15.852574
    8       16.807007
    9       19.958180
   10       22.192981
   11       23.727325
   12       29.766911
 
 -0.2777778E+00  0.1111111E+00  0.0000000E+00  0.1543210E-02
    1       -9.665943
    2        2.713580
    3        3.450924
    4        4.936836
    5        9.644193
    6       14.700891
    7       15.603486
    8       17.875973
    9       20.972391
   10       22.600396
   11       23.243254
   12       28.046638
 
 -0.2222222E+00  0.1111111E+00  0.0000000E+00  0.1543210E-02
    1      -10.206620
    2        2.217383
    3        4.940101
    4        5.939572
    5        9.327891
    6       14.691677
    7       15.237068
    8       18.823948
    9       21.761329
   10       22.299778
   11       24.334936
   12       26.455160
 
 -0.1666667E+00  0.1111111E+00  0.0000000E+00  0.1543210E-02
    1      -10.594074
    2        1.849674
    3        6.099119
    4        7.090962
    5        9.093938
    6       14.216570
    7       15.055486
    8       19.592586
    9       21.663197
   10       23.192719
   11       25.230739
   12       25.258312
 
 -0.1111111E+00  0.1111111E+00  0.0000000E+00  0.7716049E-03
    1      -10.827364
    2        1.624028
    3        7.017097
    4        7.866158
    5        8.951492
    6       13.919352
    7       14.741042
    8       20.110398
    9       21.543824
   10       23.778763
   11       24.788526
   12       25.837248
 
  0.1666667E+00  0.1666667E+00  0.0000000E+00  0.7716049E-03
    1       -9.051574
    2        2.375738
    3        3.250045
    4        3.637842
    5       10.011231
    6       15.067335
    7       15.388902
    8       17.029454
    9       21.638267
   10       21.638493
   11       22.040534
   12       29.968066
 
  0.2222222E+00  0.1666667E+00  0.0000000E+00  0.1543210E-02
    1       -8.291505
    2        0.993873
    3        2.720741
    4        3.863866
    5       10.452522
    6       14.779713
    7       15.430855
    8       16.134992
    9       20.797482
   10       20.901655
   11       22.929975
   12       31.697161
 
  0.2777778E+00  0.1666667E+00  0.0000000E+00  0.1543210E-02
    1       -7.395389
    2       -0.535573
    3        2.143108
    4        4.495152
    5       10.955476
    6       14.266640
    7       15.249688
    8       15.424458
    9       19.988167
   10       20.131310
   11       24.693694
   12       32.813115
 
  0.3333333E+00  0.1666667E+00  0.0000000E+00  0.1543210E-02
    1       -6.391230
    2       -2.010581
    3        1.783841
    4        5.047211
    5       11.490772
    6       13.705401
    7       14.491471
    8       15.365712
    9       19.374486
   10       19.674114
   11       26.740426
   12       32.600122
 
  0.3888889E+00  0.1666667E+00  0.0000000E+00  0.1543210E-02
    1       -5.426994
    2       -3.220954
    3        1.608719
    4        5.382447
    5       11.956626
    6       13.221245
    7       14.037299
    8       15.321151
    9       19.071618
   10       19.442735
   11       28.870657
   12       31.122624
 
  0.4444444E+00  0.1666667E+00  0.0000000E+00  0.1543210E-02
    1       -5.427350
    2       -3.220582
    3        1.608633
    4        5.382426
    5       11.956314
    6       13.221743
    7       14.037073
    8       15.321132
    9       19.071832
   10       19.442817
   11       28.876669
   12       31.117274
 
  0.5000000E+00  0.1666667E+00  0.0000000E+00  0.1543210E-02
    1       -6.391728
    2       -2.010065
    3        1.783614
    4        5.047152
    5       11.490333
    6       13.706430
    7       14.490776
    8       15.365658
    9       19.375147
   10       19.674344
   11       26.746747
   12       32.596209
 
 -0.4444444E+00  0.1666667E+00  0.0000000E+00  0.1543210E-02
    1       -7.395858
    2       -0.535216
    3        2.142873
    4        4.495064
    5       10.955102
    6       14.268103
    7       15.248504
    8       15.424381
    9       19.989297
   10       20.131649
   11       24.699550
   12       32.810178
 
 -0.3888889E+00  0.1666667E+00  0.0000000E+00  0.1543210E-02
    1       -8.291915
    2        0.993642
    3        2.720908
    4        3.863762
    5       10.452238
    6       14.781807
    7       15.430734
    8       16.133368
    9       20.797867
   10       20.903212
   11       22.934965
   12       31.693143
 
 -0.3333333E+00  0.1666667E+00  0.0000000E+00  0.1543210E-02
    1       -9.051916
    2        2.374124
    3        3.249940
    4        3.639223
    5       10.011040
    6       15.070084
    7       15.388961
    8       17.027546
    9       21.638352
   10       21.642490
   11       22.042378
   12       29.963428
 
 -0.2777778E+00  0.1666667E+00  0.0000000E+00  0.1543210E-02
    1       -9.666006
    2        2.713562
    3        3.448952
    4        4.939002
    5        9.644155
    6       14.700285
    7       15.605102
    8       17.875174
    9       20.974257
   10       22.597559
   11       23.244209
   12       28.046675
 
 -0.2222222E+00  0.1666667E+00  0.0000000E+00  0.1543210E-02
    1      -10.129124
    2        2.289100
    3        4.398430
    4        6.222446
    5        9.359834
    6       14.153080
    7       15.701248
    8       18.636232
    9       20.890764
   10       23.575211
   11       24.282893
   12       26.178147
 
 -0.1666667E+00  0.1666667E+00  0.0000000E+00  0.7716049E-03
    1      -10.438972
    2        1.997994
    3        5.319885
    4        7.016786
    5        9.172768
    6       13.914534
    7       15.520190
    8       19.243233
    9       21.194215
   10       24.101351
   11       24.902880
   12       24.964048
 
  0.2222222E+00  0.2222222E+00  0.0000000E+00  0.7716049E-03
    1       -7.468202
    2        0.115753
    3        1.455531
    4        4.456355
    5       10.940708
    6       14.875441
    7       14.895510
    8       15.516388
    9       19.657122
   10       22.241288
   11       22.316898
   12       32.859105
 
  0.2777778E+00  0.2222222E+00  0.0000000E+00  0.1543210E-02
    1       -6.523589
    2       -1.074058
    3        0.709716
    4        5.014465
    5       11.485982
    6       14.263734
    7       14.861149
    8       14.980304
    9       18.649844
   10       21.803525
   11       24.198052
   12       32.545823
 
  0.3333333E+00  0.2222222E+00  0.0000000E+00  0.1543210E-02
    1       -5.522157
    2       -2.338471
    3        0.363736
    4        5.430748
    5       12.054338
    6       13.639536
    7       14.587345
    8       14.808096
    9       18.008906
   10       21.515484
   11       26.366322
   12       30.921776
 
  0.3888889E+00  0.2222222E+00  0.0000000E+00  0.1543210E-02
    1       -4.889641
    2       -3.072292
    3        0.258790
    4        5.587436
    5       12.420435
    6       13.252989
    7       14.437132
    8       14.785010
    9       17.791851
   10       21.419166
   11       28.306074
   12       29.083901
 
  0.4444444E+00  0.2222222E+00  0.0000000E+00  0.1543210E-02
    1       -5.522755
    2       -2.337986
    3        0.363757
    4        5.430716
    5       12.053686
    6       13.640576
    7       14.586290
    8       14.808049
    9       18.009972
   10       21.515718
   11       26.372656
   12       30.915968
 
  0.5000000E+00  0.2222222E+00  0.0000000E+00  0.1543210E-02
    1       -6.524223
    2       -1.073957
    3        0.710065
    4        5.014397
    5       11.485392
    6       14.265106
    7       14.861127
    8       14.978389
    9       18.651795
   10       21.803957
   11       24.204039
   12       32.541591
 
 -0.4444444E+00  0.2222222E+00  0.0000000E+00  0.1543210E-02
    1       -7.468780
    2        0.114666
    3        1.456928
    4        4.456259
    5       10.940246
    6       14.875488
    7       14.897294
    8       15.513933
    9       19.659648
   10       22.243686
   11       22.320323
   12       32.855981
 
 -0.3888889E+00  0.2222222E+00  0.0000000E+00  0.1543210E-02
    1       -8.292001
    2        0.991911
    3        2.722865
    4        3.863754
    5       10.452195
    6       14.780246
    7       15.432942
    8       16.132296
    9       20.801519
   10       20.904472
   11       22.930654
   12       31.692991
 
 -0.3333333E+00  0.2222222E+00  0.0000000E+00  0.1543210E-02
    1       -8.975636
    2        1.775465
    3        3.311901
    4        4.172917
    5       10.035765
    6       14.429757
    7       15.854934
    8       16.805265
    9       19.960500
   10       22.195089
   11       23.723333
   12       29.766975
 
 -0.2777778E+00  0.2222222E+00  0.0000000E+00  0.1543210E-02
    1       -9.512176
    2        2.610404
    3        2.848646
    4        5.453217
    5        9.702284
    6       13.955254
    7       16.086654
    8       17.499048
    9       19.800296
   10       23.296479
   11       24.603634
   12       27.597639
 
 -0.2222222E+00  0.2222222E+00  0.0000000E+00  0.7716049E-03
    1       -9.897305
    2        2.502185
    3        3.506702
    4        6.207283
    5        9.473456
    6       13.769848
    7       16.054585
    8       18.147401
    9       20.158559
   10       23.999528
   11       25.374878
   12       25.566799
 
  0.2777778E+00  0.2777778E+00  0.0000000E+00  0.7716049E-03
    1       -5.566973
    2       -1.651265
    3       -0.439444
    4        5.444343
    5       12.067490
    6       14.042555
    7       14.387027
    8       14.915545
    9       17.501294
   10       23.791969
   11       23.937076
   12       30.857840
 
  0.3333333E+00  0.2777778E+00  0.0000000E+00  0.1543210E-02
    1       -4.702455
    2       -2.400822
    3       -0.948617
    4        5.693068
    5       12.644647
    6       13.509437
    7       14.262106
    8       15.000739
    9       16.760998
   10       23.688451
   11       26.142758
   12       28.614745
 
  0.3888889E+00  0.2777778E+00  0.0000000E+00  0.1543210E-02
    1       -4.702901
    2       -2.400768
    3       -0.948241
    4        5.693065
    5       12.643920
    6       13.510209
    7       14.262230
    8       14.999242
    9       16.762517
   10       23.688591
   11       26.148934
   12       28.608526
 
  0.4444444E+00  0.2777778E+00  0.0000000E+00  0.1543210E-02
    1       -5.567706
    2       -1.652099
    3       -0.437926
    4        5.444323
    5       12.066715
    6       14.042759
    7       14.388142
    8       14.912571
    9       17.504347
   10       23.795005
   11       23.940459
   12       30.851948
 
  0.5000000E+00  0.2777778E+00  0.0000000E+00  0.1543210E-02
    1       -6.524320
    2       -1.075522
    3        0.711832
    4        5.014415
    5       11.485360
    6       14.263220
    7       14.863333
    8       14.976980
    9       18.653334
   10       21.808975
   11       24.198651
   12       32.541382
 
 -0.4444444E+00  0.2777778E+00  0.0000000E+00  0.1543210E-02
    1       -7.396045
    2       -0.537294
    3        2.145387
    4        4.495073
    5       10.955032
    6       14.266479
    7       15.246324
    8       15.426892
    9       19.991809
   10       20.135804
   11       24.694430
   12       32.809536
 
 -0.3888889E+00  0.2777778E+00  0.0000000E+00  0.1543210E-02
    1       -8.141727
    2        0.094277
    3        3.589572
    4        3.969042
    5       10.489426
    6       14.061912
    7       15.693983
    8       15.897863
    9       19.072466
   10       21.331241
   11       25.334864
   12       31.429896
 
 -0.3333333E+00  0.2777778E+00  0.0000000E+00  0.1543210E-02
    1       -8.747088
    2        0.841900
    3        3.495623
    4        4.815022
    5       10.106881
    6       13.702173
    7       16.205493
    8       16.271464
    9       18.748399
   10       22.445458
   11       26.084537
   12       29.253426
 
 -0.2777778E+00  0.2777778E+00  0.0000000E+00  0.7716049E-03
    1       -9.205057
    2        1.694004
    3        3.114166
    4        5.503275
    5        9.841121
    6       13.560968
    7       16.286073
    8       16.909434
    9       19.044316
   10       23.112293
   11       26.805659
   12       26.958364
 
  0.3333333E+00  0.3333333E+00  0.0000000E+00  0.7716049E-03
    1       -4.316122
    2       -1.963587
    3       -1.961382
    4        5.785665
    5       13.191498
    6       13.191827
    7       13.995914
    8       15.733451
    9       15.738040
   10       25.631699
   11       26.332007
   12       26.336448
 
  0.3888889E+00  0.3333333E+00  0.0000000E+00  0.1543210E-02
    1       -4.702995
    2       -2.402362
    3       -0.946505
    4        5.693090
    5       12.643932
    6       13.508833
    7       14.263792
    8       14.996810
    9       16.765009
   10       23.694365
   11       26.143007
   12       28.608533
 
  0.4444444E+00  0.3333333E+00  0.0000000E+00  0.1543210E-02
    1       -5.522932
    2       -2.339871
    3        0.365973
    4        5.430769
    5       12.053675
    6       13.638783
    7       14.583484
    8       14.810310
    9       18.012965
   10       21.521003
   11       26.366788
   12       30.915951
 
  0.5000000E+00  0.3333333E+00  0.0000000E+00  0.1543210E-02
    1       -6.392012
    2       -2.012079
    3        1.786216
    4        5.047206
    5       11.490294
    6       13.704762
    7       14.487700
    8       15.368238
    9       19.378615
   10       19.678924
   11       26.741063
   12       32.595576
 
 -0.4444444E+00  0.3333333E+00  0.0000000E+00  0.1543210E-02
    1       -7.179081
    2       -1.504270
    3        3.173667
    4        4.606714
    5       10.977489
    6       13.645659
    7       14.671988
    8       15.842685
    9       18.385237
   10       20.712043
   11       27.252724
   12       32.660268
 
 -0.3888889E+00  0.3333333E+00  0.0000000E+00  0.1543210E-02
    1       -7.843182
    2       -0.845426
    3        4.170928
    4        4.325274
    5       10.546293
    6       13.435541
    7       15.080900
    8       16.173075
    9       17.842098
   10       21.797022
   11       27.877717
   12       30.959541
 
 -0.3333333E+00  0.3333333E+00  0.0000000E+00  0.7716049E-03
    1       -8.368659
    2       -0.054345
    3        3.789158
    4        4.936421
    5       10.252502
    6       13.343860
    7       15.645644
    8       16.306843
    9       18.018639
   10       22.396149
   11       28.469653
   12       28.679773
 
  0.3888889E+00  0.3888889E+00  0.0000000E+00  0.7716049E-03
    1       -4.890006
    2       -3.074059
    3        0.261063
    4        5.587500
    5       12.420297
    6       13.251489
    7       14.433422
    8       14.787259
    9       17.795760
   10       21.424624
   11       28.303102
   12       29.081024
 
  0.4444444E+00  0.3888889E+00  0.0000000E+00  0.1543210E-02
    1       -5.427679
    2       -3.222514
    3        1.611193
    4        5.382522
    5       11.956401
    6       13.220016
    7       14.033425
    8       15.323716
    9       19.075870
   10       19.447670
   11       28.870781
   12       31.117150
 
  0.5000000E+00  0.3888889E+00  0.0000000E+00  0.1543210E-02
    1       -6.143016
    2       -2.932624
    3        2.923840
    4        5.098553
    5       11.433307
    6       13.239502
    7       13.922331
    8       15.779160
    9       17.951322
   10       20.345450
   11       29.293768
   12       32.684026
 
 -0.4444444E+00  0.3888889E+00  0.0000000E+00  0.1543210E-02
    1       -6.825523
    2       -2.397629
    3        3.994199
    4        4.772334
    5       10.965297
    6       13.182393
    7       14.095837
    8       16.098553
    9       17.163628
   10       21.367397
   11       29.804857
   12       32.391932
 
 -0.3888889E+00  0.3888889E+00  0.0000000E+00  0.7716049E-03
    1       -7.400994
    2       -1.689638
    3        4.449179
    4        4.523309
    5       10.664168
    6       13.152011
    7       14.507297
    8       16.239223
    9       17.169796
   10       21.883209
   11       30.322106
   12       30.441762
 
  0.4444444E+00  0.4444444E+00  0.0000000E+00  0.7716049E-03
    1       -5.460101
    2       -3.748007
    3        2.840423
    4        5.289142
    5       11.659267
    6       13.031718
    7       13.640932
    8       15.753482
    9       17.803159
   10       20.224568
   11       30.928443
   12       31.649738
 
  0.5000000E+00  0.4444444E+00  0.0000000E+00  0.1543210E-02
    1       -5.835246
    2       -3.659045
    3        3.827640
    4        5.145219
    5       11.254037
    6       13.000302
    7       13.518730
    8       16.047437
    9       16.794911
   10       21.154383
   11       31.597018
   12       32.768014
 
 -0.4444444E+00  0.4444444E+00  0.0000000E+00  0.7716049E-03
    1       -6.356494
    2       -3.142141
    3        4.272317
    4        4.963093
    5       10.995420
    6       13.009013
    7       13.682919
    8       16.168854
    9       16.590747
   10       21.577362
   11       32.005047
   12       32.037703
 
  0.5000000E+00  0.5000000E+00  0.0000000E+00  0.3858025E-03
    1       -5.661491
    2       -3.973614
    3        4.188796
    4        5.163809
    5       11.129795
    6       12.952280
    7       13.374773
    8       16.140935
    9       16.381474
   10       21.475955
   11       32.789989
   12       32.809600
 