32   
4    

1    
  0.0067588090995617  -0.0000003046341106   0.0073701085109298
  -0.1612491900    0.0045733200   -0.4145128700
  -0.0073386400   -0.0006072000    0.0416303200
  -0.0026761400    0.0029474100    0.0373619000
  -0.0022514200   -0.0016707600    0.0376249200
   0.0305830700    0.0002941300    0.1632361400
  -0.0204220600   -0.0010293800    0.0174460700
   0.0028442800    0.0130407900    0.0137862900
   0.0014006300   -0.0115404200    0.0127919200
   0.0011163400    0.0094027700   -0.0363925900
   0.0029572800   -0.0095952100   -0.0327292600
   0.0168538900   -0.0018377700   -0.0386355000
  -0.0732501100    0.0007779400    0.1368131400
   0.0044276600    0.0075984700   -0.0318960400
  -0.0016321100   -0.0114679000   -0.0366863100
   0.0173672500    0.0027602100   -0.0388321400
  -0.0690315000   -0.0012575700    0.1251510400
  -0.0169717200    0.0013414300    0.0030809500
   0.0301890100    0.0007388500   -0.0328562600
   0.1026521200    0.0433664800   -0.0333427500
   0.1074097000   -0.0422791100   -0.0342839800
  -0.0348388000    0.0008674900    0.0014944300
   0.0072624900    0.0003321300    0.0095851600
  -0.0131707400   -0.0101843900    0.0088528200
  -0.0146875700    0.0155894600    0.0084930900
  -0.0179882200   -0.0018480700   -0.0049788600
   0.0587708500    0.0456159400    0.0520316100
  -0.0224462200   -0.0482012900    0.0214989700
   0.0324007700   -0.0028606700   -0.0137754200
   0.0578005600   -0.0483265100    0.0523004100
  -0.0214101900    0.0006613900   -0.0050509300
  -0.0242727100    0.0448079500    0.0238665100
   0.0296014400   -0.0020099200   -0.0130727800

1    
 -0.0067588090995617   0.0000003046341106  -0.0073701085109298
   0.1598654000    0.0048807100    0.4148338000
   0.0059664100   -0.0005031500   -0.0414466100
   0.0006840500   -0.0015454800   -0.0370325400
   0.0010917600    0.0030888500   -0.0379486900
  -0.0323494800   -0.0009278000   -0.1625503700
   0.0189374000    0.0005303100   -0.0170026100
  -0.0037795200   -0.0118222400   -0.0131034600
  -0.0032827900    0.0136234100   -0.0134122400
   0.0015489100   -0.0118304100    0.0365157600
  -0.0021740000    0.0089714600    0.0319202000
  -0.0171333700    0.0028865300    0.0375464100
   0.0711308600   -0.0008287400   -0.1253294100
  -0.0023036300   -0.0087383000    0.0324942200
   0.0013816000    0.0090459600    0.0366216300
  -0.0149545100   -0.0017468100    0.0392249100
   0.0744224000    0.0008287800   -0.1374523400
   0.0117257000    0.0028139700   -0.0030245200
  -0.0362077100   -0.0003576500    0.0328819800
  -0.1133261100   -0.0422982300    0.0333994600
  -0.1084991100    0.0427701000    0.0340264000
   0.0302865600   -0.0000548600   -0.0016186100
  -0.0125418600    0.0003224800   -0.0097449300
   0.0104996700    0.0150692000   -0.0074876100
   0.0074696900   -0.0107620700   -0.0099121500
   0.0252707100   -0.0003632200    0.0050984500
  -0.0548480000   -0.0488673900   -0.0524071200
   0.0292176300    0.0451216600   -0.0232646800
  -0.0272793200   -0.0017802600    0.0121846600
  -0.0512210900    0.0456746800   -0.0517690700
   0.0250240400   -0.0029973100    0.0050071100
   0.0296272000   -0.0475618600   -0.0219924600
  -0.0242495000   -0.0026423200    0.0147444400

17   
  0.0067588090995617  -0.0000003046341106   0.0073701085109298
  -0.0216095900    0.0006315300    0.0105073700
   0.0271365800    0.0012924900   -0.0276784600
   0.1053606600    0.0442836400   -0.0296142200
   0.0995476500   -0.0402833600   -0.0274400800
  -0.0355553500    0.0016635200    0.0014459600
   0.0059089500    0.0020076000    0.0130627800
  -0.0159006300   -0.0139002900    0.0112570700
  -0.0114803700    0.0110615500    0.0126252900
  -0.0178156600   -0.0062645800   -0.0172812300
   0.0451572700    0.0436274000    0.0562672800
  -0.0311044100   -0.0375799600    0.0185505900
   0.0258119100   -0.0016172100   -0.0155808500
   0.0431326700   -0.0406025700    0.0560190800
  -0.0128212700    0.0087596700   -0.0175774200
  -0.0288665500    0.0329613900    0.0178993600
   0.0220693700   -0.0008644500   -0.0186677900
  -0.2365737400   -0.0037608800   -0.0274259300
   0.0070145800    0.0001315200    0.0038632800
   0.0053412500   -0.0031875700    0.0028757000
   0.0010869300    0.0045760100    0.0049215200
   0.0159891700    0.0026167900   -0.0115542500
  -0.0209068900    0.0016459000   -0.0151001700
  -0.0146464700    0.0028443100   -0.0154443300
  -0.0170058000    0.0006488400   -0.0184461000
  -0.0019565400    0.0130417400    0.0043802800
   0.0001372500   -0.0185240800    0.0069036300
   0.0248541000   -0.0006608700    0.0047336600
   0.0017734100   -0.0036984000   -0.0034912800
   0.0078095200    0.0116089400    0.0077991400
   0.0011892300   -0.0161462200    0.0070836600
   0.0256133300    0.0055795800    0.0062799200
   0.0013094400   -0.0018919800   -0.0011734700

17   
 -0.0067588090995617   0.0000003046341106  -0.0073701085109298
   0.0205001100   -0.0009013500   -0.0099412200
  -0.0283182200   -0.0004774500    0.0276087300
  -0.1009717800   -0.0403820200    0.0264989200
  -0.1079463900    0.0440175500    0.0306029900
   0.0349829300    0.0005962600   -0.0001654800
  -0.0074483600   -0.0002088800   -0.0130750200
   0.0099905300    0.0119707800   -0.0123072500
   0.0128525100   -0.0123703600   -0.0110441500
   0.0144707900    0.0074863500    0.0148403500
  -0.0435423700   -0.0430652500   -0.0576159400
   0.0313551400    0.0338572700   -0.0197087100
  -0.0220480100   -0.0001088500    0.0145834900
  -0.0440296400    0.0414905000   -0.0549187100
   0.0178616400   -0.0074676000    0.0197459500
   0.0317294000   -0.0368537700   -0.0167313800
  -0.0244039300   -0.0011592400    0.0178451000
   0.2358042700   -0.0027810100    0.0275489700
  -0.0088196300    0.0031191400   -0.0049434500
  -0.0060435200    0.0052492900   -0.0041628600
  -0.0076585700   -0.0020768200   -0.0058877900
  -0.0164089000    0.0026672800    0.0103612300
   0.0188463700    0.0000815100    0.0148714300
   0.0105871100   -0.0020274800    0.0149831900
   0.0134369600    0.0018568000    0.0169292500
   0.0010434400   -0.0127839000   -0.0055981600
  -0.0036023600    0.0129656100   -0.0055612700
  -0.0208455500    0.0033787900   -0.0056407900
   0.0056105400    0.0005125300    0.0042255300
   0.0007463700   -0.0166574200   -0.0069859400
   0.0040082500    0.0149101600   -0.0037016500
  -0.0208472000   -0.0029600100   -0.0040339700
  -0.0008919300   -0.0018784100    0.0013786100
