# Thermal properties / unit cell (natom)

unit:
  temperature:   K
  free_energy:   kJ/mol
  entropy:       J/K/mol
  heat_capacity: J/K/mol

natom:     4
num_modes: 3888
num_integrated_modes: 2898

zero_point_energy:      48.0262328
high_T_entropy:        174.8156425

thermal_properties:
- temperature:         0.0000000
  free_energy:        48.0262328
  entropy:             0.0000000
  heat_capacity:       0.0000000
  energy:             48.0262328

- temperature:        10.0000000
  free_energy:        48.0262320
  entropy:             0.0006635
  heat_capacity:       0.0042125
  energy:             48.0262386

- temperature:        20.0000000
  free_energy:        48.0261629
  entropy:             0.0183387
  heat_capacity:       0.0712224
  energy:             48.0265297

- temperature:        30.0000000
  free_energy:        48.0257120
  entropy:             0.0819334
  heat_capacity:       0.2875063
  energy:             48.0281700

- temperature:        40.0000000
  free_energy:        48.0242897
  entropy:             0.2152913
  heat_capacity:       0.6884220
  energy:             48.0329013

- temperature:        50.0000000
  free_energy:        48.0211450
  entropy:             0.4266700
  heat_capacity:       1.2510285
  energy:             48.0424785

- temperature:        60.0000000
  free_energy:        48.0155028
  entropy:             0.7139571
  heat_capacity:       1.9392399
  energy:             48.0583402

- temperature:        70.0000000
  free_energy:        48.0066350
  entropy:             1.0704799
  heat_capacity:       2.7192621
  energy:             48.0815686

- temperature:        80.0000000
  free_energy:        47.9938894
  entropy:             1.4881398
  heat_capacity:       3.5640504
  energy:             48.1129406

- temperature:        90.0000000
  free_energy:        47.9766952
  entropy:             1.9589056
  heat_capacity:       4.4531652
  energy:             48.1529967

- temperature:       100.0000000
  free_energy:        47.9545589
  entropy:             2.4754182
  heat_capacity:       5.3714681
  energy:             48.2021007

- temperature:       110.0000000
  free_energy:        47.9270561
  entropy:             3.0311858
  heat_capacity:       6.3080206
  energy:             48.2604866

- temperature:       120.0000000
  free_energy:        47.8938231
  entropy:             3.6206129
  heat_capacity:       7.2553184
  energy:             48.3282966

- temperature:       130.0000000
  free_energy:        47.8545475
  entropy:             4.2389647
  heat_capacity:       8.2086980
  energy:             48.4056129

- temperature:       140.0000000
  free_energy:        47.8089606
  entropy:             4.8823013
  heat_capacity:       9.1657879
  energy:             48.4924828

- temperature:       150.0000000
  free_energy:        47.7568290
  entropy:             5.5473987
  heat_capacity:      10.1259607
  energy:             48.5889388

- temperature:       160.0000000
  free_energy:        47.6979488
  entropy:             6.2316582
  heat_capacity:      11.0897955
  energy:             48.6950141

- temperature:       170.0000000
  free_energy:        47.6321389
  entropy:             6.9330134
  heat_capacity:      12.0585804
  energy:             48.8107512

- temperature:       180.0000000
  free_energy:        47.5592370
  entropy:             7.6498359
  heat_capacity:      13.0338868
  energy:             48.9362075

- temperature:       190.0000000
  free_energy:        47.4790950
  entropy:             8.3808465
  heat_capacity:      14.0172327
  energy:             49.0714558

- temperature:       200.0000000
  free_energy:        47.3915762
  entropy:             9.1250344
  heat_capacity:      15.0098424
  energy:             49.2165830

- temperature:       210.0000000
  free_energy:        47.2965531
  entropy:             9.8815862
  heat_capacity:      16.0124967
  energy:             49.3716862

- temperature:       220.0000000
  free_energy:        47.1939055
  entropy:            10.6498269
  heat_capacity:      17.0254605
  energy:             49.5368674

- temperature:       230.0000000
  free_energy:        47.0835195
  entropy:            11.4291713
  heat_capacity:      18.0484718
  energy:             49.7122289

- temperature:       240.0000000
  free_energy:        46.9652868
  entropy:            12.2190876
  heat_capacity:      19.0807748
  energy:             49.8978679

- temperature:       250.0000000
  free_energy:        46.8391042
  entropy:            13.0190690
  heat_capacity:      20.1211821
  energy:             50.0938715

- temperature:       260.0000000
  free_energy:        46.7048736
  entropy:            13.8286148
  heat_capacity:      21.1681529
  energy:             50.3003134

- temperature:       270.0000000
  free_energy:        46.5625017
  entropy:            14.6472173
  heat_capacity:      22.2198773
  energy:             50.5172504

- temperature:       280.0000000
  free_energy:        46.4119008
  entropy:            15.4743550
  heat_capacity:      23.2743593
  energy:             50.7447202

- temperature:       290.0000000
  free_energy:        46.2529880
  entropy:            16.3094889
  heat_capacity:      24.3294934
  energy:             50.9827398

- temperature:       300.0000000
  free_energy:        46.0856862
  entropy:            17.1520628
  heat_capacity:      25.3831328
  energy:             51.2313050

- temperature:       310.0000000
  free_energy:        45.9099238
  entropy:            18.0015048
  heat_capacity:      26.4331468
  energy:             51.4903903

- temperature:       320.0000000
  free_energy:        45.7256351
  entropy:            18.8572308
  heat_capacity:      27.4774675
  energy:             51.7599490

- temperature:       330.0000000
  free_energy:        45.5327602
  entropy:            19.7186481
  heat_capacity:      28.5141267
  energy:             52.0399141

- temperature:       340.0000000
  free_energy:        45.3312452
  entropy:            20.5851607
  heat_capacity:      29.5412825
  energy:             52.3301998

- temperature:       350.0000000
  free_energy:        45.1210420
  entropy:            21.4561726
  heat_capacity:      30.5572386
  energy:             52.6307024

- temperature:       360.0000000
  free_energy:        44.9021087
  entropy:            22.3310928
  heat_capacity:      31.5604556
  energy:             52.9413021

- temperature:       370.0000000
  free_energy:        44.6744091
  entropy:            23.2093389
  heat_capacity:      32.5495571
  energy:             53.2618645

- temperature:       380.0000000
  free_energy:        44.4379128
  entropy:            24.0903405
  heat_capacity:      33.5233309
  energy:             53.5922422

- temperature:       390.0000000
  free_energy:        44.1925950
  entropy:            24.9735424
  heat_capacity:      34.4807257
  energy:             53.9322765

- temperature:       400.0000000
  free_energy:        43.9384364
  entropy:            25.8584067
  heat_capacity:      35.4208462
  energy:             54.2817991

- temperature:       410.0000000
  free_energy:        43.6754230
  entropy:            26.7444154
  heat_capacity:      36.3429454
  energy:             54.6406333

- temperature:       420.0000000
  free_energy:        43.4035459
  entropy:            27.6310713
  heat_capacity:      37.2464154
  energy:             55.0085959

- temperature:       430.0000000
  free_energy:        43.1228010
  entropy:            28.5178998
  heat_capacity:      38.1307776
  energy:             55.3854979

- temperature:       440.0000000
  free_energy:        42.8331888
  entropy:            29.4044492
  heat_capacity:      38.9956724
  energy:             55.7711465

- temperature:       450.0000000
  free_energy:        42.5347144
  entropy:            30.2902917
  heat_capacity:      39.8408485
  energy:             56.1653456

- temperature:       460.0000000
  free_energy:        42.2273867
  entropy:            31.1750228
  heat_capacity:      40.6661528
  energy:             56.5678972

- temperature:       470.0000000
  free_energy:        41.9112189
  entropy:            32.0582624
  heat_capacity:      41.4715198
  energy:             56.9786022

- temperature:       480.0000000
  free_energy:        41.5862276
  entropy:            32.9396533
  heat_capacity:      42.2569626
  energy:             57.3972612

- temperature:       490.0000000
  free_energy:        41.2524331
  entropy:            33.8188616
  heat_capacity:      43.0225629
  energy:             57.8236753

- temperature:       500.0000000
  free_energy:        40.9098587
  entropy:            34.6955761
  heat_capacity:      43.7684635
  energy:             58.2576468

- temperature:       510.0000000
  free_energy:        40.5585309
  entropy:            35.5695072
  heat_capacity:      44.4948593
  energy:             58.6989796

- temperature:       520.0000000
  free_energy:        40.1984788
  entropy:            36.4403866
  heat_capacity:      45.2019908
  energy:             59.1474798

- temperature:       530.0000000
  free_energy:        39.8297341
  entropy:            37.3079660
  heat_capacity:      45.8901373
  energy:             59.6029561

- temperature:       540.0000000
  free_energy:        39.4523312
  entropy:            38.1720168
  heat_capacity:      46.5596103
  energy:             60.0652203

- temperature:       550.0000000
  free_energy:        39.0663063
  entropy:            39.0323289
  heat_capacity:      47.2107489
  energy:             60.5340872

- temperature:       560.0000000
  free_energy:        38.6716977
  entropy:            39.8887100
  heat_capacity:      47.8439141
  energy:             61.0093753

- temperature:       570.0000000
  free_energy:        38.2685458
  entropy:            40.7409843
  heat_capacity:      48.4594850
  energy:             61.4909068

- temperature:       580.0000000
  free_energy:        37.8568923
  entropy:            41.5889921
  heat_capacity:      49.0578542
  energy:             61.9785077

- temperature:       590.0000000
  free_energy:        37.4367806
  entropy:            42.4325886
  heat_capacity:      49.6394253
  energy:             62.4720079

- temperature:       600.0000000
  free_energy:        37.0082556
  entropy:            43.2716432
  heat_capacity:      50.2046090
  energy:             62.9712416

- temperature:       610.0000000
  free_energy:        36.5713633
  entropy:            44.1060386
  heat_capacity:      50.7538206
  energy:             63.4760468

- temperature:       620.0000000
  free_energy:        36.1261507
  entropy:            44.9356700
  heat_capacity:      51.2874780
  energy:             63.9862661

- temperature:       630.0000000
  free_energy:        35.6726661
  entropy:            45.7604442
  heat_capacity:      51.8059995
  energy:             64.5017460

- temperature:       640.0000000
  free_energy:        35.2109583
  entropy:            46.5802793
  heat_capacity:      52.3098016
  energy:             65.0223371

- temperature:       650.0000000
  free_energy:        34.7410772
  entropy:            47.3951032
  heat_capacity:      52.7992981
  energy:             65.5478943

- temperature:       660.0000000
  free_energy:        34.2630732
  entropy:            48.2048538
  heat_capacity:      53.2748987
  energy:             66.0782767

- temperature:       670.0000000
  free_energy:        33.7769972
  entropy:            49.0094777
  heat_capacity:      53.7370075
  energy:             66.6133473

- temperature:       680.0000000
  free_energy:        33.2829009
  entropy:            49.8089299
  heat_capacity:      54.1860225
  energy:             67.1529732

- temperature:       690.0000000
  free_energy:        32.7808360
  entropy:            50.6031731
  heat_capacity:      54.6223346
  energy:             67.6970254

- temperature:       700.0000000
  free_energy:        32.2708549
  entropy:            51.3921771
  heat_capacity:      55.0463273
  energy:             68.2453788

- temperature:       710.0000000
  free_energy:        31.7530100
  entropy:            52.1759185
  heat_capacity:      55.4583756
  energy:             68.7979121

- temperature:       720.0000000
  free_energy:        31.2273541
  entropy:            52.9543801
  heat_capacity:      55.8588463
  energy:             69.3545078

- temperature:       730.0000000
  free_energy:        30.6939400
  entropy:            53.7275502
  heat_capacity:      56.2480973
  energy:             69.9150517

- temperature:       740.0000000
  free_energy:        30.1528207
  entropy:            54.4954226
  heat_capacity:      56.6264774
  energy:             70.4794335

- temperature:       750.0000000
  free_energy:        29.6040492
  entropy:            55.2579959
  heat_capacity:      56.9943262
  energy:             71.0475461

- temperature:       760.0000000
  free_energy:        29.0476785
  entropy:            56.0152730
  heat_capacity:      57.3519742
  energy:             71.6192860

- temperature:       770.0000000
  free_energy:        28.4837614
  entropy:            56.7672614
  heat_capacity:      57.6997423
  energy:             72.1945527

- temperature:       780.0000000
  free_energy:        27.9123508
  entropy:            57.5139719
  heat_capacity:      58.0379425
  energy:             72.7732489

- temperature:       790.0000000
  free_energy:        27.3334995
  entropy:            58.2554192
  heat_capacity:      58.3668772
  energy:             73.3552806

- temperature:       800.0000000
  free_energy:        26.7472599
  entropy:            58.9916208
  heat_capacity:      58.6868399
  energy:             73.9405566

- temperature:       810.0000000
  free_energy:        26.1536845
  entropy:            59.7225975
  heat_capacity:      58.9981150
  energy:             74.5289885

- temperature:       820.0000000
  free_energy:        25.5528253
  entropy:            60.4483726
  heat_capacity:      59.3009779
  energy:             75.1204908

- temperature:       830.0000000
  free_energy:        24.9447343
  entropy:            61.1689718
  heat_capacity:      59.5956954
  energy:             75.7149809

- temperature:       840.0000000
  free_energy:        24.3294631
  entropy:            61.8844231
  heat_capacity:      59.8825257
  energy:             76.3123785

- temperature:       850.0000000
  free_energy:        23.7070629
  entropy:            62.5947565
  heat_capacity:      60.1617186
  energy:             76.9126059

- temperature:       860.0000000
  free_energy:        23.0775849
  entropy:            63.3000038
  heat_capacity:      60.4335158
  energy:             77.5155882

- temperature:       870.0000000
  free_energy:        22.4410797
  entropy:            64.0001985
  heat_capacity:      60.6981508
  energy:             78.1212524

- temperature:       880.0000000
  free_energy:        21.7975976
  entropy:            64.6953755
  heat_capacity:      60.9558495
  energy:             78.7295281

- temperature:       890.0000000
  free_energy:        21.1471888
  entropy:            65.3855710
  heat_capacity:      61.2068303
  energy:             79.3403470

- temperature:       900.0000000
  free_energy:        20.4899027
  entropy:            66.0708226
  heat_capacity:      61.4513041
  energy:             79.9536430

- temperature:       910.0000000
  free_energy:        19.8257887
  entropy:            66.7511686
  heat_capacity:      61.6894747
  energy:             80.5693521

- temperature:       920.0000000
  free_energy:        19.1548955
  entropy:            67.4266485
  heat_capacity:      61.9215390
  energy:             81.1874121

- temperature:       930.0000000
  free_energy:        18.4772718
  entropy:            68.0973025
  heat_capacity:      62.1476873
  energy:             81.8077631

- temperature:       940.0000000
  free_energy:        17.7929654
  entropy:            68.7631716
  heat_capacity:      62.3681032
  energy:             82.4303468

- temperature:       950.0000000
  free_energy:        17.1020242
  entropy:            69.4242974
  heat_capacity:      62.5829643
  energy:             83.0551067

- temperature:       960.0000000
  free_energy:        16.4044952
  entropy:            70.0807218
  heat_capacity:      62.7924418
  energy:             83.6819881

- temperature:       970.0000000
  free_energy:        15.7004253
  entropy:            70.7324875
  heat_capacity:      62.9967012
  energy:             84.3109381

- temperature:       980.0000000
  free_energy:        14.9898608
  entropy:            71.3796372
  heat_capacity:      63.1959023
  energy:             84.9419053

- temperature:       990.0000000
  free_energy:        14.2728478
  entropy:            72.0222142
  heat_capacity:      63.3901996
  energy:             85.5748398

- temperature:      1000.0000000
  free_energy:        13.5494316
  entropy:            72.6602618
  heat_capacity:      63.5797418
  energy:             86.2096934
