   4   4   0   0
  0.3988355E+01  0.2467155E-09  0.2467155E-09  0.3026584E-09  0.5000000E-15
  1.000000000000000E-004
  CAR 
 graphite                                
     34.45565073    -13.40027696  301     17.49802191      1.00000000
    -13.400  0.0000E+00  0.0000E+00
    -13.241  0.0000E+00  0.0000E+00
    -13.081  0.0000E+00  0.0000E+00
    -12.922  0.0000E+00  0.0000E+00
    -12.762  0.0000E+00  0.0000E+00
    -12.603  0.0000E+00  0.0000E+00
    -12.443  0.0000E+00  0.0000E+00
    -12.284  0.0000E+00  0.0000E+00
    -12.124  0.0000E+00  0.0000E+00
    -11.965  0.0000E+00  0.0000E+00
    -11.805  0.0000E+00  0.0000E+00
    -11.646  0.0000E+00  0.0000E+00
    -11.486  0.0000E+00  0.0000E+00
    -11.327  0.0000E+00  0.0000E+00
    -11.167  0.6161E-04  0.1191E-05
    -11.007  0.3412E-03  0.3402E-04
    -10.848  0.4461E-03  0.9792E-04
    -10.688  0.5409E-03  0.1760E-03
    -10.529  0.6338E-03  0.2701E-03
    -10.369  0.7189E-03  0.3779E-03
    -10.210  0.7849E-03  0.4979E-03
    -10.050  0.8326E-03  0.6269E-03
     -9.891  0.8903E-03  0.7642E-03
     -9.731  0.9552E-03  0.9113E-03
     -9.572  0.1009E-02  0.1068E-02
     -9.412  0.1062E-02  0.1233E-02
     -9.253  0.1111E-02  0.1407E-02
     -9.093  0.1158E-02  0.1587E-02
     -8.934  0.1197E-02  0.1775E-02
     -8.774  0.1236E-02  0.1969E-02
     -8.615  0.1280E-02  0.2170E-02
     -8.455  0.1326E-02  0.2378E-02
     -8.296  0.1372E-02  0.2593E-02
     -8.136  0.1412E-02  0.2815E-02
     -7.977  0.1455E-02  0.3044E-02
     -7.817  0.1492E-02  0.3279E-02
     -7.658  0.1530E-02  0.3520E-02
     -7.498  0.1569E-02  0.3767E-02
     -7.339  0.1606E-02  0.4020E-02
     -7.179  0.1643E-02  0.4279E-02
     -7.019  0.1682E-02  0.4545E-02
     -6.860  0.1724E-02  0.4816E-02
     -6.700  0.1768E-02  0.5095E-02
     -6.541  0.1815E-02  0.5380E-02
     -6.381  0.1863E-02  0.5674E-02
     -6.222  0.1920E-02  0.5975E-02
     -6.062  0.1986E-02  0.6287E-02
     -5.903  0.2072E-02  0.6610E-02
     -5.743  0.2275E-02  0.6953E-02
     -5.584  0.2287E-02  0.7324E-02
     -5.424  0.2203E-02  0.7679E-02
     -5.265  0.2286E-02  0.8046E-02
     -5.105  0.2162E-02  0.8398E-02
     -4.946  0.2084E-02  0.8737E-02
     -4.786  0.2026E-02  0.9064E-02
     -4.627  0.2042E-02  0.9389E-02
     -4.467  0.1972E-02  0.9711E-02
     -4.308  0.1874E-02  0.1002E-01
     -4.148  0.1764E-02  0.1031E-01
     -3.989  0.1707E-02  0.1058E-01
     -3.829  0.1778E-02  0.1086E-01
     -3.670  0.1968E-02  0.1116E-01
     -3.510  0.1943E-02  0.1147E-01
     -3.351  0.2023E-02  0.1179E-01
     -3.191  0.2187E-02  0.1213E-01
     -3.031  0.2199E-02  0.1248E-01
     -2.872  0.2243E-02  0.1283E-01
     -2.712  0.2350E-02  0.1320E-01
     -2.553  0.2469E-02  0.1358E-01
     -2.393  0.2679E-02  0.1399E-01
     -2.234  0.2849E-02  0.1444E-01
     -2.074  0.2927E-02  0.1490E-01
     -1.915  0.2897E-02  0.1536E-01
     -1.755  0.2716E-02  0.1581E-01
     -1.596  0.2579E-02  0.1623E-01
     -1.436  0.2517E-02  0.1664E-01
     -1.277  0.2342E-02  0.1702E-01
     -1.117  0.2377E-02  0.1740E-01
     -0.958  0.2596E-02  0.1780E-01
     -0.798  0.2630E-02  0.1821E-01
     -0.639  0.2457E-02  0.1862E-01
     -0.479  0.2530E-02  0.1902E-01
     -0.320  0.2503E-02  0.1942E-01
     -0.160  0.2890E-02  0.1985E-01
     -0.001  0.3020E-02  0.2032E-01
      0.159  0.3015E-02  0.2080E-01
      0.318  0.3143E-02  0.2129E-01
      0.478  0.3355E-02  0.2181E-01
      0.637  0.3301E-02  0.2234E-01
      0.797  0.3354E-02  0.2287E-01
      0.957  0.3023E-02  0.2337E-01
      1.116  0.2944E-02  0.2384E-01
      1.276  0.3136E-02  0.2432E-01
      1.435  0.3207E-02  0.2483E-01
      1.595  0.3135E-02  0.2534E-01
      1.754  0.3177E-02  0.2584E-01
      1.914  0.2997E-02  0.2633E-01
      2.073  0.2933E-02  0.2680E-01
      2.233  0.3023E-02  0.2727E-01
      2.392  0.3211E-02  0.2777E-01
      2.552  0.3283E-02  0.2829E-01
      2.711  0.3272E-02  0.2881E-01
      2.871  0.3349E-02  0.2934E-01
      3.030  0.3399E-02  0.2988E-01
      3.190  0.3441E-02  0.3042E-01
      3.349  0.3593E-02  0.3098E-01
      3.509  0.3643E-02  0.3157E-01
      3.668  0.3758E-02  0.3216E-01
      3.828  0.3843E-02  0.3276E-01
      3.987  0.3898E-02  0.3338E-01
      4.147  0.4074E-02  0.3401E-01
      4.306  0.4252E-02  0.3468E-01
      4.466  0.4269E-02  0.3537E-01
      4.625  0.4021E-02  0.3603E-01
      4.785  0.3890E-02  0.3665E-01
      4.944  0.3808E-02  0.3727E-01
      5.104  0.3789E-02  0.3787E-01
      5.264  0.3818E-02  0.3848E-01
      5.423  0.3867E-02  0.3909E-01
      5.583  0.3949E-02  0.3972E-01
      5.742  0.4059E-02  0.4035E-01
      5.902  0.4190E-02  0.4101E-01
      6.061  0.4453E-02  0.4170E-01
      6.221  0.4727E-02  0.4243E-01
      6.380  0.5110E-02  0.4322E-01
      6.540  0.4993E-02  0.4402E-01
      6.699  0.5011E-02  0.4482E-01
      6.859  0.5095E-02  0.4563E-01
      7.018  0.4741E-02  0.4642E-01
      7.178  0.4357E-02  0.4714E-01
      7.337  0.3748E-02  0.4780E-01
      7.497  0.3204E-02  0.4834E-01
      7.656  0.3080E-02  0.4884E-01
      7.816  0.2973E-02  0.4932E-01
      7.975  0.2910E-02  0.4979E-01
      8.135  0.2904E-02  0.5025E-01
      8.294  0.2971E-02  0.5072E-01
      8.454  0.3139E-02  0.5120E-01
      8.613  0.3298E-02  0.5172E-01
      8.773  0.3445E-02  0.5225E-01
      8.932  0.3500E-02  0.5281E-01
      9.092  0.3322E-02  0.5335E-01
      9.252  0.3690E-02  0.5390E-01
      9.411  0.4323E-02  0.5455E-01
      9.571  0.3396E-02  0.5516E-01
      9.730  0.3061E-02  0.5567E-01
      9.890  0.2915E-02  0.5614E-01
     10.049  0.2822E-02  0.5660E-01
     10.209  0.2871E-02  0.5705E-01
     10.368  0.2914E-02  0.5751E-01
     10.528  0.3201E-02  0.5800E-01
     10.687  0.2890E-02  0.5847E-01
     10.847  0.2527E-02  0.5890E-01
     11.006  0.2530E-02  0.5930E-01
     11.166  0.3159E-02  0.5976E-01
     11.325  0.3642E-02  0.6030E-01
     11.485  0.4001E-02  0.6091E-01
     11.644  0.4139E-02  0.6156E-01
     11.804  0.4333E-02  0.6224E-01
     11.963  0.4038E-02  0.6291E-01
     12.123  0.4456E-02  0.6357E-01
     12.282  0.5806E-02  0.6440E-01
     12.442  0.3788E-02  0.6511E-01
     12.601  0.3560E-02  0.6570E-01
     12.761  0.3436E-02  0.6626E-01
     12.920  0.2454E-02  0.6674E-01
     13.080  0.1827E-02  0.6707E-01
     13.240  0.1823E-02  0.6736E-01
     13.399  0.1832E-02  0.6766E-01
     13.559  0.1856E-02  0.6795E-01
     13.718  0.1881E-02  0.6825E-01
     13.878  0.1917E-02  0.6855E-01
     14.037  0.1955E-02  0.6886E-01
     14.197  0.2018E-02  0.6918E-01
     14.356  0.2101E-02  0.6950E-01
     14.516  0.2218E-02  0.6985E-01
     14.675  0.2351E-02  0.7021E-01
     14.835  0.2483E-02  0.7060E-01
     14.994  0.2596E-02  0.7100E-01
     15.154  0.2710E-02  0.7143E-01
     15.313  0.3103E-02  0.7188E-01
     15.473  0.3430E-02  0.7241E-01
     15.632  0.3432E-02  0.7296E-01
     15.792  0.3397E-02  0.7350E-01
     15.951  0.3459E-02  0.7405E-01
     16.111  0.3608E-02  0.7461E-01
     16.270  0.3750E-02  0.7520E-01
     16.430  0.3872E-02  0.7581E-01
     16.589  0.3854E-02  0.7643E-01
     16.749  0.3825E-02  0.7704E-01
     16.908  0.3880E-02  0.7765E-01
     17.068  0.3965E-02  0.7827E-01
     17.228  0.4014E-02  0.7891E-01
     17.387  0.4023E-02  0.7955E-01
     17.547  0.4065E-02  0.8020E-01
     17.706  0.4394E-02  0.8086E-01
     17.866  0.4995E-02  0.8160E-01
     18.025  0.5962E-02  0.8246E-01
     18.185  0.6864E-02  0.8351E-01
     18.344  0.7645E-02  0.8466E-01
     18.504  0.8181E-02  0.8601E-01
     18.663  0.6508E-02  0.8716E-01
     18.823  0.6019E-02  0.8815E-01
     18.982  0.5921E-02  0.8911E-01
     19.142  0.5347E-02  0.9000E-01
     19.301  0.5009E-02  0.9083E-01
     19.461  0.4745E-02  0.9160E-01
     19.620  0.4510E-02  0.9234E-01
     19.780  0.4425E-02  0.9305E-01
     19.939  0.4367E-02  0.9375E-01
     20.099  0.4260E-02  0.9444E-01
     20.258  0.4778E-02  0.9516E-01
     20.418  0.3912E-02  0.9584E-01
     20.577  0.3650E-02  0.9645E-01
     20.737  0.3279E-02  0.9700E-01
     20.896  0.2778E-02  0.9750E-01
     21.056  0.2934E-02  0.9791E-01
     21.216  0.2263E-02  0.9832E-01
     21.375  0.2054E-02  0.9865E-01
     21.535  0.2139E-02  0.9901E-01
     21.694  0.2196E-02  0.9935E-01
     21.854  0.2320E-02  0.9972E-01
     22.013  0.2519E-02  0.1001E+00
     22.173  0.2435E-02  0.1005E+00
     22.332  0.2234E-02  0.1009E+00
     22.492  0.2101E-02  0.1012E+00
     22.651  0.2066E-02  0.1016E+00
     22.811  0.1907E-02  0.1019E+00
     22.970  0.1770E-02  0.1022E+00
     23.130  0.1694E-02  0.1025E+00
     23.289  0.1732E-02  0.1027E+00
     23.449  0.1690E-02  0.1030E+00
     23.608  0.1642E-02  0.1033E+00
     23.768  0.1716E-02  0.1036E+00
     23.927  0.1654E-02  0.1038E+00
     24.087  0.1654E-02  0.1041E+00
     24.246  0.1659E-02  0.1044E+00
     24.406  0.1680E-02  0.1046E+00
     24.565  0.1713E-02  0.1049E+00
     24.725  0.1753E-02  0.1052E+00
     24.884  0.1784E-02  0.1055E+00
     25.044  0.1806E-02  0.1057E+00
     25.204  0.1841E-02  0.1060E+00
     25.363  0.1870E-02  0.1063E+00
     25.523  0.1907E-02  0.1066E+00
     25.682  0.1983E-02  0.1069E+00
     25.842  0.2314E-02  0.1073E+00
     26.001  0.2286E-02  0.1077E+00
     26.161  0.2316E-02  0.1080E+00
     26.320  0.2391E-02  0.1084E+00
     26.480  0.2609E-02  0.1088E+00
     26.639  0.2765E-02  0.1092E+00
     26.799  0.2868E-02  0.1097E+00
     26.958  0.3354E-02  0.1102E+00
     27.118  0.3784E-02  0.1107E+00
     27.277  0.3497E-02  0.1113E+00
     27.437  0.2691E-02  0.1118E+00
     27.596  0.2560E-02  0.1122E+00
     27.756  0.2489E-02  0.1126E+00
     27.915  0.2447E-02  0.1130E+00
     28.075  0.2423E-02  0.1134E+00
     28.234  0.2539E-02  0.1138E+00
     28.394  0.2539E-02  0.1142E+00
     28.553  0.2543E-02  0.1146E+00
     28.713  0.2585E-02  0.1150E+00
     28.872  0.2481E-02  0.1154E+00
     29.032  0.2319E-02  0.1158E+00
     29.191  0.2247E-02  0.1162E+00
     29.351  0.2211E-02  0.1165E+00
     29.511  0.2164E-02  0.1169E+00
     29.670  0.2133E-02  0.1172E+00
     29.830  0.2181E-02  0.1175E+00
     29.989  0.2138E-02  0.1179E+00
     30.149  0.2024E-02  0.1182E+00
     30.308  0.2557E-02  0.1186E+00
     30.468  0.1756E-02  0.1189E+00
     30.627  0.1621E-02  0.1192E+00
     30.787  0.1406E-02  0.1194E+00
     30.946  0.1095E-02  0.1196E+00
     31.106  0.8417E-03  0.1198E+00
     31.265  0.5579E-03  0.1199E+00
     31.425  0.1571E-03  0.1199E+00
     31.584  0.1235E-03  0.1200E+00
     31.744  0.7591E-04  0.1200E+00
     31.903  0.3793E-04  0.1200E+00
     32.063  0.1253E-04  0.1200E+00
     32.222  0.8481E-06  0.1200E+00
     32.382  0.0000E+00  0.1200E+00
     32.541  0.0000E+00  0.1200E+00
     32.701  0.0000E+00  0.1200E+00
     32.860  0.0000E+00  0.1200E+00
     33.020  0.0000E+00  0.1200E+00
     33.179  0.0000E+00  0.1200E+00
     33.339  0.0000E+00  0.1200E+00
     33.499  0.0000E+00  0.1200E+00
     33.658  0.0000E+00  0.1200E+00
     33.818  0.0000E+00  0.1200E+00
     33.977  0.0000E+00  0.1200E+00
     34.137  0.0000E+00  0.1200E+00
     34.296  0.0000E+00  0.1200E+00
     34.456  0.0000E+00  0.1200E+00
