    4    4  200    1
  0.3988355E+01  0.2467155E-09  0.2467155E-09  0.3026584E-09  0.5000000E-15
  1.000000000000000E-004
  CAR 
 graphite                                
     16    455     12
 
  0.0000000E+00  0.0000000E+00  0.0000000E+00  0.3858025E-03
    1      -11.225008
    2        0.057039
    3        3.325072
    4        8.757671
    5        8.762836
    6       12.289250
    7       12.291222
    8       20.193410
    9       20.765360
   10       22.125113
   11       22.125272
   12       23.183840
 
  0.5555556E-01  0.1040834E-16  0.0000000E+00  0.1543210E-02
    1      -11.146175
    2        0.141473
    3        3.378649
    4        8.221993
    5        8.445484
    6       12.331275
    7       12.499748
    8       19.954750
    9       20.892705
   10       21.852732
   11       22.134877
   12       23.029776
 
  0.1111111E+00  0.2081668E-16  0.0000000E+00  0.1543210E-02
    1      -10.909950
    2        0.393298
    3        3.537671
    4        6.913381
    5        7.731377
    6       12.268682
    7       12.872043
    8       19.273377
    9       20.330988
   10       22.279476
   11       22.357935
   12       22.577956
 
  0.1666667E+00  0.1387779E-16  0.0000000E+00  0.1543210E-02
    1      -10.517198
    2        0.807785
    3        3.791146
    4        5.262615
    5        6.909622
    6       11.963565
    7       13.083671
    8       18.218868
    9       19.265902
   10       21.910659
   11       23.057979
   12       23.455648
 
  0.2222222E+00  0.5551115E-16  0.0000000E+00  0.1543210E-02
    1       -9.969450
    2        1.375403
    3        3.391088
    4        4.242264
    5        6.123965
    6       11.449365
    7       13.055767
    8       16.874560
    9       18.212559
   10       21.182029
   11       24.289083
   12       24.898007
 
  0.2777778E+00  0.5551115E-16  0.0000000E+00  0.1543210E-02
    1       -9.269414
    2        1.624024
    3        2.078586
    4        4.678511
    5        5.438348
    6       10.787480
    7       12.868697
    8       15.356439
    9       17.291688
   10       20.519015
   11       25.942070
   12       26.495776
 
  0.3333333E+00  0.2775558E-16  0.0000000E+00  0.1543210E-02
    1       -8.423033
    2       -0.117710
    3        2.882306
    4        4.884631
    5        5.238513
    6       10.027707
    7       12.628970
    8       13.807497
    9       16.555786
   10       19.982126
   11       27.854180
   12       28.197674
 
  0.3888889E+00  0.8326673E-16  0.0000000E+00  0.1543210E-02
    1       -7.441419
    2       -1.759585
    3        3.714484
    4        4.480025
    5        5.880901
    6        9.215742
    7       12.387360
    8       12.413673
    9       16.027659
   10       19.592487
   11       29.783579
   12       29.832666
 
  0.4444444E+00  0.1110223E-15  0.0000000E+00  0.1543210E-02
    1       -6.371706
    2       -3.231437
    3        4.233715
    4        4.419145
    5        6.571674
    6        8.412132
    7       11.309634
    8       12.269175
    9       15.712223
   10       19.357083
   11       30.242470
   12       31.567728
 
  0.5000000E+00  0.5551115E-16  0.0000000E+00  0.7716049E-03
    1       -5.630795
    2       -4.107503
    3        4.151266
    4        4.716807
    5        7.054112
    6        7.889762
    7       10.884364
    8       12.218709
    9       15.607645
   10       19.278376
   11       30.332616
   12       31.860954
 
  0.5555556E-01  0.5555556E-01  0.0000000E+00  0.7716049E-03
    1      -10.988639
    2        0.309580
    3        3.484968
    4        7.389954
    5        7.844838
    6       12.412552
    7       12.692597
    8       19.499639
    9       20.914267
   10       21.286029
   11       22.692151
   12       22.717973
 
  0.1111111E+00  0.5555556E-01  0.0000000E+00  0.1543210E-02
    1      -10.674101
    2        0.642859
    3        3.693713
    4        6.019441
    5        6.978988
    6       12.301733
    7       12.896367
    8       18.655500
    9       20.108473
   10       21.473867
   11       22.113924
   12       23.846862
 
  0.1666667E+00  0.5555556E-01  0.0000000E+00  0.1543210E-02
    1      -10.203845
    2        1.134297
    3        3.939641
    4        4.412432
    5        6.140067
    6       11.890229
    7       12.961293
    8       17.494440
    9       19.052673
   10       21.342464
   11       22.369267
   12       25.315078
 
  0.2222222E+00  0.5555556E-01  0.0000000E+00  0.1543210E-02
    1       -9.579835
    2        1.770850
    3        2.533696
    4        4.448932
    5        5.409455
    6       11.279131
    7       12.837797
    8       16.097824
    9       18.088694
   10       20.575141
   11       23.736588
   12       26.965352
 
  0.2777778E+00  0.5555556E-01  0.0000000E+00  0.1543210E-02
    1       -8.806161
    2        0.778671
    3        2.527456
    4        4.653043
    5        5.094821
    6       10.539008
    7       12.613682
    8       14.585141
    9       17.286762
   10       19.922020
   11       25.441307
   12       28.711150
 
  0.3333333E+00  0.5555556E-01  0.0000000E+00  0.1543210E-02
    1       -7.890662
    2       -0.909873
    3        3.354380
    4        4.244428
    5        5.632918
    6        9.723121
    7       12.380131
    8       13.105840
    9       16.678390
   10       19.423970
   11       27.344570
   12       30.025852
 
  0.3888889E+00  0.5555556E-01  0.0000000E+00  0.1543210E-02
    1       -6.855039
    2       -2.474401
    3        3.928894
    4        4.145095
    5        6.305373
    6        8.882214
    7       11.842178
    8       12.197276
    9       16.273664
   10       19.090849
   11       29.287415
   12       30.430143
 
  0.4444444E+00  0.5555556E-01  0.0000000E+00  0.1543210E-02
    1       -5.825108
    2       -3.771439
    3        3.767515
    4        4.680786
    5        6.990428
    6        8.109258
    7       11.059387
    8       12.098742
    9       16.072497
   10       18.924269
   11       30.413310
   12       31.233920
 
  0.5000000E+00  0.5555556E-01  0.0000000E+00  0.1543210E-02
    1       -5.825250
    2       -3.771281
    3        3.767429
    4        4.680765
    5        6.990226
    6        8.109549
    7       11.059381
    8       12.098712
    9       16.072556
   10       18.924254
   11       30.413072
   12       31.239831
 
 -0.4444444E+00  0.5555556E-01  0.0000000E+00  0.1543210E-02
    1       -6.855220
    2       -2.474172
    3        3.928634
    4        4.145043
    5        6.305176
    6        8.882691
    7       11.842144
    8       12.197187
    9       16.273835
   10       19.090813
   11       29.292933
   12       30.432172
 
 -0.3888889E+00  0.5555556E-01  0.0000000E+00  0.1543210E-02
    1       -7.890828
    2       -0.909639
    3        3.354315
    4        4.243986
    5        5.632791
    6        9.723761
    7       12.379988
    8       13.105741
    9       16.678649
   10       19.423936
   11       27.350874
   12       30.026649
 
 -0.3333333E+00  0.5555556E-01  0.0000000E+00  0.1543210E-02
    1       -8.806305
    2        0.778879
    3        2.527390
    4        4.652365
    5        5.094843
    6       10.539849
    7       12.613500
    8       14.584936
    9       17.287072
   10       19.922026
   11       25.447236
   12       28.706133
 
 -0.2777778E+00  0.5555556E-01  0.0000000E+00  0.1543210E-02
    1       -9.579954
    2        1.770789
    3        2.533825
    4        4.448642
    5        5.409057
    6       11.280207
    7       12.837610
    8       16.097476
    9       18.089008
   10       20.575232
   11       23.741814
   12       26.960201
 
 -0.2222222E+00  0.5555556E-01  0.0000000E+00  0.1543210E-02
    1      -10.203938
    2        1.134246
    3        3.939634
    4        4.412127
    5        6.139737
    6       11.891523
    7       12.961159
    8       17.493949
    9       19.052945
   10       21.342657
   11       22.373636
   12       25.310417
 
 -0.1666667E+00  0.5555556E-01  0.0000000E+00  0.1543210E-02
    1      -10.674168
    2        0.642821
    3        3.693641
    4        6.018479
    5        6.979383
    6       12.303014
    7       12.896421
    8       18.654951
    9       20.108722
   10       21.477265
   11       22.114175
   12       23.842790
 
 -0.1111111E+00  0.5555556E-01  0.0000000E+00  0.1543210E-02
    1      -10.988679
    2        0.309557
    3        3.484924
    4        7.386952
    5        7.847454
    6       12.412568
    7       12.693678
    8       19.499190
    9       20.916717
   10       21.286111
   11       22.688947
   12       22.718191
 
 -0.5555556E-01  0.5555556E-01  0.0000000E+00  0.7716049E-03
    1      -11.146189
    2        0.141465
    3        3.378634
    4        8.218281
    5        8.449126
    6       12.329852
    7       12.501541
    8       19.954574
    9       20.894103
   10       21.851424
   11       22.134396
   12       23.029864
 
  0.1111111E+00  0.1111111E+00  0.0000000E+00  0.7716049E-03
    1      -10.282078
    2        1.053283
    3        3.941190
    4        4.882137
    5        5.869762
    6       12.309982
    7       12.705813
    8       17.746505
    9       20.412558
   10       20.565307
   11       21.331094
   12       25.588575
 
  0.1666667E+00  0.1111111E+00  0.0000000E+00  0.1543210E-02
    1       -9.735427
    2        1.614789
    3        3.384536
    4        4.233252
    5        4.991372
    6       11.886172
    7       12.547061
    8       16.606269
    9       19.536426
   10       20.396458
   11       21.488466
   12       27.407975
 
  0.2222222E+00  0.1111111E+00  0.0000000E+00  0.1543210E-02
    1       -9.037421
    2        1.718845
    3        2.308296
    4        3.988300
    5        4.961499
    6       11.186697
    7       12.347252
    8       15.284702
    9       18.723850
   10       19.519469
   11       22.961271
   12       29.170102
 
  0.2777778E+00  0.1111111E+00  0.0000000E+00  0.1543210E-02
    1       -8.193326
    2        0.036595
    3        3.098471
    4        3.472706
    5        5.478024
    6       10.365930
    7       12.110372
    8       13.883023
    9       18.078354
   10       18.819084
   11       24.762722
   12       30.301799
 
  0.3333333E+00  0.1111111E+00  0.0000000E+00  0.1543210E-02
    1       -7.216474
    2       -1.571111
    3        3.078293
    4        3.911720
    5        6.123204
    6        9.493363
    7       11.899715
    8       12.562206
    9       17.615803
   10       18.324888
   11       26.755715
   12       30.749744
 
  0.3888889E+00  0.1111111E+00  0.0000000E+00  0.1543210E-02
    1       -6.154508
    2       -3.021513
    3        2.837561
    4        4.593743
    5        6.842504
    6        8.627055
    7       11.548188
    8       11.758483
    9       17.339169
   10       18.033047
   11       28.786638
   12       30.916382
 
  0.4444444E+00  0.1111111E+00  0.0000000E+00  0.1543210E-02
    1       -5.425703
    2       -3.881021
    3        2.756914
    4        4.878935
    5        7.410605
    6        8.007865
    7       11.147710
    8       11.708941
    9       17.247296
   10       17.936606
   11       30.354164
   12       30.560665
 
  0.5000000E+00  0.1111111E+00  0.0000000E+00  0.1543210E-02
    1       -6.154859
    2       -3.021104
    3        2.837319
    4        4.593672
    5        6.842047
    6        8.627799
    7       11.548111
    8       11.758363
    9       17.339389
   10       18.033074
   11       28.792526
   12       30.917757
 
 -0.4444444E+00  0.1111111E+00  0.0000000E+00  0.1543210E-02
    1       -7.216822
    2       -1.570666
    3        3.077825
    4        3.911608
    5        6.122832
    6        9.494335
    7       11.899485
    8       12.561991
    9       17.616218
   10       18.324981
   11       26.762129
   12       30.751204
 
 -0.3888889E+00  0.1111111E+00  0.0000000E+00  0.1543210E-02
    1       -8.193636
    2        0.036986
    3        3.098345
    4        3.472051
    5        5.477760
    6       10.367166
    7       12.110055
    8       13.882579
    9       18.078916
   10       18.819313
   11       24.768858
   12       30.303058
 
 -0.3333333E+00  0.1111111E+00  0.0000000E+00  0.1543210E-02
    1       -9.037683
    2        1.719039
    3        2.308174
    4        3.987541
    5        4.961402
    6       11.188246
    7       12.346903
    8       15.283946
    9       18.724485
   10       19.519915
   11       22.966800
   12       29.166886
 
 -0.2777778E+00  0.1111111E+00  0.0000000E+00  0.1543210E-02
    1       -9.735639
    2        1.614681
    3        3.384171
    4        4.232619
    5        4.991598
    6       11.887976
    7       12.546845
    8       16.605197
    9       19.537028
   10       20.397142
   11       21.493177
   12       27.403351
 
 -0.2222222E+00  0.1111111E+00  0.0000000E+00  0.1543210E-02
    1      -10.282237
    2        1.053196
    3        3.941011
    4        4.880016
    5        5.871280
    6       12.311052
    7       12.706697
    8       17.745263
    9       20.413866
   10       20.568221
   11       21.331908
   12       25.584089
 
 -0.1666667E+00  0.1111111E+00  0.0000000E+00  0.1543210E-02
    1      -10.674208
    2        0.642799
    3        3.693585
    4        6.016148
    5        6.981840
    6       12.301449
    7       12.898548
    8       18.654360
    9       20.111244
   10       21.474233
   11       22.114679
   12       23.842885
 
 -0.1111111E+00  0.1111111E+00  0.0000000E+00  0.7716049E-03
    1      -10.910004
    2        0.393268
    3        3.537608
    4        6.909949
    5        7.734729
    6       12.267414
    7       12.874382
    8       19.272667
    9       20.333403
   10       22.277466
   11       22.356720
   12       22.578433
 
  0.1666667E+00  0.1666667E+00  0.0000000E+00  0.7716049E-03
    1       -9.114713
    2        2.234277
    3        2.345186
    4        3.433338
    5        4.904719
    6       11.683251
    7       11.991558
    8       15.598077
    9       19.278515
   10       20.539370
   11       20.810125
   12       29.327684
 
  0.2222222E+00  0.1666667E+00  0.0000000E+00  0.1543210E-02
    1       -8.345672
    2        0.954684
    3        2.580654
    4        2.966093
    5        5.389694
    6       11.015297
    7       11.660276
    8       14.476993
    9       18.245609
   10       20.001694
   11       22.283894
   12       30.604906
 
  0.2777778E+00  0.1666667E+00  0.0000000E+00  0.1543210E-02
    1       -7.437516
    2       -0.589717
    3        2.032034
    4        3.757425
    5        5.998890
    6       10.158398
    7       11.424757
    8       13.301127
    9       17.457180
   10       19.500125
   11       24.191918
   12       31.186197
 
  0.3333333E+00  0.1666667E+00  0.0000000E+00  0.1543210E-02
    1       -6.414511
    2       -2.083279
    3        1.686878
    4        4.501034
    5        6.697878
    6        9.266847
    7       11.247387
    8       12.240090
    9       16.949509
   10       19.163420
   11       26.279670
   12       31.245226
 
  0.3888889E+00  0.1666667E+00  0.0000000E+00  0.1543210E-02
    1       -5.408917
    2       -3.333712
    3        1.517561
    4        4.993122
    5        7.447196
    6        8.414417
    7       11.152234
    8       11.569044
    9       16.704225
   10       18.995084
   11       28.369340
   12       30.395370
 
  0.4444444E+00  0.1666667E+00  0.0000000E+00  0.1543210E-02
    1       -5.409319
    2       -3.333280
    3        1.517450
    4        4.993076
    5        7.446503
    6        8.415285
    7       11.152149
    8       11.568922
    9       16.704337
   10       18.995233
   11       28.375000
   12       30.391997
 
  0.5000000E+00  0.1666667E+00  0.0000000E+00  0.1543210E-02
    1       -6.415041
    2       -2.082683
    3        1.686571
    4        4.500913
    5        6.697242
    6        9.268018
    7       11.247138
    8       12.239667
    9       16.949885
   10       19.163854
   11       26.286072
   12       31.245510
 
 -0.4444444E+00  0.1666667E+00  0.0000000E+00  0.1543210E-02
    1       -7.438007
    2       -0.589238
    3        2.031640
    4        3.757264
    5        5.998382
    6       10.159833
    7       11.424371
    8       13.300278
    9       17.457918
   10       19.500811
   11       24.198122
   12       31.187870
 
 -0.3888889E+00  0.1666667E+00  0.0000000E+00  0.1543210E-02
    1       -8.346099
    2        0.954652
    3        2.580534
    4        2.965922
    5        5.389324
    6       11.016994
    7       11.659852
    8       14.475626
    9       18.246785
   10       20.002576
   11       22.289568
   12       30.606503
 
 -0.3333333E+00  0.1666667E+00  0.0000000E+00  0.1543210E-02
    1       -9.115067
    2        2.234116
    3        2.343746
    4        3.434305
    5        4.904587
    6       11.684159
    7       11.992275
    8       15.596266
    9       19.280054
   10       20.542302
   11       20.813082
   12       29.325233
 
 -0.2777778E+00  0.1666667E+00  0.0000000E+00  0.1543210E-02
    1       -9.735705
    2        1.614652
    3        3.382005
    4        4.233361
    5        4.993181
    6       11.886034
    7       12.549245
    8       16.604254
    9       19.540388
   10       20.398147
   11       21.489397
   12       27.403501
 
 -0.2222222E+00  0.1666667E+00  0.0000000E+00  0.1543210E-02
    1      -10.204044
    2        1.134193
    3        3.938891
    4        4.410064
    5        6.142753
    6       11.889785
    7       12.963930
    8       17.492507
    9       19.055695
   10       21.344072
   11       22.369959
   12       25.310829
 
 -0.1666667E+00  0.1666667E+00  0.0000000E+00  0.7716049E-03
    1      -10.517317
    2        0.807720
    3        3.790955
    4        5.259574
    5        6.912795
    6       11.962432
    7       13.086422
    8       18.217374
    9       19.268374
   10       21.911914
   11       23.056160
   12       23.454194
 
  0.2222222E+00  0.2222222E+00  0.0000000E+00  0.7716049E-03
    1       -7.511646
    2        0.090139
    3        1.316198
    4        3.703707
    5        5.954877
    6       10.737968
    7       10.907468
    8       13.670328
    9       17.029340
   10       21.671867
   11       21.801939
   12       31.403926
 
  0.2777778E+00  0.2222222E+00  0.0000000E+00  0.1543210E-02
    1       -6.551272
    2       -1.120547
    3        0.591583
    4        4.443676
    5        6.614970
    6        9.946252
    7       10.627676
    8       12.871034
    9       16.091141
   10       21.347152
   11       23.755502
   12       31.402477
 
  0.3333333E+00  0.2222222E+00  0.0000000E+00  0.1543210E-02
    1       -5.520874
    2       -2.422128
    3        0.260993
    4        5.040880
    5        7.353086
    6        9.069738
    7       10.490220
    8       12.204959
    9       15.534256
   10       21.112450
   11       25.933639
   12       30.246455
 
  0.3888889E+00  0.2222222E+00  0.0000000E+00  0.1543210E-02
    1       -4.840739
    2       -3.205076
    3        0.160678
    4        5.281546
    5        8.011287
    6        8.362421
    7       10.442734
    8       11.931198
    9       15.354619
   10       21.034091
   11       27.802395
   12       28.611380
 
  0.4444444E+00  0.2222222E+00  0.0000000E+00  0.1543210E-02
    1       -5.521530
    2       -2.421520
    3        0.260933
    4        5.040800
    5        7.352166
    6        9.071064
    7       10.490015
    8       12.204195
    9       15.535025
   10       21.112786
   11       25.939950
   12       30.242092
 
  0.5000000E+00  0.2222222E+00  0.0000000E+00  0.1543210E-02
    1       -6.551945
    2       -1.120256
    3        0.591746
    4        4.443530
    5        6.614204
    6        9.947841
    7       10.627289
    8       12.869479
    9       16.092693
   10       21.347810
   11       23.761703
   12       31.401663
 
 -0.4444444E+00  0.2222222E+00  0.0000000E+00  0.1543210E-02
    1       -7.512251
    2        0.089237
    3        1.317376
    4        3.703523
    5        5.954270
    6       10.738677
    7       10.908109
    8       13.668127
    9       17.031513
   10       21.675687
   11       21.804826
   12       31.405891
 
 -0.3888889E+00  0.2222222E+00  0.0000000E+00  0.1543210E-02
    1       -8.346188
    2        0.952841
    3        2.582566
    4        2.965901
    5        5.389265
    6       11.014806
    7       11.662375
    8       14.474448
    9       18.248090
   10       20.006899
   11       22.284949
   12       30.606973
 
 -0.3333333E+00  0.2222222E+00  0.0000000E+00  0.1543210E-02
    1       -9.037840
    2        1.716615
    3        2.308119
    4        3.990187
    5        4.961500
    6       11.186161
    7       12.349749
    8       15.282055
    9       18.728220
   10       19.522020
   11       22.962380
   12       29.166934
 
 -0.2777778E+00  0.2222222E+00  0.0000000E+00  0.1543210E-02
    1       -9.580151
    2        1.770704
    3        2.531161
    4        4.448679
    5        5.412056
    6       11.278505
    7       12.840609
    8       16.095254
    9       18.092154
   10       20.577612
   11       23.737509
   12       26.960888
 
 -0.2222222E+00  0.2222222E+00  0.0000000E+00  0.7716049E-03
    1       -9.969662
    2        1.375300
    3        3.388376
    4        4.241998
    5        6.127053
    6       11.448266
    7       13.058731
    8       16.872314
    9       18.215392
   10       21.184207
   11       24.286756
   12       24.896969
 
  0.2777778E+00  0.2777778E+00  0.0000000E+00  0.7716049E-03
    1       -5.570497
    2       -1.701621
    3       -0.569073
    4        5.052339
    5        7.314367
    6        9.776903
    7        9.782431
    8       12.613593
    9       14.942009
   10       23.374018
   11       23.553600
   12       30.191878
 
  0.3333333E+00  0.2777778E+00  0.0000000E+00  0.1543210E-02
    1       -4.657221
    2       -2.510004
    3       -1.064895
    4        5.427633
    5        8.075231
    6        8.936400
    7        9.689091
    8       12.519931
    9       14.246213
   10       23.305120
   11       25.728825
   12       28.141798
 
  0.3888889E+00  0.2777778E+00  0.0000000E+00  0.1543210E-02
    1       -4.657748
    2       -2.509781
    3       -1.064612
    4        5.427613
    5        8.074036
    6        8.937818
    7        9.688979
    8       12.518699
    9       14.247452
   10       23.305279
   11       25.734919
   12       28.135991
 
  0.4444444E+00  0.2777778E+00  0.0000000E+00  0.1543210E-02
    1       -5.571300
    2       -1.702232
    3       -0.567729
    4        5.052267
    5        7.313326
    6        9.777481
    7        9.783243
    8       12.610959
    9       14.944679
   10       23.376633
   11       23.557645
   12       30.187221
 
  0.5000000E+00  0.2777778E+00  0.0000000E+00  0.1543210E-02
    1       -6.552051
    2       -1.121859
    3        0.593556
    4        4.443544
    5        6.614118
    6        9.945740
    7       10.629668
    8       12.868038
    9       16.094215
   10       21.352937
   11       23.756350
   12       31.401585
 
 -0.4444444E+00  0.2777778E+00  0.0000000E+00  0.1543210E-02
    1       -7.438206
    2       -0.591328
    3        2.034170
    4        3.757252
    5        5.998230
    6       10.157749
    7       11.427053
    8       13.298086
    9       17.460336
   10       19.505433
   11       24.192981
   12       31.188749
 
 -0.3888889E+00  0.2777778E+00  0.0000000E+00  0.1543210E-02
    1       -8.193904
    2        0.034699
    3        3.098287
    4        3.474966
    5        5.477589
    6       10.365212
    7       12.112980
    8       13.880008
    9       18.083004
   10       18.822244
   11       24.763907
   12       30.304107
 
 -0.3333333E+00  0.2777778E+00  0.0000000E+00  0.1543210E-02
    1       -8.806616
    2        0.776480
    3        2.527288
    4        4.654884
    5        5.095247
    6       10.538206
    7       12.616563
    8       14.582198
    9       17.290648
   10       19.925138
   11       25.442392
   12       28.706632
 
 -0.2777778E+00  0.2777778E+00  0.0000000E+00  0.7716049E-03
    1       -9.269742
    2        1.621551
    3        2.078452
    4        4.678237
    5        5.441404
    6       10.786339
    7       12.871741
    8       15.353688
    9       17.294980
   10       20.521958
   11       25.939308
   12       26.494952
 
  0.3333333E+00  0.3333333E+00  0.0000000E+00  0.7716049E-03
    1       -4.233569
    2       -2.093146
    3       -2.091139
    4        5.568873
    5        8.794583
    6        8.795406
    7        9.034796
    8       13.209774
    9       13.213825
   10       25.173711
   11       25.954804
   12       25.959645
 
  0.3888889E+00  0.3333333E+00  0.0000000E+00  0.1543210E-02
    1       -4.657869
    2       -2.511328
    3       -1.062902
    4        5.427648
    5        8.073951
    6        8.936079
    7        9.690953
    8       12.516452
    9       14.249708
   10       23.310953
   11       25.729295
   12       28.135918
 
  0.4444444E+00  0.3333333E+00  0.0000000E+00  0.1543210E-02
    1       -5.521737
    2       -2.423364
    3        0.263131
    4        5.040866
    5        7.351994
    6        9.069243
    7       10.492347
    8       12.201562
    9       15.537737
   10       21.118129
   11       25.934299
   12       30.241890
 
  0.5000000E+00  0.3333333E+00  0.0000000E+00  0.1543210E-02
    1       -6.415352
    2       -2.084662
    3        1.689156
    4        4.500960
    5        6.696997
    6        9.266183
    7       11.249791
    8       12.236792
    9       16.952995
   10       19.168726
   11       26.280555
   12       31.245634
 
 -0.4444444E+00  0.3333333E+00  0.0000000E+00  0.1543210E-02
    1       -7.217214
    2       -1.572728
    3        3.080728
    4        3.911597
    5        6.122540
    6        9.492569
    7       11.902396
    8       12.558992
    9       17.620605
   10       18.328402
   11       26.756761
   12       30.752726
 
 -0.3888889E+00  0.3333333E+00  0.0000000E+00  0.1543210E-02
    1       -7.891270
    2       -0.911757
    3        3.354236
    4        4.247073
    5        5.632474
    6        9.722198
    7       12.383052
    8       13.102698
    9       16.682602
   10       19.427506
   11       27.345608
   12       30.027556
 
 -0.3333333E+00  0.3333333E+00  0.0000000E+00  0.7716049E-03
    1       -8.423496
    2       -0.119868
    3        2.882172
    4        4.887681
    5        5.238121
    6       10.026511
    7       12.632035
    8       13.804465
    9       16.559510
   10       19.985590
   11       27.850963
   12       28.196785
 
  0.3888889E+00  0.3888889E+00  0.0000000E+00  0.7716049E-03
    1       -4.841192
    2       -3.206707
    3        0.162891
    4        5.281628
    5        8.010703
    6        8.361218
    7       10.444972
    8       11.927904
    9       15.357968
   10       21.039621
   11       27.799954
   12       28.608384
 
  0.4444444E+00  0.3888889E+00  0.0000000E+00  0.1543210E-02
    1       -5.409713
    2       -3.335121
    3        1.519969
    4        4.993196
    5        7.446200
    6        8.413679
    7       11.154733
    8       11.565638
    9       16.707793
   10       19.000307
   11       28.369606
   12       30.391514
 
  0.5000000E+00  0.3888889E+00  0.0000000E+00  0.1543210E-02
    1       -6.155353
    2       -3.022970
    3        2.840144
    4        4.593763
    5        6.841678
    6        8.626217
    7       11.544816
    8       11.761230
    9       17.344006
   10       18.036740
   11       28.787071
   12       30.918575
 
 -0.4444444E+00  0.3888889E+00  0.0000000E+00  0.1543210E-02
    1       -6.855791
    2       -2.476047
    3        3.931686
    4        4.145055
    5        6.304740
    6        8.881225
    7       11.838877
    8       12.200229
    9       16.278071
   10       19.094633
   11       29.287695
   12       30.433618
 
 -0.3888889E+00  0.3888889E+00  0.0000000E+00  0.7716049E-03
    1       -7.442026
    2       -1.761467
    3        3.714410
    4        4.483080
    5        5.880392
    6        9.214520
    7       12.384148
    8       12.416742
    9       16.031714
   10       19.596270
   11       29.782898
   12       29.828810
 
  0.4444444E+00  0.4444444E+00  0.0000000E+00  0.7716049E-03
    1       -5.426297
    2       -3.882733
    3        2.759628
    4        4.879075
    5        7.410126
    6        8.006523
    7       11.144264
    8       11.711751
    9       17.252067
   10       17.940348
   11       30.351279
   12       30.560097
 
  0.5000000E+00  0.4444444E+00  0.0000000E+00  0.1543210E-02
    1       -5.825868
    2       -3.773040
    3        3.770410
    4        4.680900
    5        6.989789
    6        8.108125
    7       11.055931
    8       12.101725
    9       16.076965
   10       18.928175
   11       30.414377
   12       31.234558
 
 -0.4444444E+00  0.4444444E+00  0.0000000E+00  0.7716049E-03
    1       -6.372421
    2       -3.233130
    3        4.236775
    4        4.419206
    5        6.571098
    6        8.410892
    7       11.306243
    8       12.272242
    9       15.716479
   10       19.361037
   11       30.244323
   12       31.562770
 
  0.5000000E+00  0.5000000E+00  0.0000000E+00  0.3858025E-03
    1       -5.631437
    2       -4.109242
    3        4.154328
    4        4.716963
    5        7.053660
    6        7.888370
    7       10.880868
    8       12.221776
    9       15.611966
   10       19.282383
   11       30.334723
   12       31.860640
 