mesh: [     9,     9,     4 ]
nqpoint: 50     
reciprocal_lattice:
- [   0.40533564,   0.23404500,   0.00000000 ] # a*
- [   0.00002110,   0.46805346,   0.00000000 ] # b*
- [   0.00000000,   0.00000000,   0.33040550 ] # c*
natom:   4      
lattice:
- [     2.467155442383188,    -0.000111200019553,     0.000000000000000 ] # a
- [    -1.233674023183305,     2.136563688137034,     0.000000000000000 ] # b
- [     0.000000000000000,     0.000000000000000,     3.026584039000000 ] # c
points:
- symbol: C  # 1
  coordinates: [  0.999999697166835,  0.000000349172772,  0.250000000000000 ]
  mass: 12.010700
- symbol: C  # 2
  coordinates: [  0.000000349172772,  0.999999697166835,  0.750000000000000 ]
  mass: 12.010700
- symbol: C  # 3
  coordinates: [  0.333298929956719,  0.666701052703672,  0.250000000000000 ]
  mass: 12.010700
- symbol: C  # 4
  coordinates: [  0.666701052703672,  0.333298929956719,  0.750000000000000 ]
  mass: 12.010700
phonon:
- q-position: [    0.0000000,    0.0000000,    0.1250000 ]
  weight: 2    
  band:
  - # 1
    frequency:    -4.8647750935
  - # 2
    frequency:    -4.3069074971
  - # 3
    frequency:     1.2270493131
  - # 4
    frequency:     1.3160093959
  - # 5
    frequency:     5.1454905941
  - # 6
    frequency:     7.9263348676
  - # 7
    frequency:    25.7823444514
  - # 8
    frequency:    28.2748685809
  - # 9
    frequency:    41.7638684354
  - # 10
    frequency:    41.9730435618
  - # 11
    frequency:    44.2700904100
  - # 12
    frequency:    44.4957587530

- q-position: [    0.1111111,    0.0000000,    0.1250000 ]
  weight: 8    
  band:
  - # 1
    frequency:     2.2491222310
  - # 2
    frequency:     4.1958776614
  - # 3
    frequency:     5.1591269306
  - # 4
    frequency:     6.9987004888
  - # 5
    frequency:     8.4047011811
  - # 6
    frequency:    10.5741364076
  - # 7
    frequency:    25.4015471365
  - # 8
    frequency:    28.1492809376
  - # 9
    frequency:    41.0549182793
  - # 10
    frequency:    41.4531365399
  - # 11
    frequency:    43.6924228712
  - # 12
    frequency:    43.8813035657

- q-position: [    0.2222222,    0.0000000,    0.1250000 ]
  weight: 8    
  band:
  - # 1
    frequency:     7.4893965375
  - # 2
    frequency:     8.0123877703
  - # 3
    frequency:     8.6040052752
  - # 4
    frequency:     9.9436797771
  - # 5
    frequency:    16.2153634451
  - # 6
    frequency:    18.8866914997
  - # 7
    frequency:    24.4263133590
  - # 8
    frequency:    27.6773926504
  - # 9
    frequency:    38.7647813517
  - # 10
    frequency:    40.3112245458
  - # 11
    frequency:    42.0208895028
  - # 12
    frequency:    42.1808809462

- q-position: [    0.3333333,    0.0000000,    0.1250000 ]
  weight: 8    
  band:
  - # 1
    frequency:     7.7813302696
  - # 2
    frequency:    11.6419718342
  - # 3
    frequency:    12.7693999116
  - # 4
    frequency:    13.6632645816
  - # 5
    frequency:    23.0435390949
  - # 6
    frequency:    23.9120801242
  - # 7
    frequency:    25.5810736635
  - # 8
    frequency:    27.1677395386
  - # 9
    frequency:    35.7458108774
  - # 10
    frequency:    38.3840061286
  - # 11
    frequency:    39.3236795269
  - # 12
    frequency:    39.9986815219

- q-position: [    0.4444444,    0.0000000,    0.1250000 ]
  weight: 8    
  band:
  - # 1
    frequency:     8.2651944740
  - # 2
    frequency:    14.1662971751
  - # 3
    frequency:    15.1957735032
  - # 4
    frequency:    15.9381606817
  - # 5
    frequency:    22.8229201382
  - # 6
    frequency:    25.0899268042
  - # 7
    frequency:    30.0907884369
  - # 8
    frequency:    31.5919198323
  - # 9
    frequency:    33.3710905567
  - # 10
    frequency:    35.2121896402
  - # 11
    frequency:    36.0202326169
  - # 12
    frequency:    38.3828963519

- q-position: [    0.1111111,    0.1111111,    0.1250000 ]
  weight: 4    
  band:
  - # 1
    frequency:     6.7192527718
  - # 2
    frequency:     7.4048802328
  - # 3
    frequency:     8.2099382886
  - # 4
    frequency:     9.6579275774
  - # 5
    frequency:    14.9394128134
  - # 6
    frequency:    15.8801566623
  - # 7
    frequency:    24.7173502367
  - # 8
    frequency:    27.8877747681
  - # 9
    frequency:    39.6030770888
  - # 10
    frequency:    40.2576481464
  - # 11
    frequency:    42.6632273104
  - # 12
    frequency:    42.7119068862

- q-position: [    0.2222222,    0.1111111,    0.1250000 ]
  weight: 8    
  band:
  - # 1
    frequency:     6.9268619331
  - # 2
    frequency:    11.7505571508
  - # 3
    frequency:    12.4260078137
  - # 4
    frequency:    13.5108131825
  - # 5
    frequency:    21.2893851014
  - # 6
    frequency:    22.8101197214
  - # 7
    frequency:    23.6845293858
  - # 8
    frequency:    27.2250375320
  - # 9
    frequency:    37.0401203811
  - # 10
    frequency:    38.4724369334
  - # 11
    frequency:    40.4935374164
  - # 12
    frequency:    40.7457303432

- q-position: [    0.3333333,    0.1111111,    0.1250000 ]
  weight: 8    
  band:
  - # 1
    frequency:     8.0160083162
  - # 2
    frequency:    14.8394129084
  - # 3
    frequency:    15.5874817565
  - # 4
    frequency:    16.5377515200
  - # 5
    frequency:    22.7613637207
  - # 6
    frequency:    25.4251123837
  - # 7
    frequency:    27.3088978311
  - # 8
    frequency:    29.0265146203
  - # 9
    frequency:    34.3686438585
  - # 10
    frequency:    36.2538558575
  - # 11
    frequency:    37.2064156322
  - # 12
    frequency:    38.7839400065

- q-position: [   -0.5555556,    0.1111111,    0.1250000 ]
  weight: 8    
  band:
  - # 1
    frequency:     9.0371339948
  - # 2
    frequency:    15.8501022954
  - # 3
    frequency:    16.5186582346
  - # 4
    frequency:    17.6255809207
  - # 5
    frequency:    22.7990159545
  - # 6
    frequency:    24.5413084279
  - # 7
    frequency:    31.6600625320
  - # 8
    frequency:    31.9637571697
  - # 9
    frequency:    32.8162051721
  - # 10
    frequency:    33.4344217522
  - # 11
    frequency:    35.0477992311
  - # 12
    frequency:    37.9455644897

- q-position: [   -0.4444444,    0.1111111,    0.1250000 ]
  weight: 8    
  band:
  - # 1
    frequency:     9.0885631868
  - # 2
    frequency:    14.0813653062
  - # 3
    frequency:    14.8166692199
  - # 4
    frequency:    16.3185492971
  - # 5
    frequency:    22.7129165779
  - # 6
    frequency:    25.3292284763
  - # 7
    frequency:    27.0833070124
  - # 8
    frequency:    28.5571969726
  - # 9
    frequency:    34.6556612923
  - # 10
    frequency:    36.3356636409
  - # 11
    frequency:    37.6208429712
  - # 12
    frequency:    38.8558859062

- q-position: [   -0.3333333,    0.1111111,    0.1250000 ]
  weight: 8    
  band:
  - # 1
    frequency:     8.1109335484
  - # 2
    frequency:    10.3894497109
  - # 3
    frequency:    11.4889040879
  - # 4
    frequency:    13.1322134007
  - # 5
    frequency:    20.5940193184
  - # 6
    frequency:    22.5089371143
  - # 7
    frequency:    23.7260468121
  - # 8
    frequency:    27.0351014060
  - # 9
    frequency:    37.4367547601
  - # 10
    frequency:    39.0705998127
  - # 11
    frequency:    40.2419229443
  - # 12
    frequency:    40.8975034669

- q-position: [   -0.2222222,    0.1111111,    0.1250000 ]
  weight: 8    
  band:
  - # 1
    frequency:     2.0555060966
  - # 2
    frequency:     7.4272509029
  - # 3
    frequency:     8.3656212925
  - # 4
    frequency:     9.7686211346
  - # 5
    frequency:    13.8380391024
  - # 6
    frequency:    15.8903218166
  - # 7
    frequency:    24.7252237490
  - # 8
    frequency:    27.7728222862
  - # 9
    frequency:    39.9272245826
  - # 10
    frequency:    40.7602846501
  - # 11
    frequency:    42.2234340653
  - # 12
    frequency:    42.9396189489

- q-position: [   -0.1111111,    0.1111111,    0.1250000 ]
  weight: 4    
  band:
  - # 1
    frequency:    -6.0655747752
  - # 2
    frequency:     4.9830843746
  - # 3
    frequency:     6.7991425043
  - # 4
    frequency:     6.9042892734
  - # 5
    frequency:     8.8922171685
  - # 6
    frequency:     9.7229406821
  - # 7
    frequency:    25.3953049357
  - # 8
    frequency:    28.1195618940
  - # 9
    frequency:    41.2276790623
  - # 10
    frequency:    41.5960352555
  - # 11
    frequency:    43.4411243570
  - # 12
    frequency:    44.0322420583

- q-position: [    0.2222222,    0.2222222,    0.1250000 ]
  weight: 4    
  band:
  - # 1
    frequency:     8.0508616571
  - # 2
    frequency:    14.8851232265
  - # 3
    frequency:    16.9822494125
  - # 4
    frequency:    17.8284733139
  - # 5
    frequency:    22.7896136970
  - # 6
    frequency:    24.9553855417
  - # 7
    frequency:    26.5770066532
  - # 8
    frequency:    26.8202181055
  - # 9
    frequency:    35.5300770404
  - # 10
    frequency:    35.6818868040
  - # 11
    frequency:    37.7579497915
  - # 12
    frequency:    38.9668212526

- q-position: [    0.3333333,    0.2222222,    0.1250000 ]
  weight: 8    
  band:
  - # 1
    frequency:     9.8821878922
  - # 2
    frequency:    16.4018116096
  - # 3
    frequency:    19.8676600703
  - # 4
    frequency:    21.1334348633
  - # 5
    frequency:    22.6271495863
  - # 6
    frequency:    24.2086801260
  - # 7
    frequency:    29.0016738349
  - # 8
    frequency:    29.8914135943
  - # 9
    frequency:    32.5521575139
  - # 10
    frequency:    33.8819398715
  - # 11
    frequency:    35.4996779617
  - # 12
    frequency:    37.5861458277

- q-position: [   -0.5555556,    0.2222222,    0.1250000 ]
  weight: 8    
  band:
  - # 1
    frequency:    10.6603904144
  - # 2
    frequency:    16.1387252512
  - # 3
    frequency:    18.8634246206
  - # 4
    frequency:    21.1884566357
  - # 5
    frequency:    22.4726955058
  - # 6
    frequency:    24.1737034096
  - # 7
    frequency:    29.1866718119
  - # 8
    frequency:    29.4308843854
  - # 9
    frequency:    32.7582463918
  - # 10
    frequency:    33.3140325641
  - # 11
    frequency:    36.3876214859
  - # 12
    frequency:    37.5460661656

- q-position: [   -0.4444444,    0.2222222,    0.1250000 ]
  weight: 8    
  band:
  - # 1
    frequency:     9.7099516376
  - # 2
    frequency:    14.1565630500
  - # 3
    frequency:    14.7101327690
  - # 4
    frequency:    18.0066438631
  - # 5
    frequency:    22.7831782046
  - # 6
    frequency:    24.8087012361
  - # 7
    frequency:    25.4876140010
  - # 8
    frequency:    26.5891591411
  - # 9
    frequency:    35.6925648235
  - # 10
    frequency:    36.3254741531
  - # 11
    frequency:    38.0695324035
  - # 12
    frequency:    39.0469782072

- q-position: [   -0.3333333,    0.2222222,    0.1250000 ]
  weight: 8    
  band:
  - # 1
    frequency:     6.9485545778
  - # 2
    frequency:     9.1630701947
  - # 3
    frequency:    11.8923239703
  - # 4
    frequency:    14.0368158000
  - # 5
    frequency:    20.8830365948
  - # 6
    frequency:    21.6290079115
  - # 7
    frequency:    23.7375721524
  - # 8
    frequency:    26.9552771588
  - # 9
    frequency:    37.9080873322
  - # 10
    frequency:    38.7887963373
  - # 11
    frequency:    40.0736398234
  - # 12
    frequency:    41.0617779817

- q-position: [   -0.2222222,    0.2222222,    0.1250000 ]
  weight: 4    
  band:
  - # 1
    frequency:    -3.2920424304
  - # 2
    frequency:     6.7462885482
  - # 3
    frequency:    10.4407562041
  - # 4
    frequency:    11.0605686459
  - # 5
    frequency:    16.4914925614
  - # 6
    frequency:    17.3003867667
  - # 7
    frequency:    24.4729871244
  - # 8
    frequency:    27.5492395543
  - # 9
    frequency:    39.5024027787
  - # 10
    frequency:    40.3942833131
  - # 11
    frequency:    41.3774403956
  - # 12
    frequency:    42.5972550089

- q-position: [   -0.6666667,    0.3333333,    0.1250000 ]
  weight: 4    
  band:
  - # 1
    frequency:    11.3881131396
  - # 2
    frequency:    16.6759821888
  - # 3
    frequency:    22.7182353315
  - # 4
    frequency:    23.0500970172
  - # 5
    frequency:    23.0758785098
  - # 6
    frequency:    23.2657781596
  - # 7
    frequency:    29.4948971356
  - # 8
    frequency:    29.6164733393
  - # 9
    frequency:    30.6776482939
  - # 10
    frequency:    31.7081637140
  - # 11
    frequency:    36.5194541949
  - # 12
    frequency:    36.6084723246

- q-position: [   -0.5555556,    0.3333333,    0.1250000 ]
  weight: 8    
  band:
  - # 1
    frequency:    10.7814860580
  - # 2
    frequency:    16.1273838034
  - # 3
    frequency:    19.1169412302
  - # 4
    frequency:    20.8291433809
  - # 5
    frequency:    22.2923068888
  - # 6
    frequency:    24.2548627590
  - # 7
    frequency:    29.0312666048
  - # 8
    frequency:    29.5209922849
  - # 9
    frequency:    32.7179991092
  - # 10
    frequency:    33.2402891061
  - # 11
    frequency:    36.2558919927
  - # 12
    frequency:    37.5499697320

- q-position: [   -0.4444444,    0.3333333,    0.1250000 ]
  weight: 8    
  band:
  - # 1
    frequency:     8.7729036068
  - # 2
    frequency:    13.3679726588
  - # 3
    frequency:    14.8881753405
  - # 4
    frequency:    16.7862184606
  - # 5
    frequency:    22.8554121538
  - # 6
    frequency:    25.1912754440
  - # 7
    frequency:    27.0289693061
  - # 8
    frequency:    28.0638438510
  - # 9
    frequency:    34.7043610489
  - # 10
    frequency:    36.1521809677
  - # 11
    frequency:    37.8859799220
  - # 12
    frequency:    38.5505120042

- q-position: [   -0.3333333,    0.3333333,    0.1250000 ]
  weight: 4    
  band:
  - # 1
    frequency:     7.6213397455
  - # 2
    frequency:     8.4700373539
  - # 3
    frequency:    13.6166701656
  - # 4
    frequency:    14.1040789290
  - # 5
    frequency:    23.3061376567
  - # 6
    frequency:    23.8755637863
  - # 7
    frequency:    24.4233175774
  - # 8
    frequency:    26.7682132502
  - # 9
    frequency:    36.3742893813
  - # 10
    frequency:    38.1955414459
  - # 11
    frequency:    39.3352907971
  - # 12
    frequency:    40.0818779025

- q-position: [   -0.5555556,    0.4444444,    0.1250000 ]
  weight: 4    
  band:
  - # 1
    frequency:     9.1585917030
  - # 2
    frequency:    15.9026588194
  - # 3
    frequency:    16.5336935699
  - # 4
    frequency:    17.2193668146
  - # 5
    frequency:    22.6129176538
  - # 6
    frequency:    24.5879479162
  - # 7
    frequency:    31.4703723338
  - # 8
    frequency:    31.7917342966
  - # 9
    frequency:    32.9580743332
  - # 10
    frequency:    32.9928222408
  - # 11
    frequency:    35.0448239639
  - # 12
    frequency:    37.7917702884

- q-position: [   -0.4444444,    0.4444444,    0.1250000 ]
  weight: 4    
  band:
  - # 1
    frequency:     8.1004632364
  - # 2
    frequency:    13.3768675318
  - # 3
    frequency:    15.5560718325
  - # 4
    frequency:    15.8791119967
  - # 5
    frequency:    22.8919640286
  - # 6
    frequency:    24.9849792736
  - # 7
    frequency:    29.9497861000
  - # 8
    frequency:    31.0592006294
  - # 9
    frequency:    33.3665753235
  - # 10
    frequency:    34.8471087288
  - # 11
    frequency:    36.4303636941
  - # 12
    frequency:    38.0545202033

- q-position: [    0.0000000,    0.0000000,    0.3750000 ]
  weight: 2    
  band:
  - # 1
    frequency:    -1.2148746059
  - # 2
    frequency:     0.5713702182
  - # 3
    frequency:     2.8778278309
  - # 4
    frequency:     2.9390027193
  - # 5
    frequency:    14.6711757167
  - # 6
    frequency:    17.3080917346
  - # 7
    frequency:    24.2941278101
  - # 8
    frequency:    24.5698222521
  - # 9
    frequency:    41.7337663355
  - # 10
    frequency:    41.7900623391
  - # 11
    frequency:    42.7951699089
  - # 12
    frequency:    42.8617364359

- q-position: [    0.1111111,    0.0000000,    0.3750000 ]
  weight: 8    
  band:
  - # 1
    frequency:     4.1384380927
  - # 2
    frequency:     4.6815944045
  - # 3
    frequency:     6.8920720218
  - # 4
    frequency:     8.5285801634
  - # 5
    frequency:    15.6936738005
  - # 6
    frequency:    17.0077873501
  - # 7
    frequency:    24.1578378709
  - # 8
    frequency:    24.4745960204
  - # 9
    frequency:    41.0051957568
  - # 10
    frequency:    41.4062787297
  - # 11
    frequency:    42.1615659288
  - # 12
    frequency:    42.3909101381

- q-position: [    0.2222222,    0.0000000,    0.3750000 ]
  weight: 8    
  band:
  - # 1
    frequency:     7.9987545031
  - # 2
    frequency:     8.3280285560
  - # 3
    frequency:    11.4462120518
  - # 4
    frequency:    13.1037940477
  - # 5
    frequency:    18.1279432692
  - # 6
    frequency:    19.5006547275
  - # 7
    frequency:    23.4816111812
  - # 8
    frequency:    24.8510994365
  - # 9
    frequency:    38.8899988796
  - # 10
    frequency:    40.2934992004
  - # 11
    frequency:    40.3343884780
  - # 12
    frequency:    41.0742299088

- q-position: [    0.3333333,    0.0000000,    0.3750000 ]
  weight: 8    
  band:
  - # 1
    frequency:    11.5602813709
  - # 2
    frequency:    12.0790357020
  - # 3
    frequency:    12.2150110693
  - # 4
    frequency:    12.9133886611
  - # 5
    frequency:    21.7410410018
  - # 6
    frequency:    23.1048272985
  - # 7
    frequency:    25.3462825607
  - # 8
    frequency:    26.7364578453
  - # 9
    frequency:    36.0442040151
  - # 10
    frequency:    37.8250889958
  - # 11
    frequency:    38.3814589372
  - # 12
    frequency:    38.8064745485

- q-position: [    0.4444444,    0.0000000,    0.3750000 ]
  weight: 8    
  band:
  - # 1
    frequency:    10.9778269096
  - # 2
    frequency:    12.9674392379
  - # 3
    frequency:    14.1801083004
  - # 4
    frequency:    14.6325303651
  - # 5
    frequency:    22.1848487546
  - # 6
    frequency:    23.6342094876
  - # 7
    frequency:    30.4471451332
  - # 8
    frequency:    31.1795601889
  - # 9
    frequency:    33.7455973765
  - # 10
    frequency:    35.4040461100
  - # 11
    frequency:    35.6502868855
  - # 12
    frequency:    35.9018949364

- q-position: [    0.1111111,    0.1111111,    0.3750000 ]
  weight: 4    
  band:
  - # 1
    frequency:     7.2343259177
  - # 2
    frequency:     7.5244523311
  - # 3
    frequency:    11.4770821050
  - # 4
    frequency:    12.2799706911
  - # 5
    frequency:    17.0751400054
  - # 6
    frequency:    18.0781218051
  - # 7
    frequency:    23.5857873394
  - # 8
    frequency:    24.7072841887
  - # 9
    frequency:    39.6927192729
  - # 10
    frequency:    40.3875516477
  - # 11
    frequency:    41.0567238707
  - # 12
    frequency:    41.4882972773

- q-position: [    0.2222222,    0.1111111,    0.3750000 ]
  weight: 8    
  band:
  - # 1
    frequency:    10.3608319997
  - # 2
    frequency:    10.6521193030
  - # 3
    frequency:    13.8361625292
  - # 4
    frequency:    14.1947072089
  - # 5
    frequency:    20.4809372807
  - # 6
    frequency:    22.0983187593
  - # 7
    frequency:    23.5039872185
  - # 8
    frequency:    25.4710406088
  - # 9
    frequency:    37.3198332375
  - # 10
    frequency:    38.5283124029
  - # 11
    frequency:    39.1190909925
  - # 12
    frequency:    39.6270388048

- q-position: [    0.3333333,    0.1111111,    0.3750000 ]
  weight: 8    
  band:
  - # 1
    frequency:    10.6897992224
  - # 2
    frequency:    12.5108858766
  - # 3
    frequency:    15.6250429074
  - # 4
    frequency:    16.1409209827
  - # 5
    frequency:    22.1736344238
  - # 6
    frequency:    23.3441674689
  - # 7
    frequency:    27.8118158498
  - # 8
    frequency:    28.6247261422
  - # 9
    frequency:    34.6966942476
  - # 10
    frequency:    36.3029546373
  - # 11
    frequency:    36.5183006922
  - # 12
    frequency:    36.8874939466

- q-position: [   -0.5555556,    0.1111111,    0.3750000 ]
  weight: 8    
  band:
  - # 1
    frequency:    10.4178238321
  - # 2
    frequency:    12.6960252048
  - # 3
    frequency:    16.6931761472
  - # 4
    frequency:    17.2981790428
  - # 5
    frequency:    22.3425339141
  - # 6
    frequency:    23.5532852104
  - # 7
    frequency:    31.7180203768
  - # 8
    frequency:    31.9114286765
  - # 9
    frequency:    33.3871346695
  - # 10
    frequency:    33.7193504107
  - # 11
    frequency:    33.9296345597
  - # 12
    frequency:    35.4946754073

- q-position: [   -0.4444444,    0.1111111,    0.3750000 ]
  weight: 8    
  band:
  - # 1
    frequency:    10.6822991238
  - # 2
    frequency:    12.2014685243
  - # 3
    frequency:    15.3965382858
  - # 4
    frequency:    16.1904495158
  - # 5
    frequency:    22.2167380908
  - # 6
    frequency:    23.4394380879
  - # 7
    frequency:    27.7725225038
  - # 8
    frequency:    28.5297982734
  - # 9
    frequency:    34.7699330619
  - # 10
    frequency:    36.3413774610
  - # 11
    frequency:    36.5774150074
  - # 12
    frequency:    36.8897082013

- q-position: [   -0.3333333,    0.1111111,    0.3750000 ]
  weight: 8    
  band:
  - # 1
    frequency:     9.5961422375
  - # 2
    frequency:    10.4076972595
  - # 3
    frequency:    13.9283979027
  - # 4
    frequency:    14.0488429723
  - # 5
    frequency:    20.7808397076
  - # 6
    frequency:    22.0842197091
  - # 7
    frequency:    23.4900662405
  - # 8
    frequency:    25.3802638473
  - # 9
    frequency:    37.3882843254
  - # 10
    frequency:    38.5328737295
  - # 11
    frequency:    39.2960826031
  - # 12
    frequency:    39.5363059816

- q-position: [   -0.2222222,    0.1111111,    0.3750000 ]
  weight: 8    
  band:
  - # 1
    frequency:     5.8613990187
  - # 2
    frequency:     7.7973859708
  - # 3
    frequency:    11.0832228780
  - # 4
    frequency:    12.4505707027
  - # 5
    frequency:    17.3429665818
  - # 6
    frequency:    17.8804963956
  - # 7
    frequency:    23.6714930805
  - # 8
    frequency:    24.7221494360
  - # 9
    frequency:    39.7714491963
  - # 10
    frequency:    40.5121224530
  - # 11
    frequency:    40.9554696669
  - # 12
    frequency:    41.4956968694

- q-position: [   -0.1111111,    0.1111111,    0.3750000 ]
  weight: 4    
  band:
  - # 1
    frequency:     1.2435122014
  - # 2
    frequency:     6.0827787123
  - # 3
    frequency:     7.2059735668
  - # 4
    frequency:     7.9722539718
  - # 5
    frequency:    15.4696386817
  - # 6
    frequency:    17.1675677562
  - # 7
    frequency:    24.0653691638
  - # 8
    frequency:    24.6164811693
  - # 9
    frequency:    41.0893862825
  - # 10
    frequency:    41.4321326377
  - # 11
    frequency:    42.0293077767
  - # 12
    frequency:    42.4521284801

- q-position: [    0.2222222,    0.2222222,    0.3750000 ]
  weight: 4    
  band:
  - # 1
    frequency:    10.3950992611
  - # 2
    frequency:    12.2787670334
  - # 3
    frequency:    17.4658315131
  - # 4
    frequency:    18.1151047611
  - # 5
    frequency:    22.4391156972
  - # 6
    frequency:    22.5413928686
  - # 7
    frequency:    26.2982744747
  - # 8
    frequency:    26.8135353146
  - # 9
    frequency:    35.5436509033
  - # 10
    frequency:    36.0876590164
  - # 11
    frequency:    37.0013875220
  - # 12
    frequency:    37.1208424690

- q-position: [    0.3333333,    0.2222222,    0.3750000 ]
  weight: 8    
  band:
  - # 1
    frequency:    10.1471527209
  - # 2
    frequency:    12.7506708857
  - # 3
    frequency:    20.6152413718
  - # 4
    frequency:    21.2134233225
  - # 5
    frequency:    22.6003509234
  - # 6
    frequency:    23.2507553012
  - # 7
    frequency:    29.2432430423
  - # 8
    frequency:    29.6432551876
  - # 9
    frequency:    32.9600095096
  - # 10
    frequency:    33.5009282638
  - # 11
    frequency:    34.4296604551
  - # 12
    frequency:    35.4629741640

- q-position: [   -0.5555556,    0.2222222,    0.3750000 ]
  weight: 8    
  band:
  - # 1
    frequency:    10.2548820575
  - # 2
    frequency:    12.5536714783
  - # 3
    frequency:    20.3507288383
  - # 4
    frequency:    21.2748555303
  - # 5
    frequency:    22.5894220080
  - # 6
    frequency:    23.3209286438
  - # 7
    frequency:    29.3664876433
  - # 8
    frequency:    29.4525320139
  - # 9
    frequency:    33.0254167834
  - # 10
    frequency:    33.3702509223
  - # 11
    frequency:    34.7974072996
  - # 12
    frequency:    35.3086887363

- q-position: [   -0.4444444,    0.2222222,    0.3750000 ]
  weight: 8    
  band:
  - # 1
    frequency:    10.3677783920
  - # 2
    frequency:    11.8030101546
  - # 3
    frequency:    17.0587722240
  - # 4
    frequency:    18.1727956296
  - # 5
    frequency:    22.5920176827
  - # 6
    frequency:    22.7614569226
  - # 7
    frequency:    26.0247286520
  - # 8
    frequency:    26.7850468725
  - # 9
    frequency:    35.6783251029
  - # 10
    frequency:    36.1657006046
  - # 11
    frequency:    36.9791340481
  - # 12
    frequency:    37.1732098626

- q-position: [   -0.3333333,    0.2222222,    0.3750000 ]
  weight: 8    
  band:
  - # 1
    frequency:     9.1934820517
  - # 2
    frequency:    10.8073968541
  - # 3
    frequency:    13.5776542724
  - # 4
    frequency:    14.3537444403
  - # 5
    frequency:    20.6593077131
  - # 6
    frequency:    22.0368307133
  - # 7
    frequency:    23.4885051685
  - # 8
    frequency:    25.4044677283
  - # 9
    frequency:    37.6562574913
  - # 10
    frequency:    38.3057801340
  - # 11
    frequency:    39.1332944618
  - # 12
    frequency:    39.7032497741

- q-position: [   -0.2222222,    0.2222222,    0.3750000 ]
  weight: 4    
  band:
  - # 1
    frequency:     6.2982979360
  - # 2
    frequency:     9.7579342543
  - # 3
    frequency:    11.1848565828
  - # 4
    frequency:    12.7729697570
  - # 5
    frequency:    18.0159409480
  - # 6
    frequency:    19.4521809858
  - # 7
    frequency:    23.5346428406
  - # 8
    frequency:    24.9243549472
  - # 9
    frequency:    39.2158445028
  - # 10
    frequency:    40.0052079175
  - # 11
    frequency:    40.2977085057
  - # 12
    frequency:    41.1872945365

- q-position: [   -0.6666667,    0.3333333,    0.3750000 ]
  weight: 4    
  band:
  - # 1
    frequency:    10.1692313676
  - # 2
    frequency:    12.7583007960
  - # 3
    frequency:    22.8468779987
  - # 4
    frequency:    23.0310279833
  - # 5
    frequency:    24.3204300856
  - # 6
    frequency:    24.3628569899
  - # 7
    frequency:    29.1411660466
  - # 8
    frequency:    29.1418528301
  - # 9
    frequency:    31.0148199469
  - # 10
    frequency:    31.4922121639
  - # 11
    frequency:    34.6049311611
  - # 12
    frequency:    34.7115908000

- q-position: [   -0.5555556,    0.3333333,    0.3750000 ]
  weight: 8    
  band:
  - # 1
    frequency:    10.3051198491
  - # 2
    frequency:    12.5248709661
  - # 3
    frequency:    20.5254235578
  - # 4
    frequency:    21.2189226343
  - # 5
    frequency:    22.4908941928
  - # 6
    frequency:    23.3549966480
  - # 7
    frequency:    29.2601137390
  - # 8
    frequency:    29.4955203236
  - # 9
    frequency:    33.0413488346
  - # 10
    frequency:    33.3393034671
  - # 11
    frequency:    34.7444256292
  - # 12
    frequency:    35.3490376289

- q-position: [   -0.4444444,    0.3333333,    0.3750000 ]
  weight: 8    
  band:
  - # 1
    frequency:    10.6608309125
  - # 2
    frequency:    12.1999155638
  - # 3
    frequency:    15.3178851113
  - # 4
    frequency:    16.5123773678
  - # 5
    frequency:    22.1961082499
  - # 6
    frequency:    23.3164591460
  - # 7
    frequency:    27.7622308526
  - # 8
    frequency:    28.4190215775
  - # 9
    frequency:    34.8993020105
  - # 10
    frequency:    36.2356558150
  - # 11
    frequency:    36.4568273239
  - # 12
    frequency:    36.9864813372

- q-position: [   -0.3333333,    0.3333333,    0.3750000 ]
  weight: 4    
  band:
  - # 1
    frequency:    10.8364623375
  - # 2
    frequency:    12.0335138746
  - # 3
    frequency:    12.6161463786
  - # 4
    frequency:    13.0188323372
  - # 5
    frequency:    21.7635731226
  - # 6
    frequency:    22.9793520668
  - # 7
    frequency:    25.3214977107
  - # 8
    frequency:    26.6327253105
  - # 9
    frequency:    36.3615198805
  - # 10
    frequency:    37.5998271289
  - # 11
    frequency:    38.2483563474
  - # 12
    frequency:    38.9738660413

- q-position: [   -0.5555556,    0.4444444,    0.3750000 ]
  weight: 4    
  band:
  - # 1
    frequency:    10.4806568964
  - # 2
    frequency:    12.6110329115
  - # 3
    frequency:    16.9308136138
  - # 4
    frequency:    17.3775516775
  - # 5
    frequency:    22.1893647930
  - # 6
    frequency:    23.5355502256
  - # 7
    frequency:    31.6061101679
  - # 8
    frequency:    31.8343464143
  - # 9
    frequency:    33.5507814149
  - # 10
    frequency:    33.5706712749
  - # 11
    frequency:    33.9298659931
  - # 12
    frequency:    35.4998629595

- q-position: [   -0.4444444,    0.4444444,    0.3750000 ]
  weight: 4    
  band:
  - # 1
    frequency:    10.9602050045
  - # 2
    frequency:    12.8429874782
  - # 3
    frequency:    14.1915740818
  - # 4
    frequency:    15.0588159996
  - # 5
    frequency:    22.0940635828
  - # 6
    frequency:    23.5486342278
  - # 7
    frequency:    30.4027864964
  - # 8
    frequency:    31.0301184180
  - # 9
    frequency:    33.8585282895
  - # 10
    frequency:    35.2515625480
  - # 11
    frequency:    35.7670021710
  - # 12
    frequency:    35.8447654282

