# Thermal properties / unit cell (natom)

unit:
  temperature:   K
  free_energy:   kJ/mol
  entropy:       J/K/mol
  heat_capacity: J/K/mol

natom:     4
num_modes: 3888
num_integrated_modes: 2624

zero_point_energy:      22.3086390
high_T_entropy:        196.2500232

thermal_properties:
- temperature:         0.0000000
  free_energy:        22.3086390
  entropy:             0.0000000
  heat_capacity:       0.0000000
  energy:             22.3086390

- temperature:        10.0000000
  free_energy:        22.3086364
  entropy:             0.0021234
  heat_capacity:       0.0133310
  energy:             22.3086577

- temperature:        20.0000000
  free_energy:        22.3084308
  entropy:             0.0517006
  heat_capacity:       0.1754988
  energy:             22.3094648

- temperature:        30.0000000
  free_energy:        22.3073622
  entropy:             0.1724304
  heat_capacity:       0.4508073
  energy:             22.3125351

- temperature:        40.0000000
  free_energy:        22.3048019
  entropy:             0.3478404
  heat_capacity:       0.7994080
  energy:             22.3187155

- temperature:        50.0000000
  free_energy:        22.3002401
  entropy:             0.5732826
  heat_capacity:       1.2630878
  energy:             22.3289042

- temperature:        60.0000000
  free_energy:        22.2931409
  entropy:             0.8575457
  heat_capacity:       1.9115031
  energy:             22.3445936

- temperature:        70.0000000
  free_energy:        22.2828416
  entropy:             1.2161291
  heat_capacity:       2.8099865
  energy:             22.3679706

- temperature:        80.0000000
  free_energy:        22.2685147
  entropy:             1.6656953
  heat_capacity:       4.0004353
  energy:             22.4017703

- temperature:        90.0000000
  free_energy:        22.2491776
  entropy:             2.2201148
  heat_capacity:       5.4924135
  energy:             22.4489879

- temperature:       100.0000000
  free_energy:        22.2237328
  entropy:             2.8882324
  heat_capacity:       7.2648683
  energy:             22.5125560

- temperature:       110.0000000
  free_energy:        22.1910227
  entropy:             3.6732241
  heat_capacity:       9.2745762
  energy:             22.5950774

- temperature:       120.0000000
  free_energy:        22.1498849
  entropy:             4.5730843
  heat_capacity:      11.4664560
  energy:             22.6986550

- temperature:       130.0000000
  free_energy:        22.0991982
  entropy:             5.5817062
  heat_capacity:      13.7825067
  energy:             22.8248200

- temperature:       140.0000000
  free_energy:        22.0379179
  entropy:             6.6901298
  heat_capacity:      16.1680776
  energy:             22.9745361

- temperature:       150.0000000
  free_energy:        21.9650984
  entropy:             7.8876998
  heat_capacity:      18.5754724
  energy:             23.1482533

- temperature:       160.0000000
  free_energy:        21.8799048
  entropy:             9.1630111
  heat_capacity:      20.9654626
  energy:             23.3459866

- temperature:       170.0000000
  free_energy:        21.7816172
  entropy:            10.5046136
  heat_capacity:      23.3073999
  energy:             23.5674015

- temperature:       180.0000000
  free_energy:        21.6696283
  entropy:            11.9014967
  heat_capacity:      25.5785164
  energy:             23.8118977

- temperature:       190.0000000
  free_energy:        21.5434374
  entropy:            13.3433925
  heat_capacity:      27.7628394
  energy:             24.0786819

- temperature:       200.0000000
  free_energy:        21.4026418
  entropy:            14.8209420
  heat_capacity:      29.8499963
  energy:             24.3668302

- temperature:       210.0000000
  free_energy:        21.2469277
  entropy:            16.3257626
  heat_capacity:      31.8340678
  energy:             24.6753379

- temperature:       220.0000000
  free_energy:        21.0760604
  entropy:            17.8504497
  heat_capacity:      33.7125683
  energy:             25.0031593

- temperature:       230.0000000
  free_energy:        20.8898742
  entropy:            19.3885359
  heat_capacity:      35.4855844
  energy:             25.3492374

- temperature:       240.0000000
  free_energy:        20.6882637
  entropy:            20.9344251
  heat_capacity:      37.1550702
  energy:             25.7125258

- temperature:       250.0000000
  free_energy:        20.4711757
  entropy:            22.4833150
  heat_capacity:      38.7242878
  energy:             26.0920045

- temperature:       260.0000000
  free_energy:        20.2386012
  entropy:            24.0311149
  heat_capacity:      40.1973708
  energy:             26.4866910

- temperature:       270.0000000
  free_energy:        19.9905687
  entropy:            25.5743642
  heat_capacity:      41.5789920
  energy:             26.8956470

- temperature:       280.0000000
  free_energy:        19.7271388
  entropy:            27.1101562
  heat_capacity:      42.8741143
  energy:             27.3179825

- temperature:       290.0000000
  free_energy:        19.4483985
  entropy:            28.6360666
  heat_capacity:      44.0878068
  energy:             27.7528579

- temperature:       300.0000000
  free_energy:        19.1544571
  entropy:            30.1500898
  heat_capacity:      45.2251133
  energy:             28.1994840

- temperature:       310.0000000
  free_energy:        18.8454419
  entropy:            31.6505809
  heat_capacity:      46.2909598
  energy:             28.6571219

- temperature:       320.0000000
  free_energy:        18.5214951
  entropy:            33.1362056
  heat_capacity:      47.2900923
  energy:             29.1250809

- temperature:       330.0000000
  free_energy:        18.1827709
  entropy:            34.6058958
  heat_capacity:      48.2270366
  energy:             29.6027165

- temperature:       340.0000000
  free_energy:        17.8294331
  entropy:            36.0588104
  heat_capacity:      49.1060750
  energy:             30.0894286

- temperature:       350.0000000
  free_energy:        17.4616528
  entropy:            37.4943019
  heat_capacity:      49.9312356
  energy:             30.5846585

- temperature:       360.0000000
  free_energy:        17.0796068
  entropy:            38.9118877
  heat_capacity:      50.7062896
  energy:             31.0878863

- temperature:       370.0000000
  free_energy:        16.6834759
  entropy:            40.3112246
  heat_capacity:      51.4347550
  energy:             31.5986290

- temperature:       380.0000000
  free_energy:        16.2734439
  entropy:            41.6920874
  heat_capacity:      52.1199048
  energy:             32.1164371

- temperature:       390.0000000
  free_energy:        15.8496961
  entropy:            43.0543505
  heat_capacity:      52.7647772
  energy:             32.6408929

- temperature:       400.0000000
  free_energy:        15.4124190
  entropy:            44.3979719
  heat_capacity:      53.3721884
  energy:             33.1716078

- temperature:       410.0000000
  free_energy:        14.9617988
  entropy:            45.7229798
  heat_capacity:      53.9447453
  energy:             33.7082205

- temperature:       420.0000000
  free_energy:        14.4980212
  entropy:            47.0294605
  heat_capacity:      54.4848595
  energy:             34.2503946

- temperature:       430.0000000
  free_energy:        14.0212709
  entropy:            48.3175491
  heat_capacity:      54.9947602
  energy:             34.7978170

- temperature:       440.0000000
  free_energy:        13.5317309
  entropy:            49.5874205
  heat_capacity:      55.4765077
  energy:             35.3501959

- temperature:       450.0000000
  free_energy:        13.0295825
  entropy:            50.8392825
  heat_capacity:      55.9320057
  energy:             35.9072596

- temperature:       460.0000000
  free_energy:        12.5150045
  entropy:            52.0733694
  heat_capacity:      56.3630133
  energy:             36.4687544

- temperature:       470.0000000
  free_energy:        11.9881735
  entropy:            53.2899366
  heat_capacity:      56.7711564
  energy:             37.0344437

- temperature:       480.0000000
  free_energy:        11.4492633
  entropy:            54.4892564
  heat_capacity:      57.1579379
  energy:             37.6041064

- temperature:       490.0000000
  free_energy:        10.8984449
  entropy:            55.6716142
  heat_capacity:      57.5247477
  energy:             38.1775359

- temperature:       500.0000000
  free_energy:        10.3358865
  entropy:            56.8373050
  heat_capacity:      57.8728716
  energy:             38.7545390

- temperature:       510.0000000
  free_energy:         9.7617534
  entropy:            57.9866307
  heat_capacity:      58.2034998
  energy:             39.3349350

- temperature:       520.0000000
  free_energy:         9.1762075
  entropy:            59.1198980
  heat_capacity:      58.5177344
  energy:             39.9185544

- temperature:       530.0000000
  free_energy:         8.5794079
  entropy:            60.2374162
  heat_capacity:      58.8165970
  energy:             40.5052385

- temperature:       540.0000000
  free_energy:         7.9715106
  entropy:            61.3394957
  heat_capacity:      59.1010345
  energy:             41.0948383

- temperature:       550.0000000
  free_energy:         7.3526684
  entropy:            62.4264465
  heat_capacity:      59.3719254
  energy:             41.6872140

- temperature:       560.0000000
  free_energy:         6.7230311
  entropy:            63.4985773
  heat_capacity:      59.6300855
  energy:             42.2822344

- temperature:       570.0000000
  free_energy:         6.0827452
  entropy:            64.5561940
  heat_capacity:      59.8762728
  energy:             42.8797758

- temperature:       580.0000000
  free_energy:         5.4319546
  entropy:            65.5995995
  heat_capacity:      60.1111917
  energy:             43.4797223

- temperature:       590.0000000
  free_energy:         4.7707996
  entropy:            66.6290926
  heat_capacity:      60.3354977
  energy:             44.0819643

- temperature:       600.0000000
  free_energy:         4.0994181
  entropy:            67.6449679
  heat_capacity:      60.5498010
  energy:             44.6863989

- temperature:       610.0000000
  free_energy:         3.4179447
  entropy:            68.6475150
  heat_capacity:      60.7546703
  energy:             45.2929289

- temperature:       620.0000000
  free_energy:         2.7265113
  entropy:            69.6370182
  heat_capacity:      60.9506355
  energy:             45.9014626

- temperature:       630.0000000
  free_energy:         2.0252469
  entropy:            70.6137566
  heat_capacity:      61.1381913
  energy:             46.5119135

- temperature:       640.0000000
  free_energy:         1.3142778
  entropy:            71.5780034
  heat_capacity:      61.3177994
  energy:             47.1241999

- temperature:       650.0000000
  free_energy:         0.5937276
  entropy:            72.5300260
  heat_capacity:      61.4898911
  energy:             47.7382445

- temperature:       660.0000000
  free_energy:        -0.1362829
  entropy:            73.4700862
  heat_capacity:      61.6548700
  energy:             48.3539740

- temperature:       670.0000000
  free_energy:        -0.8756351
  entropy:            74.3984397
  heat_capacity:      61.8131132
  energy:             48.9713194

- temperature:       680.0000000
  free_energy:        -1.6242135
  entropy:            75.3153360
  heat_capacity:      61.9649743
  energy:             49.5902150

- temperature:       690.0000000
  free_energy:        -2.3819045
  entropy:            76.2210192
  heat_capacity:      62.1107842
  energy:             50.2105987

- temperature:       700.0000000
  free_energy:        -3.1485973
  entropy:            77.1157269
  heat_capacity:      62.2508534
  energy:             50.8324116

- temperature:       710.0000000
  free_energy:        -3.9241832
  entropy:            77.9996914
  heat_capacity:      62.3854731
  energy:             51.4555976

- temperature:       720.0000000
  free_energy:        -4.7085560
  entropy:            78.8731387
  heat_capacity:      62.5149166
  energy:             52.0801038

- temperature:       730.0000000
  free_energy:        -5.5016117
  entropy:            79.7362894
  heat_capacity:      62.6394409
  energy:             52.7058796

- temperature:       740.0000000
  free_energy:        -6.3032482
  entropy:            80.5893584
  heat_capacity:      62.7592873
  energy:             53.3328770

- temperature:       750.0000000
  free_energy:        -7.1133659
  entropy:            81.4325552
  heat_capacity:      62.8746830
  energy:             53.9610505

- temperature:       760.0000000
  free_energy:        -7.9318671
  entropy:            82.2660838
  heat_capacity:      62.9858417
  energy:             54.5903566

- temperature:       770.0000000
  free_energy:        -8.7586560
  entropy:            83.0901427
  heat_capacity:      63.0929647
  energy:             55.2207539

- temperature:       780.0000000
  free_energy:        -9.5936390
  entropy:            83.9049257
  heat_capacity:      63.1962419
  energy:             55.8522030

- temperature:       790.0000000
  free_energy:       -10.4367243
  entropy:            84.7106212
  heat_capacity:      63.2958520
  energy:             56.4846665

- temperature:       800.0000000
  free_energy:       -11.2878218
  entropy:            85.5074127
  heat_capacity:      63.3919640
  energy:             57.1181084

- temperature:       810.0000000
  free_energy:       -12.1468434
  entropy:            86.2954791
  heat_capacity:      63.4847371
  energy:             57.7524946

- temperature:       820.0000000
  free_energy:       -13.0137029
  entropy:            87.0749944
  heat_capacity:      63.5743220
  energy:             58.3877925

- temperature:       830.0000000
  free_energy:       -13.8883154
  entropy:            87.8461281
  heat_capacity:      63.6608610
  energy:             59.0239709

- temperature:       840.0000000
  free_energy:       -14.7705980
  entropy:            88.6090453
  heat_capacity:      63.7444885
  energy:             59.6610001

- temperature:       850.0000000
  free_energy:       -15.6604694
  entropy:            89.3639069
  heat_capacity:      63.8253319
  energy:             60.2988514

- temperature:       860.0000000
  free_energy:       -16.5578498
  entropy:            90.1108694
  heat_capacity:      63.9035119
  energy:             60.9374978

- temperature:       870.0000000
  free_energy:       -17.4626610
  entropy:            90.8500852
  heat_capacity:      63.9791424
  energy:             61.5769132

- temperature:       880.0000000
  free_energy:       -18.3748262
  entropy:            91.5817031
  heat_capacity:      64.0523319
  energy:             62.2170725

- temperature:       890.0000000
  free_energy:       -19.2942702
  entropy:            92.3058677
  heat_capacity:      64.1231828
  energy:             62.8579520

- temperature:       900.0000000
  free_energy:       -20.2209192
  entropy:            93.0227199
  heat_capacity:      64.1917926
  energy:             63.4995287

- temperature:       910.0000000
  free_energy:       -21.1547007
  entropy:            93.7323971
  heat_capacity:      64.2582536
  energy:             64.1417807

- temperature:       920.0000000
  free_energy:       -22.0955437
  entropy:            94.4350332
  heat_capacity:      64.3226536
  energy:             64.7846869

- temperature:       930.0000000
  free_energy:       -23.0433783
  entropy:            95.1307586
  heat_capacity:      64.3850760
  energy:             65.4282272

- temperature:       940.0000000
  free_energy:       -23.9981362
  entropy:            95.8197004
  heat_capacity:      64.4455999
  energy:             66.0723821

- temperature:       950.0000000
  free_energy:       -24.9597501
  entropy:            96.5019824
  heat_capacity:      64.5043008
  energy:             66.7171331

- temperature:       960.0000000
  free_energy:       -25.9281541
  entropy:            97.1777254
  heat_capacity:      64.5612504
  energy:             67.3624623

- temperature:       970.0000000
  free_energy:       -26.9032832
  entropy:            97.8470472
  heat_capacity:      64.6165169
  energy:             68.0083525

- temperature:       980.0000000
  free_energy:       -27.8850740
  entropy:            98.5100625
  heat_capacity:      64.6701653
  energy:             68.6547872

- temperature:       990.0000000
  free_energy:       -28.8734638
  entropy:            99.1668833
  heat_capacity:      64.7222575
  energy:             69.3017506

- temperature:      1000.0000000
  free_energy:       -29.8683914
  entropy:            99.8176188
  heat_capacity:      64.7728525
  energy:             69.9492274
