# Thermal properties / unit cell (natom)

unit:
  temperature:   K
  free_energy:   kJ/mol
  entropy:       J/K/mol
  heat_capacity: J/K/mol

natom:     4
num_modes: 3888
num_integrated_modes: 3874

zero_point_energy:      59.1332350
high_T_entropy:        239.5718394

thermal_properties:
- temperature:         0.0000000
  free_energy:        59.1332350
  entropy:             0.0000000
  heat_capacity:       0.0000000
  energy:             59.1332350

- temperature:        10.0000000
  free_energy:        59.1331957
  entropy:             0.0167745
  heat_capacity:       0.0480329
  energy:             59.1333634

- temperature:        20.0000000
  free_energy:        59.1326770
  entropy:             0.0970588
  heat_capacity:       0.2162020
  energy:             59.1346182

- temperature:        30.0000000
  free_energy:        59.1311013
  entropy:             0.2237428
  heat_capacity:       0.4277797
  energy:             59.1378136

- temperature:        40.0000000
  free_energy:        59.1281013
  entropy:             0.3814988
  heat_capacity:       0.6971883
  energy:             59.1433613

- temperature:        50.0000000
  free_energy:        59.1233468
  entropy:             0.5768759
  heat_capacity:       1.0957420
  energy:             59.1521906

- temperature:        60.0000000
  free_energy:        59.1163876
  entropy:             0.8250195
  heat_capacity:       1.6767807
  energy:             59.1658888

- temperature:        70.0000000
  free_energy:        59.1066245
  entropy:             1.1395497
  heat_capacity:       2.4568844
  energy:             59.1863930

- temperature:        80.0000000
  free_energy:        59.0933469
  entropy:             1.5288134
  heat_capacity:       3.4241741
  energy:             59.2156520

- temperature:        90.0000000
  free_energy:        59.0757886
  entropy:             1.9958258
  heat_capacity:       4.5523027
  energy:             59.2554129

- temperature:       100.0000000
  free_energy:        59.0531743
  entropy:             2.5395923
  heat_capacity:       5.8111604
  energy:             59.3071335

- temperature:       110.0000000
  free_energy:        59.0247525
  entropy:             3.1565997
  heat_capacity:       7.1728771
  energy:             59.3719784

- temperature:       120.0000000
  free_energy:        58.9898142
  entropy:             3.8420148
  heat_capacity:       8.6142411
  energy:             59.4508560

- temperature:       130.0000000
  free_energy:        58.9477019
  entropy:             4.5905042
  heat_capacity:      10.1170141
  energy:             59.5444675

- temperature:       140.0000000
  free_energy:        58.8978117
  entropy:             5.3967320
  heat_capacity:      11.6672718
  energy:             59.6533542

- temperature:       150.0000000
  free_energy:        58.8395918
  entropy:             6.2556262
  heat_capacity:      13.2544498
  energy:             59.7779357

- temperature:       160.0000000
  free_energy:        58.7725393
  entropy:             7.1624981
  heat_capacity:      14.8704270
  energy:             59.9185390

- temperature:       170.0000000
  free_energy:        58.6961962
  entropy:             8.1130735
  heat_capacity:      16.5087719
  energy:             60.0754187

- temperature:       180.0000000
  free_energy:        58.6101451
  entropy:             9.1034784
  heat_capacity:      18.1641757
  energy:             60.2487712

- temperature:       190.0000000
  free_energy:        58.5140056
  entropy:            10.1302007
  heat_capacity:      19.8320495
  energy:             60.4387437

- temperature:       200.0000000
  free_energy:        58.4074307
  entropy:            11.1900462
  heat_capacity:      21.5082562
  energy:             60.6454400

- temperature:       210.0000000
  free_energy:        58.2901040
  entropy:            12.2800939
  heat_capacity:      23.1889411
  energy:             60.8689238

- temperature:       220.0000000
  free_energy:        58.1617371
  entropy:            13.3976560
  heat_capacity:      24.8704362
  energy:             61.1092215

- temperature:       230.0000000
  free_energy:        58.0220675
  entropy:            14.5402430
  heat_capacity:      26.5492135
  energy:             61.3663234

- temperature:       240.0000000
  free_energy:        57.8708566
  entropy:            15.7055363
  heat_capacity:      28.2218728
  energy:             61.6401853

- temperature:       250.0000000
  free_energy:        57.7078884
  entropy:            16.8913649
  heat_capacity:      29.8851485
  energy:             61.9307296

- temperature:       260.0000000
  free_energy:        57.5329677
  entropy:            18.0956882
  heat_capacity:      31.5359275
  energy:             62.2378466

- temperature:       270.0000000
  free_energy:        57.3459194
  entropy:            19.3165825
  heat_capacity:      33.1712713
  energy:             62.5613966

- temperature:       280.0000000
  free_energy:        57.1465869
  entropy:            20.5522306
  heat_capacity:      34.7884381
  energy:             62.9012114

- temperature:       290.0000000
  free_energy:        56.9348313
  entropy:            21.8009140
  heat_capacity:      36.3849014
  energy:             63.2570964

- temperature:       300.0000000
  free_energy:        56.7105306
  entropy:            23.0610073
  heat_capacity:      37.9583645
  energy:             63.6288328

- temperature:       310.0000000
  free_energy:        56.4735783
  entropy:            24.3309737
  heat_capacity:      39.5067698
  energy:             64.0161801

- temperature:       320.0000000
  free_energy:        56.2238830
  entropy:            25.6093610
  heat_capacity:      41.0283024
  energy:             64.4188786

- temperature:       330.0000000
  free_energy:        55.9613675
  entropy:            26.8947993
  heat_capacity:      42.5213901
  energy:             64.8366513

- temperature:       340.0000000
  free_energy:        55.6859678
  entropy:            28.1859977
  heat_capacity:      43.9846977
  energy:             65.2692071

- temperature:       350.0000000
  free_energy:        55.3976324
  entropy:            29.4817424
  heat_capacity:      45.4171193
  energy:             65.7162423

- temperature:       360.0000000
  free_energy:        55.0963216
  entropy:            30.7808941
  heat_capacity:      46.8177664
  energy:             66.1774435

- temperature:       370.0000000
  free_energy:        54.7820068
  entropy:            32.0823855
  heat_capacity:      48.1859557
  energy:             66.6524894

- temperature:       380.0000000
  free_energy:        54.4546695
  entropy:            33.3852192
  heat_capacity:      49.5211937
  energy:             67.1410528

- temperature:       390.0000000
  free_energy:        54.1143010
  entropy:            34.6884650
  heat_capacity:      50.8231616
  energy:             67.6428024

- temperature:       400.0000000
  free_energy:        53.7609017
  entropy:            35.9912572
  heat_capacity:      52.0916996
  energy:             68.1574046

- temperature:       410.0000000
  free_energy:        53.3944801
  entropy:            37.2927921
  heat_capacity:      53.3267913
  energy:             68.6845249

- temperature:       420.0000000
  free_energy:        53.0150525
  entropy:            38.5923255
  heat_capacity:      54.5285480
  energy:             69.2238293

- temperature:       430.0000000
  free_energy:        52.6226425
  entropy:            39.8891695
  heat_capacity:      55.6971943
  energy:             69.7749854

- temperature:       440.0000000
  free_energy:        52.2172802
  entropy:            41.1826900
  heat_capacity:      56.8330537
  energy:             70.3376638

- temperature:       450.0000000
  free_energy:        51.7990018
  entropy:            42.4723040
  heat_capacity:      57.9365355
  energy:             70.9115386

- temperature:       460.0000000
  free_energy:        51.3678489
  entropy:            43.7574767
  heat_capacity:      59.0081228
  energy:             71.4962882

- temperature:       470.0000000
  free_energy:        50.9238687
  entropy:            45.0377188
  heat_capacity:      60.0483608
  energy:             72.0915965

- temperature:       480.0000000
  free_energy:        50.4671125
  entropy:            46.3125842
  heat_capacity:      61.0578469
  energy:             72.6971529

- temperature:       490.0000000
  free_energy:        49.9976363
  entropy:            47.5816670
  heat_capacity:      62.0372208
  energy:             73.3126531

- temperature:       500.0000000
  free_energy:        49.5154997
  entropy:            48.8445991
  heat_capacity:      62.9871566
  energy:             73.9377992

- temperature:       510.0000000
  free_energy:        49.0207659
  entropy:            50.1010481
  heat_capacity:      63.9083549
  energy:             74.5723004

- temperature:       520.0000000
  free_energy:        48.5135013
  entropy:            51.3507146
  heat_capacity:      64.8015364
  energy:             75.2158729

- temperature:       530.0000000
  free_energy:        47.9937751
  entropy:            52.5933304
  heat_capacity:      65.6674355
  energy:             75.8682402

- temperature:       540.0000000
  free_energy:        47.4616590
  entropy:            53.8286558
  heat_capacity:      66.5067956
  energy:             76.5291332

- temperature:       550.0000000
  free_energy:        46.9172270
  entropy:            55.0564784
  heat_capacity:      67.3203638
  energy:             77.1982901

- temperature:       560.0000000
  free_energy:        46.3605551
  entropy:            56.2766105
  heat_capacity:      68.1088880
  energy:             77.8754570

- temperature:       570.0000000
  free_energy:        45.7917210
  entropy:            57.4888876
  heat_capacity:      68.8731124
  energy:             78.5603869

- temperature:       580.0000000
  free_energy:        45.2108040
  entropy:            58.6931667
  heat_capacity:      69.6137752
  energy:             79.2528407

- temperature:       590.0000000
  free_energy:        44.6178847
  entropy:            59.8893247
  heat_capacity:      70.3316061
  energy:             79.9525863

- temperature:       600.0000000
  free_energy:        44.0130449
  entropy:            61.0772570
  heat_capacity:      71.0273239
  energy:             80.6593991

- temperature:       610.0000000
  free_energy:        43.3963673
  entropy:            62.2568756
  heat_capacity:      71.7016350
  energy:             81.3730614

- temperature:       620.0000000
  free_energy:        42.7679354
  entropy:            63.4281087
  heat_capacity:      72.3552319
  energy:             82.0933627

- temperature:       630.0000000
  free_energy:        42.1278333
  entropy:            64.5908984
  heat_capacity:      72.9887921
  energy:             82.8200993

- temperature:       640.0000000
  free_energy:        41.4761457
  entropy:            65.7452005
  heat_capacity:      73.6029772
  energy:             83.5530740

- temperature:       650.0000000
  free_energy:        40.8129577
  entropy:            66.8909827
  heat_capacity:      74.1984320
  energy:             84.2920964

- temperature:       660.0000000
  free_energy:        40.1383545
  entropy:            68.0282239
  heat_capacity:      74.7757844
  energy:             85.0369823

- temperature:       670.0000000
  free_energy:        39.4524217
  entropy:            69.1569136
  heat_capacity:      75.3356446
  energy:             85.7875538

- temperature:       680.0000000
  free_energy:        38.7552447
  entropy:            70.2770502
  heat_capacity:      75.8786052
  energy:             86.5436389

- temperature:       690.0000000
  free_energy:        38.0469092
  entropy:            71.3886410
  heat_capacity:      76.4052410
  energy:             87.3050715

- temperature:       700.0000000
  free_energy:        37.3275004
  entropy:            72.4917011
  heat_capacity:      76.9161090
  energy:             88.0716911

- temperature:       710.0000000
  free_energy:        36.5971035
  entropy:            73.5862526
  heat_capacity:      77.4117485
  energy:             88.8433429

- temperature:       720.0000000
  free_energy:        35.8558036
  entropy:            74.6723243
  heat_capacity:      77.8926812
  energy:             89.6198771

- temperature:       730.0000000
  free_energy:        35.1036852
  entropy:            75.7499507
  heat_capacity:      78.3594118
  energy:             90.4011492

- temperature:       740.0000000
  free_energy:        34.3408326
  entropy:            76.8191717
  heat_capacity:      78.8124278
  energy:             91.1870196

- temperature:       750.0000000
  free_energy:        33.5673296
  entropy:            77.8800320
  heat_capacity:      79.2521999
  energy:             91.9773536

- temperature:       760.0000000
  free_energy:        32.7832596
  entropy:            78.9325807
  heat_capacity:      79.6791827
  energy:             92.7720210

- temperature:       770.0000000
  free_energy:        31.9887055
  entropy:            79.9768708
  heat_capacity:      80.0938148
  energy:             93.5708961

- temperature:       780.0000000
  free_energy:        31.1837496
  entropy:            81.0129589
  heat_capacity:      80.4965193
  energy:             94.3738575

- temperature:       790.0000000
  free_energy:        30.3684735
  entropy:            82.0409045
  heat_capacity:      80.8877041
  energy:             95.1807881

- temperature:       800.0000000
  free_energy:        29.5429584
  entropy:            83.0607701
  heat_capacity:      81.2677624
  energy:             95.9915745

- temperature:       810.0000000
  free_energy:        28.7072848
  entropy:            84.0726206
  heat_capacity:      81.6370733
  energy:             96.8061075

- temperature:       820.0000000
  free_energy:        27.8615325
  entropy:            85.0765230
  heat_capacity:      81.9960021
  energy:             97.6242814

- temperature:       830.0000000
  free_energy:        27.0057806
  entropy:            86.0725464
  heat_capacity:      82.3449006
  energy:             98.4459941

- temperature:       840.0000000
  free_energy:        26.1401076
  entropy:            87.0607613
  heat_capacity:      82.6841077
  energy:             99.2711471

- temperature:       850.0000000
  free_energy:        25.2645912
  entropy:            88.0412398
  heat_capacity:      83.0139500
  energy:            100.0996450

- temperature:       860.0000000
  free_energy:        24.3793083
  entropy:            89.0140553
  heat_capacity:      83.3347418
  energy:            100.9313959

- temperature:       870.0000000
  free_energy:        23.4843354
  entropy:            89.9792820
  heat_capacity:      83.6467859
  energy:            101.7663107

- temperature:       880.0000000
  free_energy:        22.5797477
  entropy:            90.9369951
  heat_capacity:      83.9503740
  energy:            102.6043034

- temperature:       890.0000000
  free_energy:        21.6656202
  entropy:            91.8872704
  heat_capacity:      84.2457867
  energy:            103.4452909

- temperature:       900.0000000
  free_energy:        20.7420269
  entropy:            92.8301844
  heat_capacity:      84.5332945
  energy:            104.2891928

- temperature:       910.0000000
  free_energy:        19.8090408
  entropy:            93.7658137
  heat_capacity:      84.8131575
  energy:            105.1359313

- temperature:       920.0000000
  free_energy:        18.8667346
  entropy:            94.6942356
  heat_capacity:      85.0856267
  energy:            105.9854313

- temperature:       930.0000000
  free_energy:        17.9151799
  entropy:            95.6155270
  heat_capacity:      85.3509432
  energy:            106.8376200

- temperature:       940.0000000
  free_energy:        16.9544476
  entropy:            96.5297655
  heat_capacity:      85.6093395
  energy:            107.6924271

- temperature:       950.0000000
  free_energy:        15.9846078
  entropy:            97.4370281
  heat_capacity:      85.8610396
  energy:            108.5497845

- temperature:       960.0000000
  free_energy:        15.0057300
  entropy:            98.3373920
  heat_capacity:      86.1062591
  energy:            109.4096263

- temperature:       970.0000000
  free_energy:        14.0178827
  entropy:            99.2309341
  heat_capacity:      86.3452055
  energy:            110.2718888

- temperature:       980.0000000
  free_energy:        13.0211338
  entropy:           100.1177310
  heat_capacity:      86.5780790
  energy:            111.1365102

- temperature:       990.0000000
  free_energy:        12.0155504
  entropy:           100.9978590
  heat_capacity:      86.8050722
  energy:            112.0034308

- temperature:      1000.0000000
  free_energy:        11.0011986
  entropy:           101.8713940
  heat_capacity:      87.0263708
  energy:            112.8725926
