   32   32    1    1
  0.9128901E+01  0.4934311E-09  0.4934311E-09  0.1385503E-08  0.5000000E-15
  1.000000000000000E-004
  CAR 
 graphite                                
    128    163     84
 
  0.0000000E+00  0.0000000E+00  0.0000000E+00  0.3086420E-02
    1      -15.198121
    2      -15.084673
    3      -15.084297
    4      -14.964559
    5       -9.894546
    6       -9.892041
    7       -9.889885
    8       -9.850212
    9       -9.846408
   10       -9.846116
   11       -9.845611
   12       -9.845593
   13       -9.841905
   14       -9.807798
   15       -9.805982
   16       -9.803710
   17       -8.826296
   18       -8.824800
   19       -8.823750
   20       -8.801249
   21       -8.798939
   22       -8.797938
   23       -8.797432
   24       -8.797416
   25       -8.794906
   26       -8.760847
   27       -8.759551
   28       -8.757687
   29       -3.969970
   30       -3.213041
   31       -3.211555
   32       -2.303175
   33       -1.999765
   34       -1.997365
   35       -1.996326
   36       -1.980557
   37       -1.978201
   38       -1.978195
   39       -1.976953
   40       -1.975047
   41       -1.974447
   42       -1.958707
   43       -1.956263
   44       -1.955095
   45        1.384224
   46        1.389110
   47        1.394330
   48        1.395083
   49        1.397963
   50        1.399127
   51        1.404074
   52        1.408649
   53        1.710187
   54        1.712183
   55        1.713947
   56        2.039736
   57        2.043271
   58        2.043410
   59        2.043514
   60        2.043621
   61        2.046980
   62        2.287154
   63        2.288694
   64        2.290209
   65        5.900661
   66        5.902044
   67        5.903277
   68        6.049599
   69        6.053691
   70        6.055216
   71        6.055689
   72        6.056016
   73        6.060241
   74        6.495166
   75        6.497090
   76        6.499115
   77        8.454737
   78       10.848911
   79       10.851797
   80       11.623794
   81       11.627568
   82       11.630465
   83       11.775828
   84       11.779364
 
  0.1111111E+00  0.0000000E+00  0.0000000E+00  0.6172840E-02
    1      -15.124667
    2      -15.011705
    3      -15.011328
    4      -14.892161
    5      -10.677949
    6      -10.598270
    7      -10.598035
    8      -10.515850
    9      -10.136726
   10      -10.134253
   11      -10.069412
   12      -10.066949
   13      -10.066213
   14      -10.064778
   15       -9.999045
   16       -9.996609
   17       -8.513260
   18       -8.511883
   19       -8.458551
   20       -8.458199
   21       -8.456975
   22       -8.455248
   23       -8.398062
   24       -8.396487
   25       -7.999958
   26       -7.938676
   27       -7.936665
   28       -7.872732
   29       -3.880884
   30       -3.126099
   31       -3.124618
   32       -2.225295
   33       -2.222471
   34       -2.219140
   35       -2.203626
   36       -2.201836
   37       -2.199673
   38       -2.198755
   39       -2.179229
   40       -2.176557
   41       -1.925213
   42       -1.906124
   43       -1.903832
   44       -1.884334
   45        1.084928
   46        1.095406
   47        1.099884
   48        1.107557
   49        1.138851
   50        1.232094
   51        1.239360
   52        1.242976
   53        1.252760
   54        1.600575
   55        1.602907
   56        1.617587
   57        1.619678
   58        1.988175
   59        1.991725
   60        1.991874
   61        1.992761
   62        2.098600
   63        2.322822
   64        2.324820
   65        5.990294
   66        5.991670
   67        6.183577
   68        6.185104
   69        6.186170
   70        6.190291
   71        6.304688
   72        6.591170
   73        6.595653
   74        6.629672
   75        6.631965
   76        7.084666
   77        8.544630
   78       10.929657
   79       10.932531
   80       11.666286
   81       11.815907
   82       11.816752
   83       11.963486
   84       11.968411
 
  0.2222222E+00  0.1387779E-16  0.0000000E+00  0.6172840E-02
    1      -14.904665
    2      -14.793150
    3      -14.792770
    4      -14.675295
    5      -11.685433
    6      -11.596172
    7      -11.595819
    8      -11.503155
    9      -10.481460
   10      -10.479469
   11      -10.404257
   12      -10.402332
   13      -10.401774
   14      -10.400395
   15      -10.322337
   16      -10.320320
   17       -7.831388
   18       -7.829783
   19       -7.771578
   20       -7.771273
   21       -7.769849
   22       -7.768330
   23       -7.708266
   24       -7.706544
   25       -6.677428
   26       -6.620394
   27       -6.618470
   28       -6.559607
   29       -3.614455
   30       -2.866186
   31       -2.864722
   32       -2.830260
   33       -2.827673
   34       -2.803040
   35       -2.801252
   36       -2.799388
   37       -2.798368
   38       -2.772840
   39       -2.770348
   40       -1.968404
   41       -1.710701
   42       -1.691919
   43       -1.689551
   44       -1.670528
   45        0.131972
   46        0.262711
   47        0.277323
   48        0.281550
   49        0.295882
   50        0.729527
   51        0.731051
   52        0.813974
   53        0.824474
   54        0.828273
   55        0.839901
   56        1.390183
   57        1.392362
   58        1.402964
   59        1.867054
   60        1.870598
   61        1.870748
   62        1.871687
   63        2.348574
   64        2.350723
   65        6.258388
   66        6.260152
   67        6.516450
   68        6.517735
   69        6.518804
   70        6.522785
   71        6.938349
   72        6.940720
   73        7.457289
   74        7.811951
   75        7.815691
   76        8.295991
   77        8.814928
   78       11.171183
   79       11.174041
   80       11.779398
   81       11.924236
   82       11.925264
   83       12.049684
   84       12.771943
 
  0.3333333E+00  0.2775558E-16  0.0000000E+00  0.6172840E-02
    1      -14.539147
    2      -14.430149
    3      -14.429764
    4      -14.315087
    5      -12.595786
    6      -12.500137
    7      -12.499753
    8      -12.400067
    9      -10.737331
   10      -10.735552
   11      -10.656253
   12      -10.654475
   13      -10.654132
   14      -10.652704
   15      -10.570496
   16      -10.568681
   17       -7.025466
   18       -7.023644
   19       -6.970624
   20       -6.970243
   21       -6.968827
   22       -6.966992
   23       -6.913261
   24       -6.911297
   25       -5.247629
   26       -5.198464
   27       -5.196308
   28       -5.146117
   29       -3.643920
   30       -3.641645
   31       -3.611670
   32       -3.609654
   33       -3.608427
   34       -3.607138
   35       -3.575777
   36       -3.573580
   37       -3.173368
   38       -2.436403
   39       -2.434956
   40       -1.554593
   41       -1.362484
   42       -1.344419
   43       -1.341892
   44       -1.323544
   45       -0.919665
   46       -0.897801
   47       -0.893102
   48       -0.880332
   49       -0.870108
   50       -0.222965
   51       -0.221609
   52        0.252808
   53        0.266054
   54        0.269611
   55        0.283527
   56        0.544095
   57        1.205927
   58        1.208008
   59        1.742992
   60        1.746508
   61        1.746671
   62        1.747667
   63        2.330341
   64        2.332574
   65        6.629639
   66        6.631787
   67        6.905845
   68        6.906732
   69        6.907663
   70        6.911584
   71        7.254385
   72        7.256865
   73        8.963244
   74        9.263390
   75        9.289020
   76        9.291458
   77        9.711272
   78       11.562110
   79       11.565102
   80       11.615565
   81       12.009695
   82       12.087573
   83       12.088851
   84       12.326506
 
  0.4444444E+00  0.2775558E-16  0.0000000E+00  0.6172840E-02
    1      -14.030070
    2      -13.924582
    3      -13.924182
    4      -13.813378
    5      -13.380521
    6      -13.279479
    7      -13.279104
    8      -13.173261
    9      -10.869409
   10      -10.867717
   11      -10.787070
   12      -10.785274
   13      -10.785158
   14      -10.783640
   15      -10.699579
   16      -10.697833
   17       -6.281760
   18       -6.279922
   19       -6.242750
   20       -6.242154
   21       -6.241556
   22       -6.238393
   23       -6.202796
   24       -6.200534
   25       -4.394735
   26       -4.392939
   27       -4.368262
   28       -4.365549
   29       -4.365169
   30       -4.363732
   31       -4.335654
   32       -4.334110
   33       -3.770476
   34       -3.730381
   35       -3.727855
   36       -3.686878
   37       -2.562930
   38       -2.302152
   39       -2.271130
   40       -2.268039
   41       -2.236299
   42       -1.842664
   43       -1.841351
   44       -1.792494
   45       -1.097577
   46       -1.096241
   47       -0.985540
   48       -0.896986
   49       -0.880019
   50       -0.877268
   51       -0.860007
   52       -0.342844
   53       -0.327486
   54       -0.324250
   55       -0.308331
   56       -0.275990
   57        1.103246
   58        1.105272
   59        1.668325
   60        1.671819
   61        1.671990
   62        1.673025
   63        2.305947
   64        2.308211
   65        6.918424
   66        6.920825
   67        7.171538
   68        7.172036
   69        7.172490
   70        7.176615
   71        7.435632
   72        7.438127
   73        9.894523
   74       10.577628
   75       10.694524
   76       10.821813
   77       10.825723
   78       11.177642
   79       11.963177
   80       11.971983
   81       12.159659
   82       12.226839
   83       12.256820
   84       12.259626
 
  0.8470329E-21  0.1111111E+00  0.0000000E+00  0.6172840E-02
    1      -15.124665
    2      -15.011702
    3      -15.011327
    4      -14.892159
    5      -10.678055
    6      -10.598443
    7      -10.598099
    8      -10.515983
    9      -10.136642
   10      -10.134004
   11      -10.069178
   12      -10.066949
   13      -10.066220
   14      -10.064285
   15       -9.998934
   16       -9.996332
   17       -8.514427
   18       -8.512064
   19       -8.460720
   20       -8.458534
   21       -8.456960
   22       -8.455126
   23       -8.399077
   24       -8.396517
   25       -7.998972
   26       -7.936836
   27       -7.936622
   28       -7.871828
   29       -3.880889
   30       -3.126104
   31       -3.124623
   32       -2.223823
   33       -2.222700
   34       -2.219146
   35       -2.201846
   36       -2.201675
   37       -2.199322
   38       -2.198755
   39       -2.177841
   40       -2.176739
   41       -1.926226
   42       -1.906218
   43       -1.906107
   44       -1.885763
   45        1.089898
   46        1.098711
   47        1.099876
   48        1.108612
   49        1.138227
   50        1.230890
   51        1.239366
   52        1.239406
   53        1.247838
   54        1.600954
   55        1.603544
   56        1.617401
   57        1.618126
   58        1.989079
   59        1.991716
   60        1.991868
   61        1.994320
   62        2.097558
   63        2.323232
   64        2.325582
   65        5.989199
   66        5.990872
   67        6.181257
   68        6.184383
   69        6.186319
   70        6.189096
   71        6.306467
   72        6.593901
   73        6.596351
   74        6.628370
   75        6.631131
   76        7.086406
   77        8.544625
   78       10.929639
   79       10.932514
   80       11.665668
   81       11.815333
   82       11.816028
   83       11.961988
   84       11.966853
 
  0.1111111E+00  0.1111111E+00  0.0000000E+00  0.6172840E-02
    1      -14.977904
    2      -14.865936
    3      -14.865558
    4      -14.747519
    5      -11.140684
    6      -11.137774
    7      -11.057299
    8      -11.054232
    9      -11.054213
   10      -11.051451
   11      -10.967671
   12      -10.964710
   13       -9.704753
   14       -9.660457
   15       -9.658854
   16       -9.620253
   17       -8.641265
   18       -8.616783
   19       -8.613849
   20       -8.578410
   21       -7.319446
   22       -7.316217
   23       -7.260819
   24       -7.256716
   25       -7.256695
   26       -7.254552
   27       -7.195878
   28       -7.192786
   29       -3.703115
   30       -2.952676
   31       -2.951205
   32       -2.903226
   33       -2.875946
   34       -2.873531
   35       -2.845382
   36       -2.079917
   37       -2.077631
   38       -2.058437
   39       -2.056829
   40       -2.056822
   41       -2.053334
   42       -2.051712
   43       -2.034983
   44       -2.031961
   45        0.555077
   46        0.565276
   47        0.569577
   48        0.577163
   49        0.710971
   50        0.712754
   51        0.919584
   52        0.925627
   53        0.929133
   54        0.938623
   55        1.258417
   56        1.260089
   57        1.260204
   58        1.263175
   59        1.852944
   60        1.855227
   61        1.977470
   62        2.306530
   63        2.309202
   64        2.549263
   65        5.876815
   66        5.978885
   67        5.983344
   68        6.337975
   69        6.801308
   70        6.803787
   71        7.131363
   72        7.136164
   73        7.136424
   74        7.137947
   75        7.612352
   76        7.615085
   77        8.724883
   78       11.091544
   79       11.094406
   80       12.036027
   81       12.039990
   82       12.185876
   83       12.188455
   84       12.191233
 
  0.2222222E+00  0.1111111E+00  0.0000000E+00  0.6172840E-02
    1      -14.685129
    2      -14.575140
    3      -14.574757
    4      -14.458980
    5      -12.103172
    6      -12.010994
    7      -12.010620
    8      -11.914589
    9      -11.479659
   10      -11.391967
   11      -11.391686
   12      -11.300350
   13       -9.751520
   14       -9.686117
   15       -9.685158
   16       -9.619393
   17       -8.167920
   18       -8.117642
   19       -8.115268
   20       -8.060896
   21       -6.536542
   22       -6.481167
   23       -6.480974
   24       -6.424268
   25       -5.939877
   26       -5.887332
   27       -5.885408
   28       -5.831609
   29       -3.807693
   30       -3.773769
   31       -3.771409
   32       -3.736673
   33       -3.349279
   34       -2.607648
   35       -2.606257
   36       -2.604680
   37       -2.577816
   38       -2.577276
   39       -2.549752
   40       -1.792271
   41       -1.771690
   42       -1.769384
   43       -1.748466
   44       -1.719264
   45       -0.394949
   46       -0.379665
   47       -0.374727
   48       -0.360556
   49       -0.319480
   50        0.310161
   51        0.311443
   52        0.375608
   53        0.380863
   54        0.385759
   55        0.390654
   56        0.402588
   57        0.972964
   58        0.974065
   59        1.035535
   60        1.639119
   61        2.120231
   62        2.508465
   63        2.511064
   64        2.841531
   65        5.864920
   66        5.985520
   67        5.989578
   68        6.286711
   69        7.381492
   70        7.703870
   71        7.705840
   72        8.112582
   73        8.163038
   74        8.501446
   75        8.504728
   76        8.938237
   77        9.086357
   78       11.413634
   79       11.416518
   80       12.112139
   81       12.293631
   82       12.324807
   83       12.325767
   84       12.629519
 
  0.3333333E+00  0.1111111E+00  0.0000000E+00  0.6172840E-02
    1      -14.247804
    2      -14.140828
    3      -14.140435
    4      -14.028004
    5      -12.951308
    6      -12.853226
    7      -12.852851
    8      -12.750283
    9      -11.687020
   10      -11.597836
   11      -11.597556
   12      -11.504514
   13       -9.894337
   14       -9.820774
   15       -9.820260
   16       -9.744511
   17       -7.403681
   18       -7.353549
   19       -7.351341
   20       -7.299973
   21       -5.740602
   22       -5.695383
   23       -5.694569
   24       -5.648584
   25       -4.742224
   26       -4.706680
   27       -4.704142
   28       -4.667303
   29       -4.493965
   30       -4.450188
   31       -4.448036
   32       -4.403150
   33       -3.303287
   34       -3.274305
   35       -3.272972
   36       -3.242738
   37       -2.823233
   38       -2.095972
   39       -2.094503
   40       -1.636292
   41       -1.611461
   42       -1.607433
   43       -1.583324
   44       -1.376617
   45       -1.357256
   46       -1.354838
   47       -1.335111
   48       -1.288956
   49       -1.227343
   50       -0.612424
   51       -0.611114
   52       -0.247297
   53       -0.233059
   54       -0.229171
   55       -0.214112
   56        0.175404
   57        0.182631
   58        0.789853
   59        0.791094
   60        1.494968
   61        2.127714
   62        2.598274
   63        2.600476
   64        3.078628
   65        5.890006
   66        6.102620
   67        6.105744
   68        6.383041
   69        7.886874
   70        8.158345
   71        8.159929
   72        8.457872
   73        9.626996
   74        9.723123
   75       10.005292
   76       10.008396
   77       10.369548
   78       11.228756
   79       11.869856
   80       11.873704
   81       12.426947
   82       12.486978
   83       12.488174
   84       12.708760
 
  0.4444444E+00  0.1111111E+00  0.0000000E+00  0.6172840E-02
    1      -13.669960
    2      -13.667232
    3      -13.568212
    4      -13.565296
    5      -13.565173
    6      -13.562726
    7      -13.458478
    8      -13.455703
    9      -11.756875
   10      -11.666976
   11      -11.666698
   12      -11.573128
   13       -9.949757
   14       -9.874658
   15       -9.874298
   16       -9.796566
   17       -6.903106
   18       -6.871859
   19       -6.869835
   20       -6.840075
   21       -5.268566
   22       -5.262181
   23       -5.243924
   24       -5.243007
   25       -5.241163
   26       -5.240127
   27       -5.218176
   28       -5.215868
   29       -3.726677
   30       -3.709698
   31       -3.706569
   32       -3.686946
   33       -3.038087
   34       -3.034589
   35       -3.004645
   36       -2.999062
   37       -2.999011
   38       -2.998899
   39       -2.965195
   40       -2.962698
   41       -2.133203
   42       -2.130986
   43       -1.427204
   44       -1.424840
   45       -1.424653
   46       -1.421829
   47       -0.852688
   48       -0.849445
   49       -0.834699
   50       -0.833101
   51       -0.833032
   52       -0.826528
   53       -0.815002
   54       -0.807724
   55       -0.587960
   56       -0.585442
   57        0.105373
   58        0.726997
   59        0.728372
   60        1.444378
   61        2.119325
   62        2.620677
   63        2.622354
   64        3.162095
   65        5.914779
   66        6.168816
   67        6.170843
   68        6.437628
   69        8.104476
   70        8.336640
   71        8.338341
   72        8.570149
   73       10.344713
   74       10.345592
   75       11.304124
   76       11.307357
   77       11.484685
   78       11.492074
   79       11.492301
   80       11.496619
   81       11.795281
   82       11.798701
   83       12.452702
   84       12.456527
 
 -0.4444444E+00  0.1111111E+00  0.0000000E+00  0.6172840E-02
    1      -14.247890
    2      -14.140908
    3      -14.140527
    4      -14.028090
    5      -12.951169
    6      -12.853095
    7      -12.852706
    8      -12.750145
    9      -11.687228
   10      -11.598044
   11      -11.597765
   12      -11.504722
   13       -9.893977
   14       -9.820299
   15       -9.819996
   16       -9.744131
   17       -7.402930
   18       -7.352017
   19       -7.351490
   20       -7.299350
   21       -5.741738
   22       -5.697171
   23       -5.694887
   24       -5.649540
   25       -4.743303
   26       -4.707038
   27       -4.706139
   28       -4.668557
   29       -4.494293
   30       -4.450668
   31       -4.448172
   32       -4.403441
   33       -3.302035
   34       -3.273751
   35       -3.270671
   36       -3.241190
   37       -2.823331
   38       -2.096069
   39       -2.094599
   40       -1.635867
   41       -1.610640
   42       -1.607919
   43       -1.583315
   44       -1.376363
   45       -1.357161
   46       -1.354320
   47       -1.334709
   48       -1.288810
   49       -1.227437
   50       -0.612300
   51       -0.610955
   52       -0.247224
   53       -0.232560
   54       -0.229989
   55       -0.214908
   56        0.175329
   57        0.182592
   58        0.789465
   59        0.790964
   60        1.494690
   61        2.128116
   62        2.599268
   63        2.600403
   64        3.079209
   65        5.889986
   66        6.103472
   67        6.104982
   68        6.383047
   69        7.886405
   70        8.157544
   71        8.159996
   72        8.457689
   73        9.626867
   74        9.722983
   75       10.004998
   76       10.008437
   77       10.369458
   78       11.228953
   79       11.869748
   80       11.873596
   81       12.426632
   82       12.486363
   83       12.488364
   84       12.709403
 
 -0.3333333E+00  0.1111111E+00  0.0000000E+00  0.6172840E-02
    1      -14.685190
    2      -14.575197
    3      -14.574822
    4      -14.459041
    5      -12.103004
    6      -12.010829
    7      -12.010448
    8      -11.914418
    9      -11.480088
   10      -11.392397
   11      -11.392111
   12      -11.300777
   13       -9.750697
   14       -9.684922
   15       -9.684654
   16       -9.618513
   17       -8.167423
   18       -8.116083
   19       -8.115923
   20       -8.060492
   21       -6.537645
   22       -6.483030
   23       -6.481217
   24       -6.425265
   25       -5.940192
   26       -5.887734
   27       -5.885618
   28       -5.831907
   29       -3.809133
   30       -3.774278
   31       -3.773947
   32       -3.738262
   33       -3.349350
   34       -2.607720
   35       -2.606277
   36       -2.603092
   37       -2.577126
   38       -2.574387
   39       -2.547852
   40       -1.792070
   41       -1.771565
   42       -1.769063
   43       -1.748208
   44       -1.719332
   45       -0.394066
   46       -0.378771
   47       -0.376174
   48       -0.361243
   49       -0.319283
   50        0.310288
   51        0.311645
   52        0.376016
   53        0.380618
   54        0.387243
   55        0.390374
   56        0.400846
   57        0.972208
   58        0.973836
   59        1.035630
   60        1.638567
   61        2.121016
   62        2.510313
   63        2.510923
   64        2.842499
   65        5.865014
   66        5.986653
   67        5.988535
   68        6.286636
   69        7.380857
   70        7.702733
   71        7.705877
   72        8.112258
   73        8.162842
   74        8.501105
   75        8.504743
   76        8.938101
   77        9.086264
   78       11.413536
   79       11.416417
   80       12.112145
   81       12.293545
   82       12.324366
   83       12.325849
   84       12.629377
 
 -0.2222222E+00  0.1111111E+00  0.0000000E+00  0.6172840E-02
    1      -14.977941
    2      -14.865971
    3      -14.865597
    4      -14.747555
    5      -11.139811
    6      -11.138984
    7      -11.055116
    8      -11.054796
    9      -11.054258
   10      -11.053957
   11      -10.966904
   12      -10.966067
   13       -9.703288
   14       -9.658317
   15       -9.658095
   16       -9.618828
   17       -8.641099
   18       -8.615465
   19       -8.615286
   20       -8.578642
   21       -7.318462
   22       -7.318181
   23       -7.258899
   24       -7.258446
   25       -7.256958
   26       -7.256760
   27       -7.195115
   28       -7.194819
   29       -3.703158
   30       -2.952720
   31       -2.951246
   32       -2.904834
   33       -2.876550
   34       -2.876363
   35       -2.847181
   36       -2.077972
   37       -2.077462
   38       -2.056737
   39       -2.056376
   40       -2.054429
   41       -2.053713
   42       -2.051747
   43       -2.032760
   44       -2.032317
   45        0.556587
   46        0.565918
   47        0.566439
   48        0.575343
   49        0.710768
   50        0.712408
   51        0.921601
   52        0.928717
   53        0.928824
   54        0.936534
   55        1.258321
   56        1.260114
   57        1.260244
   58        1.261985
   59        1.852826
   60        1.854639
   61        1.978540
   62        2.308827
   63        2.309067
   64        2.550358
   65        5.877077
   66        5.980038
   67        5.982355
   68        6.337860
   69        6.801583
   70        6.802792
   71        7.131988
   72        7.134405
   73        7.135999
   74        7.138111
   75        7.612802
   76        7.614103
   77        8.724825
   78       11.091478
   79       11.094340
   80       12.038275
   81       12.041500
   82       12.188477
   83       12.190134
   84       12.191624
 
 -0.1111111E+00  0.1111111E+00  0.0000000E+00  0.6172840E-02
    1      -15.124677
    2      -15.011714
    3      -15.011340
    4      -14.892171
    5      -10.678938
    6      -10.599401
    7      -10.598916
    8      -10.516876
    9      -10.135743
   10      -10.133534
   11      -10.068129
   12      -10.066055
   13      -10.066043
   14      -10.063652
   15       -9.998066
   16       -9.995804
   17       -8.514112
   18       -8.512209
   19       -8.460299
   20       -8.457159
   21       -8.457140
   22       -8.456641
   23       -8.398712
   24       -8.396959
   25       -7.999612
   26       -7.938219
   27       -7.936453
   28       -7.872400
   29       -3.880903
   30       -3.126119
   31       -3.124636
   32       -2.225178
   33       -2.223125
   34       -2.219162
   35       -2.203122
   36       -2.201810
   37       -2.201803
   38       -2.198489
   39       -2.179501
   40       -2.176752
   41       -1.924519
   42       -1.905551
   43       -1.902969
   44       -1.883731
   45        1.088188
   46        1.096394
   47        1.099780
   48        1.109162
   49        1.137583
   50        1.229249
   51        1.238814
   52        1.242882
   53        1.249826
   54        1.601808
   55        1.603982
   56        1.615796
   57        1.617709
   58        1.990679
   59        1.991720
   60        1.991787
   61        1.995130
   62        2.096530
   63        2.323982
   64        2.325972
   65        5.988975
   66        5.991372
   67        6.180699
   68        6.186167
   69        6.186542
   70        6.187978
   71        6.306006
   72        6.592739
   73        6.596697
   74        6.628246
   75        6.631221
   76        7.086140
   77        8.544606
   78       10.929616
   79       10.932491
   80       11.669559
   81       11.818843
   82       11.820370
   83       11.958141
   84       11.970597
 
 -0.1694066E-20  0.2222222E+00  0.0000000E+00  0.6172840E-02
    1      -14.904658
    2      -14.793139
    3      -14.792767
    4      -14.675287
    5      -11.685416
    6      -11.596147
    7      -11.595812
    8      -11.503140
    9      -10.481811
   10      -10.479073
   11      -10.404895
   12      -10.402334
   13      -10.401778
   14      -10.399531
   15      -10.322623
   16      -10.319861
   17       -7.832644
   18       -7.829749
   19       -7.773970
   20       -7.771551
   21       -7.769837
   22       -7.767771
   23       -7.709350
   24       -7.706354
   25       -6.676516
   26       -6.618661
   27       -6.618438
   28       -6.558749
   29       -3.614473
   30       -2.866209
   31       -2.864738
   32       -2.829181
   33       -2.827540
   34       -2.801656
   35       -2.801257
   36       -2.798392
   37       -2.798305
   38       -2.771758
   39       -2.770113
   40       -1.968430
   41       -1.711768
   42       -1.692061
   43       -1.691907
   44       -1.672046
   45        0.131509
   46        0.265708
   47        0.281351
   48        0.281544
   49        0.297484
   50        0.729209
   51        0.730253
   52        0.812529
   53        0.824305
   54        0.824484
   55        0.836199
   56        1.390350
   57        1.393105
   58        1.402404
   59        1.867662
   60        1.870577
   61        1.870698
   62        1.873417
   63        2.348945
   64        2.351575
   65        6.257071
   66        6.259435
   67        6.513798
   68        6.517167
   69        6.518884
   70        6.521844
   71        6.936719
   72        6.940290
   73        7.458711
   74        7.813936
   75        7.816299
   76        8.297261
   77        8.814915
   78       11.171118
   79       11.173977
   80       11.778759
   81       11.923859
   82       11.924313
   83       12.049013
   84       12.772053
 
  0.1111111E+00  0.2222222E+00  0.0000000E+00  0.6172840E-02
    1      -14.685123
    2      -14.575132
    3      -14.574754
    4      -14.458975
    5      -12.103134
    6      -12.010933
    7      -12.010605
    8      -11.914550
    9      -11.479686
   10      -11.392004
   11      -11.391701
   12      -11.300375
   13       -9.751510
   14       -9.686095
   15       -9.685158
   16       -9.619382
   17       -8.167986
   18       -8.117640
   19       -8.115430
   20       -8.060992
   21       -6.537541
   22       -6.482983
   23       -6.481104
   24       -6.425220
   25       -5.938880
   26       -5.885484
   27       -5.885317
   28       -5.830663
   29       -3.807600
   30       -3.773614
   31       -3.771410
   32       -3.736608
   33       -3.349293
   34       -2.607657
   35       -2.606221
   36       -2.603567
   37       -2.577287
   38       -2.575261
   39       -2.548348
   40       -1.793440
   41       -1.772051
   42       -1.771680
   43       -1.750023
   44       -1.719284
   45       -0.393055
   46       -0.377930
   47       -0.374730
   48       -0.360020
   49       -0.319829