 running on    6 total cores
 distrk:  each k-point on    6 cores,    1 groups
 distr:  one band on    1 cores,    6 groups
 using from now: INCAR     
 vasp.5.3.5 31Mar14 (build Nov 02 2014 15:17:37) complex                        
  
 POSCAR found :  1 types and      32 ions
 scaLAPACK will be used

 ----------------------------------------------------------------------------- 
|                                                                             |
|           W    W    AA    RRRRR   N    N  II  N    N   GGGG   !!!           |
|           W    W   A  A   R    R  NN   N  II  NN   N  G    G  !!!           |
|           W    W  A    A  R    R  N N  N  II  N N  N  G       !!!           |
|           W WW W  AAAAAA  RRRRR   N  N N  II  N  N N  G  GGG   !            |
|           WW  WW  A    A  R   R   N   NN  II  N   NN  G    G                |
|           W    W  A    A  R    R  N    N  II  N    N   GGGG   !!!           |
|                                                                             |
|      For optimal performance we recommend to set                            |
|        NCORE= 4 - approx SQRT( number of cores)                             |
|      NCORE specifies how many cores store one orbital (NPAR=cpu/NCORE).     |
|      This setting can  greatly improve the performance of VASP for DFT.     |
|      The default, NPAR=number of cores might be grossly inefficient         |
|      on modern multi-core architectures or massively parallel machines.     |
|      Do your own testing !!!!                                               |
|      Unfortunately you need to use the default for GW and RPA calculations. |
|      (for HF NCORE is supported but not extensively tested yet)             |
|                                                                             |
 ----------------------------------------------------------------------------- 


 ----------------------------------------------------------------------------- 
|                                                                             |
|  ADVICE TO THIS USER RUNNING 'VASP/VAMP'   (HEAR YOUR MASTER'S VOICE ...):  |
|                                                                             |
|      You have a (more or less) 'large supercell' and for larger cells       |
|      it might be more efficient to use real space projection operators      |
|      So try LREAL= Auto  in the INCAR   file.                               |
|      Mind: If you want to do a very accurate calculations keep the          |
|      reciprocal projection scheme          (i.e. LREAL=.FALSE.)             |
|                                                                             |
 ----------------------------------------------------------------------------- 

 LDA part: xc-table for Pade appr. of Perdew
 POSCAR, INCAR and KPOINTS ok, starting setup
 WARNING: small aliasing (wrap around) errors must be expected
 FFT: planning ...
 WAVECAR not read
 WARNING: random wavefunctions but no delay for mixing, default for NELMDL
 entering main loop
       N       E                     dE             d eps       ncg     rms          rms(c)
DAV:   1     0.606597211553E+03    0.60660E+03   -0.71358E+04 27384   0.159E+03
DAV:   2    -0.261448634952E+03   -0.86805E+03   -0.83716E+03 34200   0.312E+02
DAV:   3    -0.312903548540E+03   -0.51455E+02   -0.50976E+02 33372   0.766E+01
DAV:   4    -0.313894277230E+03   -0.99073E+00   -0.98881E+00 35040   0.115E+01
DAV:   5    -0.313923886815E+03   -0.29610E-01   -0.29597E-01 35268   0.185E+00    0.220E+01
DAV:   6    -0.299405681547E+03    0.14518E+02   -0.14943E+01 31296   0.107E+01    0.116E+01
DAV:   7    -0.294768618029E+03    0.46371E+01   -0.15918E+01 30936   0.110E+01    0.196E+00
DAV:   8    -0.294835375937E+03   -0.66758E-01   -0.47573E-01 31452   0.201E+00    0.527E-01
DAV:   9    -0.294838453926E+03   -0.30780E-02   -0.35444E-02 31668   0.647E-01    0.227E-01
DAV:  10    -0.294837474989E+03    0.97894E-03   -0.17249E-02 41952   0.389E-01    0.142E-01
DAV:  11    -0.294838047412E+03   -0.57242E-03   -0.10775E-02 30924   0.242E-01    0.112E-01
DAV:  12    -0.294838534873E+03   -0.48746E-03   -0.96528E-03 31224   0.211E-01    0.110E-01
DAV:  13    -0.294838327457E+03    0.20742E-03   -0.31612E-03 31320   0.139E-01    0.541E-02
DAV:  14    -0.294838309835E+03    0.17622E-04   -0.53413E-04 32124   0.514E-02    0.367E-02
DAV:  15    -0.294838314241E+03   -0.44057E-05   -0.99333E-05 32880   0.157E-02    0.437E-02
DAV:  16    -0.294838305170E+03    0.90714E-05   -0.18805E-04 25488   0.165E-02    0.307E-02
DAV:  17    -0.294838304079E+03    0.10908E-05   -0.51563E-05 20640   0.725E-03    0.218E-02
DAV:  18    -0.294838353815E+03   -0.49736E-04   -0.59887E-04 29316   0.282E-02    0.575E-02
DAV:  19    -0.294838305702E+03    0.48114E-04   -0.18860E-04 24324   0.267E-02    0.343E-02
DAV:  20    -0.294838317166E+03   -0.11465E-04   -0.16666E-04 20376   0.119E-02    0.434E-02
DAV:  21    -0.294838305083E+03    0.12084E-04   -0.17003E-04 19824   0.152E-02    0.312E-02
DAV:  22    -0.294838311377E+03   -0.62942E-05   -0.23219E-04 19272   0.123E-02    0.397E-02
DAV:  23    -0.294838302425E+03    0.89520E-05   -0.51864E-05 19296   0.857E-03    0.129E-02
DAV:  24    -0.294838302501E+03   -0.76629E-07   -0.23789E-06 19008   0.259E-03
   1 F= -.29777295E+03 E0= -.29777295E+03  d E =0.000000E+00
