   4   4   0   0
  0.9167123E+01  0.2466437E-09  0.2466437E-09  0.6963338E-09  0.5000000E-15
  1.000000000000000E-004
  CAR 
 graphite                                
     18.18059051    -17.24128670  301      4.35796708      1.00000000
    -17.241  0.0000E+00  0.0000E+00
    -17.123  0.0000E+00  0.0000E+00
    -17.005  0.0000E+00  0.0000E+00
    -16.887  0.0000E+00  0.0000E+00
    -16.769  0.0000E+00  0.0000E+00
    -16.651  0.0000E+00  0.0000E+00
    -16.533  0.0000E+00  0.0000E+00
    -16.415  0.0000E+00  0.0000E+00
    -16.297  0.0000E+00  0.0000E+00
    -16.179  0.0000E+00  0.0000E+00
    -16.061  0.0000E+00  0.0000E+00
    -15.942  0.0000E+00  0.0000E+00
    -15.824  0.0000E+00  0.0000E+00
    -15.706  0.0000E+00  0.0000E+00
    -15.588  0.0000E+00  0.0000E+00
    -15.470  0.0000E+00  0.0000E+00
    -15.352  0.0000E+00  0.0000E+00
    -15.234  0.1237E-04  0.2985E-07
    -15.116  0.1315E-02  0.6387E-04
    -14.998  0.2477E-02  0.2954E-03
    -14.880  0.3203E-02  0.6465E-03
    -14.762  0.3076E-02  0.9990E-03
    -14.644  0.3202E-02  0.1373E-02
    -14.526  0.3091E-02  0.1746E-02
    -14.408  0.2973E-02  0.2102E-02
    -14.289  0.3053E-02  0.2457E-02
    -14.171  0.3163E-02  0.2824E-02
    -14.053  0.3197E-02  0.3202E-02
    -13.935  0.3149E-02  0.3577E-02
    -13.817  0.3062E-02  0.3942E-02
    -13.699  0.3054E-02  0.4302E-02
    -13.581  0.3080E-02  0.4664E-02
    -13.463  0.3136E-02  0.5031E-02
    -13.345  0.3194E-02  0.5405E-02
    -13.227  0.3233E-02  0.5785E-02
    -13.109  0.3189E-02  0.6165E-02
    -12.991  0.3125E-02  0.6537E-02
    -12.873  0.3121E-02  0.6905E-02
    -12.755  0.3137E-02  0.7275E-02
    -12.636  0.3153E-02  0.7646E-02
    -12.518  0.3177E-02  0.8020E-02
    -12.400  0.3212E-02  0.8397E-02
    -12.282  0.3250E-02  0.8778E-02
    -12.164  0.3288E-02  0.9164E-02
    -12.046  0.3264E-02  0.9551E-02
    -11.928  0.3232E-02  0.9934E-02
    -11.810  0.3224E-02  0.1031E-01
    -11.692  0.3235E-02  0.1070E-01
    -11.574  0.3263E-02  0.1108E-01
    -11.456  0.3292E-02  0.1147E-01
    -11.338  0.3321E-02  0.1186E-01
    -11.220  0.3351E-02  0.1225E-01
    -11.101  0.3396E-02  0.1265E-01
    -10.983  0.3463E-02  0.1305E-01
    -10.865  0.3526E-02  0.1347E-01
    -10.747  0.3576E-02  0.1389E-01
    -10.629  0.3675E-02  0.1431E-01
    -10.511  0.3831E-02  0.1476E-01
    -10.393  0.3988E-02  0.1522E-01
    -10.275  0.5457E-02  0.1577E-01
    -10.157  0.5945E-02  0.1648E-01
    -10.039  0.4624E-02  0.1710E-01
     -9.921  0.3314E-02  0.1757E-01
     -9.803  0.2715E-02  0.1791E-01
     -9.685  0.2436E-02  0.1822E-01
     -9.567  0.2156E-02  0.1849E-01
     -9.448  0.4016E-02  0.1890E-01
     -9.330  0.1290E-02  0.1929E-01
     -9.212  0.1152E-02  0.1943E-01
     -9.094  0.1014E-02  0.1956E-01
     -8.976  0.8759E-03  0.1967E-01
     -8.858  0.7472E-03  0.1977E-01
     -8.740  0.9660E-03  0.1987E-01
     -8.622  0.1252E-02  0.2000E-01
     -8.504  0.1538E-02  0.2016E-01
     -8.386  0.2963E-02  0.2040E-01
     -8.268  0.5510E-02  0.2090E-01
     -8.150  0.4326E-02  0.2150E-01
     -8.032  0.3818E-02  0.2194E-01
     -7.914  0.4540E-02  0.2243E-01
     -7.795  0.5263E-02  0.2301E-01
     -7.677  0.5985E-02  0.2367E-01
     -7.559  0.5079E-02  0.2438E-01
     -7.441  0.3562E-02  0.2485E-01
     -7.323  0.3455E-02  0.2526E-01
     -7.205  0.3368E-02  0.2566E-01
     -7.087  0.3283E-02  0.2606E-01
     -6.969  0.3197E-02  0.2644E-01
     -6.851  0.3103E-02  0.2681E-01
     -6.733  0.3009E-02  0.2717E-01
     -6.615  0.2914E-02  0.2752E-01
     -6.497  0.2820E-02  0.2786E-01
     -6.379  0.2726E-02  0.2819E-01
     -6.261  0.2631E-02  0.2850E-01
     -6.142  0.2573E-02  0.2881E-01
     -6.024  0.2794E-02  0.2912E-01
     -5.906  0.3023E-02  0.2947E-01
     -5.788  0.3252E-02  0.2984E-01
     -5.670  0.3482E-02  0.3024E-01
     -5.552  0.3711E-02  0.3066E-01
     -5.434  0.3940E-02  0.3111E-01
     -5.316  0.4169E-02  0.3159E-01
     -5.198  0.4153E-02  0.3208E-01
     -5.080  0.3925E-02  0.3257E-01
     -4.962  0.3824E-02  0.3302E-01
     -4.844  0.3822E-02  0.3347E-01
     -4.726  0.3821E-02  0.3392E-01
     -4.607  0.3819E-02  0.3437E-01
     -4.489  0.3864E-02  0.3482E-01
     -4.371  0.3943E-02  0.3529E-01
     -4.253  0.4023E-02  0.3576E-01
     -4.135  0.4103E-02  0.3623E-01
     -4.017  0.4173E-02  0.3672E-01
     -3.899  0.4433E-02  0.3723E-01
     -3.781  0.5008E-02  0.3778E-01
     -3.663  0.5304E-02  0.3839E-01
     -3.545  0.5539E-02  0.3903E-01
     -3.427  0.5775E-02  0.3970E-01
     -3.309  0.5990E-02  0.4039E-01
     -3.191  0.6183E-02  0.4111E-01
     -3.073  0.6921E-02  0.4187E-01
     -2.954  0.7406E-02  0.4273E-01
     -2.836  0.7432E-02  0.4361E-01
     -2.718  0.7347E-02  0.4448E-01
     -2.600  0.7163E-02  0.4534E-01
     -2.482  0.7929E-02  0.4619E-01
     -2.364  0.8774E-02  0.4718E-01
     -2.246  0.9617E-02  0.4826E-01
     -2.128  0.1026E-01  0.4943E-01
     -2.010  0.1339E-01  0.5094E-01
     -1.892  0.1080E-01  0.5239E-01
     -1.774  0.9044E-02  0.5355E-01
     -1.656  0.7793E-02  0.5454E-01
     -1.538  0.7446E-02  0.5543E-01
     -1.420  0.5602E-02  0.5622E-01
     -1.301  0.4532E-02  0.5679E-01
     -1.183  0.4663E-02  0.5733E-01
     -1.065  0.5251E-02  0.5791E-01
     -0.947  0.6206E-02  0.5858E-01
     -0.829  0.6193E-02  0.5932E-01
     -0.711  0.7082E-02  0.6008E-01
     -0.593  0.9572E-02  0.6113E-01
     -0.475  0.7931E-02  0.6214E-01
     -0.357  0.7190E-02  0.6303E-01
     -0.239  0.6671E-02  0.6385E-01
     -0.121  0.6240E-02  0.6461E-01
     -0.003  0.5961E-02  0.6533E-01
      0.115  0.5809E-02  0.6602E-01
      0.234  0.5700E-02  0.6670E-01
      0.352  0.6009E-02  0.6739E-01
      0.470  0.5876E-02  0.6809E-01
      0.588  0.5751E-02  0.6878E-01
      0.706  0.5827E-02  0.6945E-01
      0.824  0.5808E-02  0.7016E-01
      0.942  0.5498E-02  0.7082E-01
      1.060  0.6158E-02  0.7149E-01
      1.178  0.5208E-02  0.7217E-01
      1.296  0.4302E-02  0.7273E-01
      1.414  0.3879E-02  0.7319E-01
      1.532  0.4737E-02  0.7369E-01
      1.650  0.4826E-02  0.7426E-01
      1.768  0.4607E-02  0.7482E-01
      1.887  0.4536E-02  0.7535E-01
      2.005  0.4490E-02  0.7589E-01
      2.123  0.4444E-02  0.7642E-01
      2.241  0.4547E-02  0.7694E-01
      2.359  0.3309E-02  0.7741E-01
      2.477  0.3082E-02  0.7779E-01
      2.595  0.2893E-02  0.7814E-01
      2.713  0.2297E-02  0.7844E-01
      2.831  0.1977E-02  0.7869E-01
      2.949  0.1802E-02  0.7892E-01
      3.067  0.1615E-02  0.7912E-01
      3.185  0.1423E-02  0.7930E-01
      3.303  0.1226E-02  0.7945E-01
      3.421  0.9834E-03  0.7958E-01
      3.540  0.8387E-03  0.7969E-01
      3.658  0.6939E-03  0.7978E-01
      3.776  0.5491E-03  0.7986E-01
      3.894  0.4073E-03  0.7991E-01
      4.012  0.2867E-03  0.7995E-01
      4.130  0.1789E-03  0.7998E-01
      4.248  0.8088E-04  0.8000E-01
      4.366  0.3652E-05  0.8000E-01
      4.484  0.7906E-04  0.8000E-01
      4.602  0.1645E-03  0.8002E-01
      4.720  0.2614E-03  0.8004E-01
      4.838  0.3726E-03  0.8008E-01
      4.956  0.5107E-03  0.8013E-01
      5.074  0.6653E-03  0.8020E-01
      5.193  0.8200E-03  0.8029E-01
      5.311  0.9748E-03  0.8040E-01
      5.429  0.1130E-02  0.8052E-01
      5.547  0.1911E-02  0.8069E-01
      5.665  0.2365E-02  0.8095E-01
      5.783  0.2506E-02  0.8123E-01
      5.901  0.3821E-02  0.8158E-01
      6.019  0.4923E-02  0.8210E-01
      6.137  0.4760E-02  0.8271E-01
      6.255  0.4640E-02  0.8326E-01
      6.373  0.4615E-02  0.8381E-01
      6.491  0.4677E-02  0.8435E-01
      6.609  0.4567E-02  0.8490E-01
      6.728  0.3697E-02  0.8541E-01
      6.846  0.3422E-02  0.8583E-01
      6.964  0.3192E-02  0.8622E-01
      7.082  0.3008E-02  0.8658E-01
      7.200  0.2857E-02  0.8693E-01
      7.318  0.2735E-02  0.8726E-01
      7.436  0.2644E-02  0.8758E-01
      7.554  0.2579E-02  0.8789E-01
      7.672  0.2521E-02  0.8819E-01
      7.790  0.2466E-02  0.8848E-01
      7.908  0.2415E-02  0.8877E-01
      8.026  0.2365E-02  0.8905E-01
      8.144  0.2316E-02  0.8933E-01
      8.262  0.2267E-02  0.8960E-01
      8.381  0.2218E-02  0.8986E-01
      8.499  0.2279E-02  0.9013E-01
      8.617  0.2438E-02  0.9041E-01
      8.735  0.2423E-02  0.9069E-01
      8.853  0.2452E-02  0.9098E-01
      8.971  0.2505E-02  0.9127E-01
      9.089  0.2563E-02  0.9157E-01
      9.207  0.2589E-02  0.9188E-01
      9.325  0.2622E-02  0.9218E-01
      9.443  0.2673E-02  0.9250E-01
      9.561  0.2725E-02  0.9282E-01
      9.679  0.2780E-02  0.9314E-01
      9.797  0.2843E-02  0.9347E-01
      9.915  0.3071E-02  0.9382E-01
     10.034  0.3810E-02  0.9422E-01
     10.152  0.3665E-02  0.9467E-01
     10.270  0.3332E-02  0.9508E-01
     10.388  0.3050E-02  0.9546E-01
     10.506  0.2739E-02  0.9580E-01
     10.624  0.2282E-02  0.9609E-01
     10.742  0.2144E-02  0.9635E-01
     10.860  0.2023E-02  0.9660E-01
     10.978  0.1953E-02  0.9683E-01
     11.096  0.2064E-02  0.9707E-01
     11.214  0.2183E-02  0.9732E-01
     11.332  0.2368E-02  0.9759E-01
     11.450  0.2622E-02  0.9788E-01
     11.569  0.2986E-02  0.9821E-01
     11.687  0.4023E-02  0.9860E-01
     11.805  0.5413E-02  0.9918E-01
     11.923  0.6584E-02  0.9987E-01
     12.041  0.8339E-02  0.1008E+00
     12.159  0.9058E-02  0.1018E+00
     12.277  0.9685E-02  0.1029E+00
     12.395  0.1013E-01  0.1041E+00
     12.513  0.9691E-02  0.1053E+00
     12.631  0.9293E-02  0.1064E+00
     12.749  0.1321E-01  0.1077E+00
     12.867  0.1214E-01  0.1093E+00
     12.985  0.8363E-02  0.1105E+00
     13.103  0.5209E-02  0.1113E+00
     13.222  0.5210E-02  0.1119E+00
     13.340  0.4880E-02  0.1125E+00
     13.458  0.4648E-02  0.1131E+00
     13.576  0.4315E-02  0.1136E+00
     13.694  0.3872E-02  0.1141E+00
     13.812  0.3482E-02  0.1145E+00
     13.930  0.3163E-02  0.1149E+00
     14.048  0.2936E-02  0.1153E+00
     14.166  0.2949E-02  0.1156E+00
     14.284  0.3355E-02  0.1160E+00
     14.402  0.4828E-02  0.1165E+00
     14.520  0.3699E-02  0.1170E+00
     14.638  0.3597E-02  0.1174E+00
     14.756  0.4093E-02  0.1179E+00
     14.875  0.4458E-02  0.1184E+00
     14.993  0.2891E-02  0.1188E+00
     15.111  0.2224E-02  0.1191E+00
     15.229  0.1868E-02  0.1193E+00
     15.347  0.1757E-02  0.1196E+00
     15.465  0.1376E-02  0.1197E+00
     15.583  0.8549E-03  0.1199E+00
     15.701  0.4826E-03  0.1199E+00
     15.819  0.1815E-03  0.1200E+00
     15.937  0.6224E-04  0.1200E+00
     16.055  0.7825E-05  0.1200E+00
     16.173  0.2375E-07  0.1200E+00
     16.291  0.0000E+00  0.1200E+00
     16.409  0.0000E+00  0.1200E+00
     16.528  0.0000E+00  0.1200E+00
     16.646  0.0000E+00  0.1200E+00
     16.764  0.0000E+00  0.1200E+00
     16.882  0.0000E+00  0.1200E+00
     17.000  0.0000E+00  0.1200E+00
     17.118  0.0000E+00  0.1200E+00
     17.236  0.0000E+00  0.1200E+00
     17.354  0.0000E+00  0.1200E+00
     17.472  0.0000E+00  0.1200E+00
     17.590  0.0000E+00  0.1200E+00
     17.708  0.0000E+00  0.1200E+00
     17.826  0.0000E+00  0.1200E+00
     17.944  0.0000E+00  0.1200E+00
     18.063  0.0000E+00  0.1200E+00
     18.181  0.0000E+00  0.1200E+00
