   4   4   0   0
  0.8597121E+01  0.2467155E-09  0.2467155E-09  0.6523970E-09  0.5000000E-15
  1.000000000000000E-004
  CAR 
 graphite                                
     18.78107252    -16.73241737  301      4.90834980      1.00000000
    -16.732  0.0000E+00  0.0000E+00
    -16.614  0.0000E+00  0.0000E+00
    -16.496  0.0000E+00  0.0000E+00
    -16.377  0.0000E+00  0.0000E+00
    -16.259  0.0000E+00  0.0000E+00
    -16.141  0.0000E+00  0.0000E+00
    -16.022  0.0000E+00  0.0000E+00
    -15.904  0.0000E+00  0.0000E+00
    -15.785  0.0000E+00  0.0000E+00
    -15.667  0.0000E+00  0.0000E+00
    -15.549  0.0000E+00  0.0000E+00
    -15.430  0.0000E+00  0.0000E+00
    -15.312  0.0000E+00  0.0000E+00
    -15.193  0.0000E+00  0.0000E+00
    -15.075  0.0000E+00  0.0000E+00
    -14.957  0.0000E+00  0.0000E+00
    -14.838  0.0000E+00  0.0000E+00
    -14.720  0.5045E-04  0.2090E-06
    -14.602  0.1115E-02  0.8385E-04
    -14.483  0.1850E-02  0.2598E-03
    -14.365  0.2612E-02  0.5166E-03
    -14.246  0.3079E-02  0.8731E-03
    -14.128  0.3079E-02  0.1242E-02
    -14.010  0.3071E-02  0.1603E-02
    -13.891  0.3122E-02  0.1970E-02
    -13.773  0.3085E-02  0.2338E-02
    -13.655  0.3099E-02  0.2703E-02
    -13.536  0.3111E-02  0.3071E-02
    -13.418  0.3097E-02  0.3438E-02
    -13.299  0.3124E-02  0.3807E-02
    -13.181  0.3125E-02  0.4177E-02
    -13.063  0.3129E-02  0.4547E-02
    -12.944  0.3112E-02  0.4916E-02
    -12.826  0.3135E-02  0.5285E-02
    -12.708  0.3161E-02  0.5659E-02
    -12.589  0.3160E-02  0.6033E-02
    -12.471  0.3157E-02  0.6407E-02
    -12.352  0.3143E-02  0.6779E-02
    -12.234  0.3159E-02  0.7152E-02
    -12.116  0.3185E-02  0.7527E-02
    -11.997  0.3203E-02  0.7906E-02
    -11.879  0.3203E-02  0.8285E-02
    -11.761  0.3201E-02  0.8664E-02
    -11.642  0.3195E-02  0.9043E-02
    -11.524  0.3210E-02  0.9422E-02
    -11.405  0.3232E-02  0.9803E-02
    -11.287  0.3259E-02  0.1019E-01
    -11.169  0.3269E-02  0.1057E-01
    -11.050  0.3276E-02  0.1096E-01
    -10.932  0.3275E-02  0.1135E-01
    -10.814  0.3291E-02  0.1174E-01
    -10.695  0.3314E-02  0.1213E-01
    -10.577  0.3343E-02  0.1252E-01
    -10.458  0.3377E-02  0.1292E-01
    -10.340  0.3414E-02  0.1332E-01
    -10.222  0.3448E-02  0.1373E-01
    -10.103  0.3493E-02  0.1414E-01
     -9.985  0.3566E-02  0.1456E-01
     -9.866  0.3704E-02  0.1499E-01
     -9.748  0.3887E-02  0.1543E-01
     -9.630  0.4463E-02  0.1591E-01
     -9.511  0.5004E-02  0.1648E-01
     -9.393  0.4912E-02  0.1708E-01
     -9.275  0.3437E-02  0.1757E-01
     -9.156  0.3456E-02  0.1803E-01
     -9.038  0.2353E-02  0.1843E-01
     -8.919  0.2096E-02  0.1870E-01
     -8.801  0.1840E-02  0.1893E-01
     -8.683  0.1583E-02  0.1913E-01
     -8.564  0.1678E-02  0.1932E-01
     -8.446  0.1617E-02  0.1953E-01
     -8.328  0.1137E-02  0.1970E-01
     -8.209  0.1064E-02  0.1981E-01
     -8.091  0.1918E-02  0.1997E-01
     -7.972  0.3459E-02  0.2034E-01
     -7.854  0.3327E-02  0.2075E-01
     -7.736  0.2815E-02  0.2108E-01
     -7.617  0.4323E-02  0.2149E-01
     -7.499  0.4692E-02  0.2202E-01
     -7.381  0.4565E-02  0.2252E-01
     -7.262  0.5315E-02  0.2311E-01
     -7.144  0.4823E-02  0.2373E-01
     -7.025  0.3858E-02  0.2423E-01
     -6.907  0.3699E-02  0.2468E-01
     -6.789  0.3552E-02  0.2511E-01
     -6.670  0.3409E-02  0.2552E-01
     -6.552  0.3267E-02  0.2592E-01
     -6.434  0.3125E-02  0.2629E-01
     -6.315  0.3006E-02  0.2666E-01
     -6.197  0.2963E-02  0.2701E-01
     -6.078  0.2927E-02  0.2736E-01
     -5.960  0.2891E-02  0.2770E-01
     -5.842  0.2853E-02  0.2804E-01
     -5.723  0.2720E-02  0.2837E-01
     -5.605  0.2575E-02  0.2869E-01
     -5.486  0.2900E-02  0.2901E-01
     -5.368  0.3339E-02  0.2937E-01
     -5.250  0.3778E-02  0.2980E-01
     -5.131  0.3848E-02  0.3026E-01
     -5.013  0.3721E-02  0.3070E-01
     -4.895  0.3664E-02  0.3114E-01
     -4.776  0.3607E-02  0.3157E-01
     -4.658  0.3613E-02  0.3200E-01
     -4.539  0.3716E-02  0.3243E-01
     -4.421  0.3811E-02  0.3288E-01
     -4.303  0.3899E-02  0.3333E-01
     -4.184  0.3943E-02  0.3380E-01
     -4.066  0.3957E-02  0.3427E-01
     -3.948  0.3933E-02  0.3473E-01
     -3.829  0.3914E-02  0.3520E-01
     -3.711  0.4028E-02  0.3567E-01
     -3.592  0.4417E-02  0.3616E-01
     -3.474  0.4607E-02  0.3669E-01
     -3.356  0.4828E-02  0.3725E-01
     -3.237  0.5001E-02  0.3783E-01
     -3.119  0.5268E-02  0.3844E-01
     -3.001  0.5474E-02  0.3908E-01
     -2.882  0.5646E-02  0.3974E-01
     -2.764  0.5832E-02  0.4042E-01
     -2.645  0.6024E-02  0.4112E-01
     -2.527  0.6291E-02  0.4184E-01
     -2.409  0.6854E-02  0.4264E-01
     -2.290  0.6900E-02  0.4345E-01
     -2.172  0.7066E-02  0.4428E-01
     -2.054  0.7140E-02  0.4512E-01
     -1.935  0.7191E-02  0.4597E-01
     -1.817  0.7196E-02  0.4679E-01
     -1.698  0.8272E-02  0.4770E-01
     -1.580  0.1092E-01  0.4884E-01
     -1.462  0.1233E-01  0.5023E-01
     -1.343  0.1017E-01  0.5159E-01
     -1.225  0.9366E-02  0.5274E-01
     -1.106  0.8582E-02  0.5380E-01
     -0.988  0.8373E-02  0.5481E-01
     -0.870  0.7671E-02  0.5576E-01
     -0.751  0.5572E-02  0.5652E-01
     -0.633  0.6246E-02  0.5722E-01
     -0.515  0.7429E-02  0.5803E-01
     -0.396  0.7429E-02  0.5891E-01
     -0.278  0.6869E-02  0.5981E-01
     -0.159  0.5910E-02  0.6055E-01
     -0.041  0.5919E-02  0.6125E-01
      0.077  0.6363E-02  0.6197E-01
      0.196  0.7046E-02  0.6276E-01
      0.314  0.6773E-02  0.6363E-01
      0.432  0.6173E-02  0.6438E-01
      0.551  0.5990E-02  0.6509E-01
      0.669  0.5869E-02  0.6580E-01
      0.788  0.5748E-02  0.6648E-01
      0.906  0.5776E-02  0.6716E-01
      1.024  0.5859E-02  0.6786E-01
      1.143  0.5755E-02  0.6855E-01
      1.261  0.5624E-02  0.6922E-01
      1.379  0.5559E-02  0.6988E-01
      1.498  0.5759E-02  0.7056E-01
      1.616  0.5575E-02  0.7123E-01
      1.735  0.5611E-02  0.7191E-01
      1.853  0.5241E-02  0.7259E-01
      1.971  0.3973E-02  0.7310E-01
      2.090  0.4222E-02  0.7361E-01
      2.208  0.4115E-02  0.7410E-01
      2.326  0.4081E-02  0.7458E-01
      2.445  0.4213E-02  0.7507E-01
      2.563  0.4223E-02  0.7557E-01
      2.682  0.4264E-02  0.7608E-01
      2.800  0.4471E-02  0.7659E-01
      2.918  0.4252E-02  0.7713E-01
      3.037  0.3433E-02  0.7757E-01
      3.155  0.2715E-02  0.7792E-01
      3.274  0.2454E-02  0.7823E-01
      3.392  0.2225E-02  0.7851E-01
      3.510  0.1980E-02  0.7875E-01
      3.629  0.1798E-02  0.7898E-01
      3.747  0.1587E-02  0.7918E-01
      3.865  0.1304E-02  0.7935E-01
      3.984  0.1122E-02  0.7949E-01
      4.102  0.9524E-03  0.7962E-01
      4.221  0.7855E-03  0.7972E-01
      4.339  0.6496E-03  0.7980E-01
      4.457  0.5747E-03  0.7987E-01
      4.576  0.4133E-03  0.7993E-01
      4.694  0.2597E-03  0.7997E-01
      4.812  0.1114E-03  0.7999E-01
      4.931  0.1482E-04  0.8000E-01
      5.049  0.1024E-03  0.8001E-01
      5.168  0.1971E-03  0.8002E-01
      5.286  0.2995E-03  0.8005E-01
      5.404  0.4126E-03  0.8010E-01
      5.523  0.5373E-03  0.8015E-01
      5.641  0.6843E-03  0.8022E-01
      5.759  0.9076E-03  0.8032E-01
      5.878  0.1188E-02  0.8044E-01
      5.996  0.1462E-02  0.8060E-01
      6.115  0.1732E-02  0.8079E-01
      6.233  0.2323E-02  0.8103E-01
      6.351  0.3256E-02  0.8135E-01
      6.470  0.5370E-02  0.8183E-01
      6.588  0.4850E-02  0.8248E-01
      6.706  0.4422E-02  0.8304E-01
      6.825  0.4254E-02  0.8354E-01
      6.943  0.4269E-02  0.8405E-01
      7.062  0.3953E-02  0.8453E-01
      7.180  0.3961E-02  0.8500E-01
      7.298  0.3764E-02  0.8546E-01
      7.417  0.3330E-02  0.8588E-01
      7.535  0.3126E-02  0.8626E-01
      7.654  0.2967E-02  0.8662E-01
      7.772  0.2840E-02  0.8696E-01
      7.890  0.2735E-02  0.8729E-01
      8.009  0.2642E-02  0.8761E-01
      8.127  0.2565E-02  0.8792E-01
      8.245  0.2503E-02  0.8822E-01
      8.364  0.2442E-02  0.8851E-01
      8.482  0.2378E-02  0.8880E-01
      8.601  0.2315E-02  0.8907E-01
      8.719  0.2261E-02  0.8934E-01
      8.837  0.2211E-02  0.8961E-01
      8.956  0.2163E-02  0.8987E-01
      9.074  0.2117E-02  0.9012E-01
      9.192  0.2075E-02  0.9037E-01
      9.311  0.2044E-02  0.9061E-01
      9.429  0.2013E-02  0.9085E-01
      9.548  0.2044E-02  0.9109E-01
      9.666  0.2189E-02  0.9134E-01
      9.784  0.2260E-02  0.9161E-01
      9.903  0.2290E-02  0.9188E-01
     10.021  0.2315E-02  0.9215E-01
     10.139  0.2359E-02  0.9243E-01
     10.258  0.2393E-02  0.9271E-01
     10.376  0.2421E-02  0.9299E-01
     10.495  0.2460E-02  0.9328E-01
     10.613  0.2497E-02  0.9357E-01
     10.731  0.2523E-02  0.9387E-01
     10.850  0.2632E-02  0.9418E-01
     10.968  0.2845E-02  0.9450E-01
     11.086  0.3083E-02  0.9485E-01
     11.205  0.2984E-02  0.9521E-01
     11.323  0.2651E-02  0.9555E-01
     11.442  0.2427E-02  0.9585E-01
     11.560  0.2369E-02  0.9613E-01
     11.678  0.2222E-02  0.9640E-01
     11.797  0.2066E-02  0.9666E-01
     11.915  0.2041E-02  0.9690E-01
     12.034  0.2305E-02  0.9715E-01
     12.152  0.3265E-02  0.9747E-01
     12.270  0.4732E-02  0.9794E-01
     12.389  0.6241E-02  0.9859E-01
     12.507  0.6987E-02  0.9938E-01
     12.625  0.8140E-02  0.1003E+00
     12.744  0.9234E-02  0.1013E+00
     12.862  0.9449E-02  0.1024E+00
     12.981  0.8308E-02  0.1035E+00
     13.099  0.7996E-02  0.1044E+00
     13.217  0.8561E-02  0.1054E+00
     13.336  0.1318E-01  0.1068E+00
     13.454  0.1373E-01  0.1085E+00
     13.572  0.8969E-02  0.1097E+00
     13.691  0.6565E-02  0.1107E+00
     13.809  0.5659E-02  0.1114E+00
     13.928  0.5311E-02  0.1120E+00
     14.046  0.4964E-02  0.1126E+00
     14.164  0.4448E-02  0.1132E+00
     14.283  0.4352E-02  0.1137E+00
     14.401  0.4262E-02  0.1142E+00
     14.519  0.3369E-02  0.1147E+00
     14.638  0.2789E-02  0.1150E+00
     14.756  0.2762E-02  0.1154E+00
     14.875  0.3001E-02  0.1157E+00
     14.993  0.3328E-02  0.1161E+00
     15.111  0.2870E-02  0.1164E+00
     15.230  0.3558E-02  0.1168E+00
     15.348  0.4190E-02  0.1173E+00
     15.466  0.4836E-02  0.1178E+00
     15.585  0.3659E-02  0.1183E+00
     15.703  0.2886E-02  0.1187E+00
     15.822  0.2533E-02  0.1190E+00
     15.940  0.2153E-02  0.1193E+00
     16.058  0.1926E-02  0.1195E+00
     16.177  0.1318E-02  0.1198E+00
     16.295  0.8506E-03  0.1199E+00
     16.414  0.3981E-03  0.1200E+00
     16.532  0.1576E-03  0.1200E+00
     16.650  0.3015E-04  0.1200E+00
     16.769  0.1183E-06  0.1200E+00
     16.887  0.0000E+00  0.1200E+00
     17.005  0.0000E+00  0.1200E+00
     17.124  0.0000E+00  0.1200E+00
     17.242  0.0000E+00  0.1200E+00
     17.361  0.0000E+00  0.1200E+00
     17.479  0.0000E+00  0.1200E+00
     17.597  0.0000E+00  0.1200E+00
     17.716  0.0000E+00  0.1200E+00
     17.834  0.0000E+00  0.1200E+00
     17.952  0.0000E+00  0.1200E+00
     18.071  0.0000E+00  0.1200E+00
     18.189  0.0000E+00  0.1200E+00
     18.308  0.0000E+00  0.1200E+00
     18.426  0.0000E+00  0.1200E+00
     18.544  0.0000E+00  0.1200E+00
     18.663  0.0000E+00  0.1200E+00
     18.781  0.0000E+00  0.1200E+00
