    4    4  200    1
  0.8597121E+01  0.2467155E-09  0.2467155E-09  0.6523970E-09  0.5000000E-15
  1.000000000000000E-004
  CAR 
 graphite                                
     16    455     12
 
  0.0000000E+00  0.0000000E+00  0.0000000E+00  0.3858025E-03
    1      -14.732417
    2      -14.360576
    3       -3.696490
    4       -1.433501
    5        1.921181
    6        1.925855
    7        1.946044
    8        1.950700
    9        9.480841
   10       13.238599
   11       13.243696
   12       13.304918
 
  0.5555556E-01  0.1040834E-16  0.0000000E+00  0.1543210E-02
    1      -14.658688
    2      -14.288429
    3       -3.607003
    4       -1.350557
    5        1.621590
    6        1.656154
    7        1.762687
    8        1.794371
    9        9.568205
   10       13.270266
   11       13.354033
   12       13.566198
 
  0.1111111E+00  0.2081668E-16  0.0000000E+00  0.1543210E-02
    1      -14.437858
    2      -14.072297
    3       -3.339204
    4       -1.103016
    5        0.791984
    6        0.848550
    7        1.341747
    8        1.385329
    9        9.831089
   10       13.282829
   11       13.419560
   12       14.447979
 
  0.1666667E+00  0.0000000E+00  0.0000000E+00  0.1543210E-02
    1      -14.071011
    2      -13.713285
    3       -2.895620
    4       -0.694741
    5       -0.396693
    6       -0.313148
    7        0.778339
    8        0.831689
    9       10.269726
   10       13.174527
   11       13.397653
   12       14.034607
 
  0.2222222E+00  0.0000000E+00  0.0000000E+00  0.1543210E-02
    1      -13.559985
    2      -13.213280
    3       -2.281595
    4       -1.786014
    5       -1.673504
    6       -0.134235
    7        0.181110
    8        0.241823
    9       10.880837
   10       12.587905
   11       12.957984
   12       13.269979
 
  0.2777778E+00  0.2775558E-16  0.0000000E+00  0.1543210E-02
    1      -12.908124
    2      -12.575304
    3       -3.260988
    4       -3.119414
    5       -1.505998
    6       -0.374017
    7       -0.308558
    8        0.562352
    9       10.984143
   10       11.650755
   11       11.842228
   12       12.703801
 
  0.3333333E+00  0.2775558E-16  0.0000000E+00  0.1543210E-02
    1      -12.120372
    2      -11.804436
    3       -4.743955
    4       -4.573912
    5       -0.840003
    6       -0.771255
    7       -0.585889
    8        1.361564
    9        9.355651
   10       10.403420
   11       12.360167
   12       12.595848
 
  0.3888889E+00  0.0000000E+00  0.0000000E+00  0.1543210E-02
    1      -11.206387
    2      -10.911213
    3       -6.178956
    4       -5.983317
    5       -1.188794
    6       -1.117711
    7        0.441669
    8        2.180595
    9        7.857270
   10        9.008832
   11       12.234066
   12       12.669725
 
  0.4444444E+00  0.0000000E+00  0.0000000E+00  0.1543210E-02
    1      -10.193673
    2       -9.929564
    3       -7.503717
    4       -7.294140
    5       -1.403574
    6       -1.331235
    7        1.474921
    8        2.785809
    9        6.768161
   10        7.799231
   11       12.114760
   12       12.588490
 
  0.5000000E+00  0.5551115E-16  0.0000000E+00  0.7716049E-03
    1       -9.389897
    2       -9.249792
    3       -8.301074
    4       -8.196423
    5       -1.476199
    6       -1.403081
    7        2.082938
    8        2.875853
    9        6.453962
   10        7.190021
   11       12.073202
   12       12.557251
 
  0.5555556E-01  0.5555556E-01  0.0000000E+00  0.7716049E-03
    1      -14.511411
    2      -14.144276
    3       -3.428353
    4       -1.185284
    5        1.090681
    6        1.124556
    7        1.451744
    8        1.479328
    9        9.743548
   10       13.372076
   11       13.474935
   12       14.110306
 
  0.1111111E+00  0.5555556E-01  0.0000000E+00  0.1543210E-02
    1      -14.217520
    2      -13.856698
    3       -3.072570
    4       -0.857200
    5        0.134462
    6        0.191853
    7        0.904420
    8        0.946077
    9       10.095387
   10       13.455723
   11       13.620084
   12       14.510093
 
  0.1666667E+00  0.5555556E-01  0.0000000E+00  0.1543210E-02
    1      -13.778568
    2      -13.427175
    3       -2.543571
    4       -1.115057
    5       -1.024662
    6       -0.372296
    7        0.277427
    8        0.334533
    9       10.622630
   10       13.227746
   11       13.357639
   12       13.620321
 
  0.2222222E+00  0.5555556E-01  0.0000000E+00  0.1543210E-02
    1      -13.197096
    2      -12.858156
    3       -2.522485
    4       -2.399976
    5       -1.847987
    6       -0.327866
    7       -0.260793
    8        0.257952
    9       11.319735
   10       11.725739
   11       12.438668
   12       13.140836
 
  0.2777778E+00  0.5555556E-01  0.0000000E+00  0.1543210E-02
    1      -12.477136
    2      -12.153597
    3       -3.987128
    4       -3.834126
    5       -0.998068
    6       -0.855076
    7       -0.781841
    8        1.010966
    9       10.123606
   10       11.039496
   11       12.164088
   12       12.902634
 
  0.3333333E+00  0.5555556E-01  0.0000000E+00  0.1543210E-02
    1      -11.625518
    2      -11.320848
    3       -5.438797
    4       -5.257611
    5       -1.271559
    6       -1.194307
    7       -0.018244
    8        1.836222
    9        8.557334
   10        9.634215
   11       12.630903
   12       12.983221
 
  0.3888889E+00  0.5555556E-01  0.0000000E+00  0.1543210E-02
    1      -10.657448
    2      -10.376443
    3       -6.821373
    4       -6.617501
    5       -1.557985
    6       -1.478376
    7        1.033253
    8        2.596300
    9        7.224430
   10        8.322864
   11       12.489167
   12       12.955077
 
  0.4444444E+00  0.5555556E-01  0.0000000E+00  0.1543210E-02
    1       -9.644318
    2       -9.419710
    3       -8.011169
    4       -7.822709
    5       -1.703629
    6       -1.622828
    7        1.960800
    8        2.946478
    9        6.512359
   10        7.324676
   11       12.407347
   12       12.897072
 
  0.5000000E+00  0.5555556E-01  0.0000000E+00  0.1543210E-02
    1       -9.644489
    2       -9.419849
    3       -8.010902
    4       -7.822515
    5       -1.703652
    6       -1.622828
    7        1.960740
    8        2.946493
    9        6.512358
   10        7.324671
   11       12.407430
   12       12.897164
 
 -0.4444444E+00  0.5555556E-01  0.0000000E+00  0.1543210E-02
    1      -10.657643
    2      -10.376636
    3       -6.821137
    4       -6.617266
    5       -1.558083
    6       -1.478475
    7        1.033158
    8        2.596279
    9        7.224426
   10        8.322821
   11       12.489420
   12       12.955356
 
 -0.3888889E+00  0.5555556E-01  0.0000000E+00  0.1543210E-02
    1      -11.625690
    2      -11.321021
    3       -5.438572
    4       -5.257288
    5       -1.271654
    6       -1.194433
    7       -0.018342
    8        1.836177
    9        8.557289
   10        9.634109
   11       12.631337
   12       12.983579
 
 -0.3333333E+00  0.5555556E-01  0.0000000E+00  0.1543210E-02
    1      -12.477286
    2      -12.153747
    3       -3.986966
    4       -3.833982
    5       -0.998160
    6       -0.855180
    7       -0.781960
    8        1.010912
    9       10.123483
   10       11.039313
   11       12.164012
   12       12.903233
 
 -0.2777778E+00  0.5555556E-01  0.0000000E+00  0.1543210E-02
    1      -13.197219
    2      -12.858279
    3       -2.522490
    4       -2.400022
    5       -1.848068
    6       -0.327806
    7       -0.260775
    8        0.257900
    9       11.319623
   10       11.725510
   11       12.438411
   12       13.141744
 
 -0.2222222E+00  0.5555556E-01  0.0000000E+00  0.1543210E-02
    1      -13.778665
    2      -13.427273
    3       -2.543648
    4       -1.115475
    5       -1.025157
    6       -0.372345
    7        0.277930
    8        0.334931
    9       10.622535
   10       13.227329
   11       13.358968
   12       13.619801
 
 -0.1666667E+00  0.5555556E-01  0.0000000E+00  0.1543210E-02
    1      -14.217589
    2      -13.856766
    3       -3.072618
    4       -0.857234
    5        0.133169
    6        0.190379
    7        0.905936
    8        0.947402
    9       10.095316
   10       13.457836
   11       13.622365
   12       14.509140
 
 -0.1111111E+00  0.5555556E-01  0.0000000E+00  0.1543210E-02
    1      -14.511453
    2      -14.144317
    3       -3.428383
    4       -1.185305
    5        1.087652
    6        1.121538
    7        1.454833
    8        1.482406
    9        9.743503
   10       13.375210
   11       13.478116
   12       14.079250
 
 -0.5555556E-01  0.5555556E-01  0.0000000E+00  0.7716049E-03
    1      -14.658702
    2      -14.288442
    3       -3.607012
    4       -1.350564
    5        1.618190
    6        1.652774
    7        1.766112
    8        1.797793
    9        9.568189
   10       13.272946
   11       13.355072
   12       13.554334
 
  0.1111111E+00  0.1111111E+00  0.0000000E+00  0.7716049E-03
    1      -13.851554
    2      -13.498620
    3       -2.631209
    4       -0.763657
    5       -0.711790
    6       -0.452141
    7        0.202924
    8        0.239898
    9       10.537524
   10       13.479588
   11       13.868901
   12       14.046032
 
  0.1666667E+00  0.1111111E+00  0.0000000E+00  0.1543210E-02
    1      -13.342145
    2      -13.000105
    3       -2.020022
    4       -1.915664
    5       -1.833528
    6       -0.547260
    7       -0.490934
    8        0.104123
    9       11.154485
   10       12.196808
   11       12.743016
   12       14.019630
 
  0.2222222E+00  0.1111111E+00  0.0000000E+00  0.1543210E-02
    1      -12.692557
    2      -12.364411
    3       -3.248434
    4       -3.125581
    5       -1.247967
    6       -1.198661
    7       -1.121181
    8        0.796170
    9       10.740457
   10       11.446761
   11       11.939341
   12       13.877441
 
  0.2777778E+00  0.1111111E+00  0.0000000E+00  0.1543210E-02
    1      -11.908173
    2      -11.597149
    3       -4.650224
    4       -4.492055
    5       -1.713958
    6       -1.624519
    7       -0.331653
    8        1.592694
    9        9.220094
   10       10.108108
   11       12.872409
   12       13.669779
 
  0.3333333E+00  0.1111111E+00  0.0000000E+00  0.1543210E-02
    1      -10.999289
    2      -10.708987
    3       -6.037791
    4       -5.850689
    5       -2.086700
    6       -1.990692
    7        0.693463
    8        2.416188
    9        7.786492
   10        8.794799
   11       13.436882
   12       13.827382
 
  0.3888889E+00  0.1111111E+00  0.0000000E+00  0.1543210E-02
    1       -9.994494
    2       -9.735114
    3       -7.333966
    4       -7.130934
    5       -2.312453
    6       -2.213093
    7        1.730122
    8        3.039310
    9        6.724747
   10        7.625215
   11       13.328185
   12       13.843614
 
  0.4444444E+00  0.1111111E+00  0.0000000E+00  0.1543210E-02
    1       -9.200854
    2       -9.062987
    3       -8.117015
    4       -8.016871
    5       -2.388218
    6       -2.287805
    7        2.349133
    8        3.134827
    9        6.443691
   10        6.995686
   11       13.286417
   12       13.816224
 
  0.5000000E+00  0.1111111E+00  0.0000000E+00  0.1543210E-02
    1       -9.994888
    2       -9.735496
    3       -7.333531
    4       -7.130492
    5       -2.312554
    6       -2.213198
    7        1.729958
    8        3.039312
    9        6.724722
   10        7.625162
   11       13.328492
   12       13.843972
 
 -0.4444444E+00  0.1111111E+00  0.0000000E+00  0.1543210E-02
    1      -10.999661
    2      -10.709355
    3       -6.037348
    4       -5.850259
    5       -2.086859
    6       -1.990864
    7        0.693273
    8        2.416123
    9        7.786405
   10        8.794635
   11       13.437533
   12       13.827847
 
 -0.3888889E+00  0.1111111E+00  0.0000000E+00  0.1543210E-02
    1      -11.908499
    2      -11.597472
    3       -4.649892
    4       -4.491757
    5       -1.714063
    6       -1.624659
    7       -0.331840
    8        1.592599
    9        9.219863
   10       10.107807
   11       12.872162
   12       13.670690
 
 -0.3333333E+00  0.1111111E+00  0.0000000E+00  0.1543210E-02
    1      -12.692830
    2      -12.364683
    3       -3.248423
    4       -3.125649
    5       -1.248137
    6       -1.198456
    7       -1.121058
    8        0.796068
    9       10.740017
   10       11.446326
   11       11.939066
   12       13.879083
 
 -0.2777778E+00  0.1111111E+00  0.0000000E+00  0.1543210E-02
    1      -13.342364
    2      -13.000324
    3       -2.020167
    4       -1.916426
    5       -1.834424
    6       -0.546247
    7       -0.490062
    8        0.104029
    9       11.154256
   10       12.196127
   11       12.742489
   12       14.022462
 
 -0.2222222E+00  0.1111111E+00  0.0000000E+00  0.1543210E-02
    1      -13.851719
    2      -13.498785
    3       -2.631322
    4       -0.765812
    5       -0.713927
    6       -0.452218
    7        0.205205
    8        0.242180
    9       10.537349
   10       13.477619
   11       13.872932
   12       14.048226
 
 -0.1666667E+00  0.1111111E+00  0.0000000E+00  0.1543210E-02
    1      -14.217630
    2      -13.856807
    3       -3.072647
    4       -0.857254
    5        0.131247
    6        0.188676
    7        0.907776
    8        0.949452
    9       10.095267
   10       13.459966
   11       13.624303
   12       14.505932
 
 -0.1111111E+00  0.1111111E+00  0.0000000E+00  0.7716049E-03
    1      -14.437953
    2      -14.072352
    3       -3.339243
    4       -1.103081
    5        0.788774
    6        0.845355
    7        1.345085
    8        1.388665
    9        9.831025
   10       13.285932
   11       13.422602
   12       14.441427
 
  0.1666667E+00  0.1666667E+00  0.0000000E+00  0.7716049E-03
    1      -12.764551
    2      -12.434890
    3       -2.830397
    4       -2.760062
    5       -1.463716
    6       -1.412419
    7       -1.331647
    8        0.723902
    9       10.998472
   10       11.572855
   11       11.859058
   12       14.829057
 
  0.2222222E+00  0.1666667E+00  0.0000000E+00  0.1543210E-02
    1      -12.050499
    2      -11.736143
    3       -3.960142
    4       -3.852186
    5       -2.240137
    6       -2.162441
    7       -0.490253
    8        1.466910
    9        9.669928
   10       10.338508
   11       12.726684
   12       14.985845
 
  0.2777778E+00  0.1666667E+00  0.0000000E+00  0.1543210E-02
    1      -11.207670
    2      -10.912140
    3       -5.235959
    4       -5.081884
    5       -2.786272
    6       -2.682417
    7        0.481558
    8        2.290063
    9        8.295074
   10        9.100870
   11       13.740088
   12       14.827855
 
  0.3333333E+00  0.1666667E+00  0.0000000E+00  0.1543210E-02
    1      -10.252513
    2       -9.981002
    3       -6.525325
    4       -6.339329
    5       -3.129529
    6       -3.013132
    7        1.531673
    8        3.074002
    9        7.057177
   10        7.915528
   11       14.617776
   12       14.903991
 
  0.3888889E+00  0.1666667E+00  0.0000000E+00  0.1543210E-02
    1       -9.258196
    2       -9.041944
    3       -7.664331
    4       -7.488878
    5       -3.296565
    6       -3.175155
    7        2.479021
    8        3.462714
    9        6.399245
   10        6.928292
   11       14.558382
   12       15.185388
 
  0.4444444E+00  0.1666667E+00  0.0000000E+00  0.1543210E-02
    1       -9.258715
    2       -9.042301
    3       -7.663781
    4       -7.488310
    5       -3.296604
    6       -3.175202
    7        2.478858
    8        3.462772
    9        6.399172
   10        6.928263
   11       14.558589
   12       15.185671
 
  0.5000000E+00  0.1666667E+00  0.0000000E+00  0.1543210E-02
    1      -10.253105
    2       -9.981577
    3       -6.524713
    4       -6.338731
    5       -3.129602
    6       -3.013126
    7        1.531418
    8        3.073968
    9        7.057000
   10        7.915339
   11       14.618435
   12       14.903524
 
 -0.4444444E+00  0.1666667E+00  0.0000000E+00  0.1543210E-02
    1      -11.208192
    2      -10.912659
    3       -5.235527
    4       -5.081510
    5       -2.786197
    6       -2.682408
    7        0.481288
    8        2.289957
    9        8.294690
   10        9.100513
   11       13.739535
   12       14.828942
 
 -0.3888889E+00  0.1666667E+00  0.0000000E+00  0.1543210E-02
    1      -12.050947
    2      -11.736589
    3       -3.960290
    4       -3.852445
    5       -2.239498
    6       -2.161925
    7       -0.490510
    8        1.466775
    9        9.669226
   10       10.337992
   11       12.726181
   12       14.988275
 
 -0.3333333E+00  0.1666667E+00  0.0000000E+00  0.1543210E-02
    1      -12.764920
    2      -12.435258
    3       -2.831726
    4       -2.761362
    5       -1.462072
    6       -1.410765
    7       -1.331875
    8        0.723765
    9       10.997418
   10       11.572215
   11       11.858649
   12       14.821157
 
 -0.2777778E+00  0.1666667E+00  0.0000000E+00  0.1543210E-02
    1      -13.342433
    2      -13.000392
    3       -2.020209
    4       -1.917991
    5       -1.835788
    6       -0.544657
    7       -0.488279
    8        0.104002
    9       11.154171
   10       12.195520
   11       12.742280
   12       14.025135
 
 -0.2222222E+00  0.1666667E+00  0.0000000E+00  0.1543210E-02
    1      -13.778774
    2      -13.427380
    3       -2.543709
    4       -1.117865
    5       -1.027464
    6       -0.372390
    7        0.280595
    8        0.337691
    9       10.622405
   10       13.226686
   11       13.362337
   12       13.623630
 
 -0.1666667E+00  0.1666667E+00  0.0000000E+00  0.7716049E-03
    1      -14.071135
    2      -13.713409
    3       -2.895704
    4       -0.694800
    5       -0.399623
    6       -0.316062
    7        0.781577
    8        0.834928
    9       10.269585
   10       13.178091
   11       13.401127
   12       14.040518
 
  0.2222222E+00  0.2222222E+00  0.0000000E+00  0.7716049E-03
    1      -11.277369
    2      -10.980385
    3       -4.751816
    4       -4.663213
    5       -3.200326
    6       -3.134233
    7        0.409735
    8        2.245229
    9        8.518997
   10        9.191369
   11       13.665069
   12       16.097149
 
  0.2777778E+00  0.2222222E+00  0.0000000E+00  0.1543210E-02
    1      -10.385440
    2      -10.109327
    3       -5.772465
    4       -5.640224
    5       -3.875424
    6       -3.776504
    7        1.422187
    8        3.075487
    9        7.331884
   10        8.069792
   11       14.728946
   12       16.136430
 
  0.3333333E+00  0.2222222E+00  0.0000000E+00  0.1543210E-02
    1       -9.405429
    2       -9.160269
    3       -6.901301
    4       -6.730074
    5       -4.231146
    6       -4.104624
    7        2.468393
    8        3.771849
    9        6.341334
   10        7.026011
   11       15.821617
   12       16.040833
 
  0.3888889E+00  0.2222222E+00  0.0000000E+00  0.1543210E-02
    1       -8.634849
    2       -8.503898
    3       -7.626533
    4       -7.553080
    5       -4.339766
    6       -4.205661
    7        3.136125
    8        3.895123
    9        6.218422
   10        6.257938
   11       15.921619
   12       16.777669
 
  0.4444444E+00  0.2222222E+00  0.0000000E+00  0.1543210E-02
    1       -9.406193
    2       -9.161009
    3       -6.900619
    4       -6.729405
    5       -4.231048
    6       -4.104569
    7        2.468133
    8        3.771922
    9        6.341009
   10        7.025862
   11       15.821319
   12       16.040328
 
  0.5000000E+00  0.2222222E+00  0.0000000E+00  0.1543210E-02
    1      -10.386170
    2      -10.110051
    3       -5.772121
    4       -5.639963
    5       -3.874937
    6       -3.776126
    7        1.421874
    8        3.075433
    9        7.331275
   10        8.069438
   11       14.728024
   12       16.137456
 
 -0.4444444E+00  0.2222222E+00  0.0000000E+00  0.1543210E-02
    1      -11.278013
    2      -10.981026
    3       -4.752450
    4       -4.663807
    5       -3.199040
    6       -3.132935
    7        0.409414
    8        2.245102
    9        8.517992
   10        9.190837
   11       13.664287
   12       16.102516
 
 -0.3888889E+00  0.2222222E+00  0.0000000E+00  0.1543210E-02
    1      -12.051042
    2      -11.736684
    3       -3.961685
    4       -3.853647
    5       -2.238034
    6       -2.160274
    7       -0.490555
    8        1.466754
    9        9.668551
   10       10.337784
   11       12.726057
   12       14.991889
 
 -0.3333333E+00  0.2222222E+00  0.0000000E+00  0.1543210E-02
    1      -12.692994
    2      -12.364847
    3       -3.250480
    4       -3.127602
    5       -1.248228
    6       -1.196016
    7       -1.118525
    8        0.796017
    9       10.738847
   10       11.445848
   11       11.938865
   12       13.882751
 
 -0.2777778E+00  0.2222222E+00  0.0000000E+00  0.1543210E-02
    1      -13.197424
    2      -12.858483
    3       -2.524882
    4       -2.402366
    5       -1.848194
    6       -0.324853
    7       -0.257788
    8        0.257821
    9       11.319388
   10       11.724072
   11       12.437691
   12       13.145409
 
 -0.2222222E+00  0.2222222E+00  0.0000000E+00  0.7716049E-03
    1      -13.560204
    2      -13.213499
    3       -2.281738
    4       -1.788633
    5       -1.676107
    6       -0.134329
    7        0.184277
    8        0.244990
    9       10.880594
   10       12.586415
   11       12.961870
   12       13.274579
 
  0.2777778E+00  0.2777778E+00  0.0000000E+00  0.7716049E-03
    1       -9.461953
    2       -9.211423
    3       -6.390645
    4       -6.285230
    5       -4.737297
    6       -4.664264
    7        2.452997
    8        3.890396
    9        6.325991
   10        7.079570
   11       15.787519
   12       16.715814
 
  0.3333333E+00  0.2777778E+00  0.0000000E+00  0.1543210E-02
    1       -8.507136
    2       -8.306017
    3       -7.209827
    4       -7.084592
    5       -5.181770
    6       -5.081794
    7        3.451791
    8        4.450392
    9        5.564244
   10        6.216427
   11       16.380944
   12       16.437315
 
  0.3888889E+00  0.2777778E+00  0.0000000E+00  0.1543210E-02
    1       -8.508074
    2       -8.306739
    3       -7.209329
    4       -7.084049
    5       -5.181483
    6       -5.081591
    7        3.451646
    8        4.450640
    9        5.563798
   10        6.216303
   11       16.384330
   12       16.435436
 
  0.4444444E+00  0.2777778E+00  0.0000000E+00  0.1543210E-02
    1       -9.462877
    2       -9.212331
    3       -6.390721
    4       -6.285256
    5       -4.736263
    6       -4.663208
    7        2.452734
    8        3.890513
    9        6.325125
   10        7.079200
   11       15.786179
   12       16.718276
 
  0.5000000E+00  0.2777778E+00  0.0000000E+00  0.1543210E-02
    1      -10.386290
    2      -10.110172
    3       -5.773353
    4       -5.641019
    5       -3.873630
    6       -3.774638
    7        1.421863
    8        3.075449
    9        7.330612
   10        8.069204
   11       14.727852
   12       16.141934
 
 -0.4444444E+00  0.2777778E+00  0.0000000E+00  0.1543210E-02
    1      -11.208408
    2      -10.912875
    3       -5.237314
    4       -5.083204
    5       -2.783983
    6       -2.680109
    7        0.481220
    8        2.289944
    9        8.293473
   10        9.100015
   11       13.739256
   12       14.833273
 
 -0.3888889E+00  0.2777778E+00  0.0000000E+00  0.1543210E-02
    1      -11.908784
    2      -11.597757
    3       -4.651938
    4       -4.493755
    5       -1.711313
    6       -1.621873
    7       -0.331969
    8        1.592543
    9        9.218284
   10       10.107009
   11       12.871874
   12       13.674763
 
 -0.3333333E+00  0.2777778E+00  0.0000000E+00  0.1543210E-02
    1      -12.477613
    2      -12.154073
    3       -3.989161
    4       -3.836150
    5       -0.998336
    6       -0.852130
    7       -0.778898
    8        1.010817
    9       10.121712
   10       11.038288
   11       12.163760
   12       12.907166
 
 -0.2777778E+00  0.2777778E+00  0.0000000E+00  0.7716049E-03
    1      -12.908466
    2      -12.575644
    3       -3.263290
    4       -3.121701
    5       -1.506201
    6       -0.370891
    7       -0.305433
    8        0.562230
    9       10.982336
   10       11.650445
   11       11.841132
   12       12.707883
 
  0.3333333E+00  0.3333333E+00  0.0000000E+00  0.7716049E-03
    1       -7.751084
    2       -7.628506
    3       -7.628337
    4       -7.510145
    5       -5.571386
    6       -5.571255
    7        4.176449
    8        4.888535
    9        4.889250
   10        5.764692
   11       16.185563
   12       16.186291
 
  0.3888889E+00  0.3333333E+00  0.0000000E+00  0.1543210E-02
    1       -8.508110
    2       -8.306934
    3       -7.210238
    4       -7.084862
    5       -5.180440
    6       -5.080338
    7        3.451860
    8        4.450582
    9        5.563364
   10        6.215853
   11       16.381374
   12       16.437405
 
  0.4444444E+00  0.3333333E+00  0.0000000E+00  0.1543210E-02
    1       -9.406456
    2       -9.161280
    3       -6.902116
    4       -6.730830
    5       -4.229140
    6       -4.102586
    7        2.468238
    8        3.771970
    9        6.339852
   10        7.025266
   11       15.821630
   12       16.044377
 
  0.5000000E+00  0.3333333E+00  0.0000000E+00  0.1543210E-02
    1      -10.253465
    2       -9.981939
    3       -6.526447
    4       -6.340424
    5       -3.127153
    6       -3.010646
    7        1.531403
    8        3.074001
    9        7.055390
   10        7.914482
   11       14.621974
   12       14.903953
 
 -0.4444444E+00  0.3333333E+00  0.0000000E+00  0.1543210E-02
    1      -11.000091
    2      -10.709786
    3       -6.039210
    4       -5.852093
    5       -2.084024
    6       -1.988016
    7        0.693154
    8        2.416104
    9        7.784537
   10        8.793503
   11       13.441426
   12       13.830376
 
 -0.3888889E+00  0.3333333E+00  0.0000000E+00  0.1543210E-02
    1      -11.626164
    2      -11.321494
    3       -5.440512
    4       -5.259209
    5       -1.268584
    6       -1.191359
    7       -0.018539
    8        1.836101
    9        8.555295
   10        9.632797
   11       12.635068
   12       12.986471
 
 -0.3333333E+00  0.3333333E+00  0.0000000E+00  0.7716049E-03
    1      -12.120862
    2      -11.804925
    3       -4.745948
    4       -4.575891
    5       -0.836897
    6       -0.768151
    7       -0.586136
    8        1.361443
    9        9.353645
   10       10.402074
   11       12.362790
   12       12.598265
 
  0.3888889E+00  0.3888889E+00  0.0000000E+00  0.7716049E-03
    1       -8.635505
    2       -8.504626
    3       -7.627664
    4       -7.554189
    5       -4.337719
    6       -4.203520
    7        3.136517
    8        3.894878
    9        6.217480
   10        6.256689
   11       15.926201
   12       16.781073
 
  0.4444444E+00  0.3888889E+00  0.0000000E+00  0.1543210E-02
    1       -9.259242
    2       -9.042963
    3       -7.665371
    4       -7.489850
    5       -3.294122
    6       -3.172706
    7        2.479111
    8        3.462646
    9        6.397473
   10        6.926956
   11       14.563209
   12       15.190287
 
  0.5000000E+00  0.3888889E+00  0.0000000E+00  0.1543210E-02
    1       -9.995480
    2       -9.736095
    3       -7.335160
    4       -7.132103
    5       -2.309725
    6       -2.210364
    7        1.729990
    8        3.039300
    9        6.722699
   10        7.623651
   11       13.332886
   12       13.848345
 
 -0.4444444E+00  0.3888889E+00  0.0000000E+00  0.1543210E-02
    1      -10.658284
    2      -10.377278
    3       -6.822815
    4       -6.618928
    5       -1.555025
    6       -1.475418
    7        1.033029
    8        2.596260
    9        7.222275
   10        8.321212
   11       12.493621
   12       12.959523
 
 -0.3888889E+00  0.3888889E+00  0.0000000E+00  0.7716049E-03
    1      -11.207047
    2      -10.911871
    3       -6.180661
    4       -5.985008
    5       -1.185694
    6       -1.114615
    7        0.441434
    8        2.180524
    9        7.855123
   10        9.007248
   11       12.238250
   12       12.673839
 
  0.4444444E+00  0.4444444E+00  0.0000000E+00  0.7716049E-03
    1       -9.201695
    2       -9.063898
    3       -8.118312
    4       -8.018165
    5       -2.385432
    6       -2.285018
    7        2.349459
    8        3.134524
    9        6.441872
   10        6.993769
   11       13.290990
   12       13.820826
 
  0.5000000E+00  0.4444444E+00  0.0000000E+00  0.1543210E-02
    1       -9.645292
    2       -9.420673
    3       -8.012345
    4       -7.823947
    5       -1.700623
    6       -1.619800
    7        1.960908
    8        2.946317
    9        6.510300
   10        7.322651
   11       12.411771
   12       12.901508
 
 -0.4444444E+00  0.4444444E+00  0.0000000E+00  0.7716049E-03
    1      -10.194510
    2       -9.930403
    3       -7.505172
    4       -7.295577
    5       -1.400476
    6       -1.328141
    7        1.474853
    8        2.785764
    9        6.765958
   10        7.797337
   11       12.119045
   12       12.592774
 
  0.5000000E+00  0.5000000E+00  0.0000000E+00  0.3858025E-03
    1       -9.390797
    2       -9.250764
    3       -8.302396
    4       -8.197744
    5       -1.473101
    6       -1.399987
    7        2.083236
    8        2.875523
    9        6.451979
   10        7.187771
   11       12.077512
   12       12.561565
 