   32   32    1    1
  0.9341735E+01  0.4932875E-09  0.4932875E-09  0.1419195E-08  0.5000000E-15
  1.000000000000000E-004
  CAR 
 graphite                                
    128    163     84
 
  0.0000000E+00  0.0000000E+00  0.0000000E+00  0.3086420E-02
    1      -15.386069
    2      -15.293094
    3      -15.291232
    4      -15.193977
    5      -10.091749
    6      -10.083141
    7      -10.080087
    8      -10.055860
    9      -10.054665
   10      -10.047944
   11      -10.043047
   12      -10.043041
   13      -10.042603
   14      -10.022536
   15      -10.011982
   16      -10.009599
   17       -9.030554
   18       -9.026312
   19       -9.024643
   20       -9.009937
   21       -9.004961
   22       -9.004393
   23       -9.002245
   24       -9.002241
   25       -9.000432
   26       -8.977091
   27       -8.972633
   28       -8.970241
   29       -4.085763
   30       -3.416886
   31       -3.414884
   32       -2.621513
   33       -2.203863
   34       -2.200807
   35       -2.189873
   36       -2.185809
   37       -2.184590
   38       -2.184588
   39       -2.181208
   40       -2.170992
   41       -2.169452
   42       -2.165857
   43       -2.164738
   44       -2.149461
   45        1.177272
   46        1.187720
   47        1.191942
   48        1.195292
   49        1.203380
   50        1.208164
   51        1.209997
   52        1.218591
   53        1.563513
   54        1.564303
   55        1.566657
   56        1.842881
   57        1.843236
   58        1.845705
   59        1.850301
   60        1.850516
   61        1.850608
   62        2.057846
   63        2.069564
   64        2.071466
   65        5.709077
   66        5.710422
   67        5.711821
   68        5.856124
   69        5.862653
   70        5.866235
   71        5.867865
   72        5.868383
   73        5.872517
   74        6.240346
   75        6.252864
   76        6.255821
   77        8.091685
   78       10.316781
   79       10.319548
   80       11.457952
   81       11.461515
   82       11.495434
   83       11.587973
   84       11.591662
 
  0.1111111E+00 -0.2081668E-16  0.0000000E+00  0.6172840E-02
    1      -15.312557
    2      -15.220012
    3      -15.218153
    4      -15.121439
    5      -10.865138
    6      -10.800982
    7      -10.798880
    8      -10.733066
    9      -10.331165
   10      -10.322790
   11      -10.276547
   12      -10.274770
   13      -10.267382
   14      -10.266041
   15      -10.219481
   16      -10.210452
   17       -8.712283
   18       -8.705648
   19       -8.669142
   20       -8.664839
   21       -8.660960
   22       -8.659297
   23       -8.618528
   24       -8.611650
   25       -8.188895
   26       -8.138320
   27       -8.138181
   28       -8.085648
   29       -3.996844
   30       -3.329715
   31       -3.327706
   32       -2.536853
   33       -2.427066
   34       -2.410775
   35       -2.408165
   36       -2.407060
   37       -2.391854
   38       -2.389798
   39       -2.388485
   40       -2.371394
   41       -2.130456
   42       -2.116441
   43       -2.112225
   44       -2.098217
   45        0.898899
   46        0.905926
   47        0.907607
   48        0.915522
   49        1.003768
   50        1.026650
   51        1.035172
   52        1.039853
   53        1.044386
   54        1.420448
   55        1.423928
   56        1.458335
   57        1.461521
   58        1.791323
   59        1.791582
   60        1.797440
   61        1.798435
   62        1.844559
   63        2.083571
   64        2.094551
   65        5.805946
   66        5.808273
   67        5.987119
   68        5.993489
   69        5.997490
   70        5.999777
   71        6.143945
   72        6.374070
   73        6.385395
   74        6.408130
   75        6.410975
   76        6.836393
   77        8.182534
   78       10.399994
   79       10.402752
   80       11.499021
   81       11.622375
   82       11.625451
   83       11.751403
   84       11.820426
 
  0.2222222E+00 -0.2775558E-16  0.0000000E+00  0.6172840E-02
    1      -15.092432
    2      -15.001230
    3      -14.999378
    4      -14.904057
    5      -11.872625
    6      -11.800338
    7      -11.798509
    8      -11.723878
    9      -10.674341
   10      -10.668597
   11      -10.611822
   12      -10.609578
   13      -10.605249
   14      -10.603912
   15      -10.545048
   16      -10.538954
   17       -8.028637
   18       -8.019298
   19       -7.981548
   20       -7.977596
   21       -7.971106
   22       -7.969310
   23       -7.928743
   24       -7.919468
   25       -6.864926
   26       -6.817995
   27       -6.817798
   28       -6.769996
   29       -3.730527
   30       -3.069399
   31       -3.067361
   32       -3.031291
   33       -3.013363
   34       -3.009495
   35       -3.007923
   36       -2.990666
   37       -2.990442
   38       -2.985724
   39       -2.967406
   40       -2.284462
   41       -1.915771
   42       -1.901930
   43       -1.897588
   44       -1.884037
   45        0.007470
   46        0.075962
   47        0.087729
   48        0.089914
   49        0.102332
   50        0.531648
   51        0.534335
   52        0.609058
   53        0.618514
   54        0.623812
   55        0.630726
   56        1.119881
   57        1.254947
   58        1.258405
   59        1.670243
   60        1.670755
   61        1.675491
   62        1.676392
   63        2.090336
   64        2.097973
   65        6.088791
   66        6.093451
   67        6.320675
   68        6.326741
   69        6.330461
   70        6.332770
   71        6.688450
   72        6.696844
   73        7.315990
   74        7.629617
   75        7.631850
   76        8.048436
   77        8.455668
   78       10.649138
   79       10.651876
   80       11.609477
   81       11.729710
   82       11.732807
   83       11.828875
   84       12.594256
 
  0.3333333E+00  0.2775558E-16  0.0000000E+00  0.6172840E-02
    1      -14.726856
    2      -14.637801
    3      -14.635961
    4      -14.542974
    5      -12.783152
    6      -12.705400
    7      -12.703617
    8      -12.622926
    9      -10.929283
   10      -10.925663
   11      -10.863703
   12      -10.861110
   13      -10.859012
   14      -10.857843
   15      -10.793489
   16      -10.789804
   17       -7.222586
   18       -7.211873
   19       -7.179858
   20       -7.175787
   21       -7.168093
   22       -7.165992
   23       -7.131821
   24       -7.121371
   25       -5.434388
   26       -5.394087
   27       -5.393978
   28       -5.352874
   29       -3.844184
   30       -3.828328
   31       -3.818180
   32       -3.816751
   33       -3.801715
   34       -3.801157
   35       -3.789871
   36       -3.773781
   37       -3.289711
   38       -2.638969
   39       -2.636902
   40       -1.868183
   41       -1.567271
   42       -1.554009
   43       -1.549481
   44       -1.536429
   45       -1.106111
   46       -1.087509
   47       -1.086214
   48       -1.067548
   49       -1.000468
   50       -0.422037
   51       -0.419681
   52        0.048444
   53        0.058819
   54        0.064075
   55        0.073284
   56        0.247448
   57        1.075835
   58        1.078639
   59        1.546198
   60        1.547391
   61        1.550410
   62        1.551424
   63        2.057597
   64        2.062336
   65        6.469492
   66        6.474997
   67        6.711189
   68        6.716940
   69        6.719320
   70        6.721629
   71        7.016545
   72        7.021587
   73        8.824598
   74        8.910899
   75        9.105987
   76        9.108386
   77        9.471834
   78       11.056530
   79       11.059334
   80       11.306694
   81       11.828495
   82       11.889030
   83       11.892311
   84       12.096191
 
  0.4444444E+00 -0.5551115E-16  0.0000000E+00  0.6172840E-02
    1      -14.217674
    2      -14.131621
    3      -14.129784
    4      -14.040122
    5      -13.568008
    6      -13.485687
    7      -13.483912
    8      -13.398319
    9      -11.060643
   10      -11.058649
   11      -10.994275
   12      -10.991154
   13      -10.990762
   14      -10.990069
   15      -10.922509
   16      -10.920553
   17       -6.478980
   18       -6.471051
   19       -6.449126
   20       -6.444416
   21       -6.440628
   22       -6.437629
   23       -6.414402
   24       -6.407343
   25       -4.594470
   26       -4.585676
   27       -4.572082
   28       -4.571739
   29       -4.563162
   30       -4.562133
   31       -4.547345
   32       -4.537824
   33       -3.957044
   34       -3.924196
   35       -3.923777
   36       -3.890188
   37       -2.679828
   38       -2.488591
   39       -2.463184
   40       -2.462293
   41       -2.436095
   42       -2.044400
   43       -2.042314
   44       -1.910515
   45       -1.298813
   46       -1.295983
   47       -1.294514
   48       -1.101513
   49       -1.089000
   50       -1.084206
   51       -1.072226
   52       -0.580583
   53       -0.547052
   54       -0.535569
   55       -0.530611
   56       -0.519557
   57        0.975792
   58        0.977814
   59        1.471543
   60        1.473552
   61        1.474640
   62        1.476158
   63        2.026508
   64        2.029096
   65        6.761421
   66        6.765019
   67        6.978098
   68        6.983658
   69        6.984054
   70        6.985781
   71        7.209861
   72        7.212556
   73        9.546694
   74       10.356376
   75       10.436098
   76       10.637285
   77       10.641164
   78       10.948793
   79       11.545200
   80       11.551484
   81       12.010383
   82       12.022436
   83       12.025784
   84       12.050426
 
  0.6776264E-20  0.1111111E+00  0.0000000E+00  0.6172840E-02
    1      -15.312558
    2      -15.220015
    3      -15.218153
    4      -15.121440
    5      -10.865060
    6      -10.800820
    7      -10.798879
    8      -10.732980
    9      -10.331152
   10      -10.323090
   11      -10.276534
   12      -10.274770
   13      -10.267976
   14      -10.266044
   15      -10.219454
   16      -10.210789
   17       -8.712419
   18       -8.704496
   19       -8.669411
   20       -8.664839
   21       -8.659300
   22       -8.658440
   23       -8.618597
   24       -8.610355
   25       -8.189785
   26       -8.140068
   27       -8.138242
   28       -8.086565
   29       -3.996840
   30       -3.329706
   31       -3.327705
   32       -2.536847
   33       -2.428456
   34       -2.412455
   35       -2.408165
   36       -2.407483
   37       -2.392216
   38       -2.389798
   39       -2.389328
   40       -2.371563
   41       -2.128865
   42       -2.114069
   43       -2.112225
   44       -2.097238
   45        0.896625
   46        0.902695
   47        0.905928
   48        0.911625
   49        1.004557
   50        1.032730
   51        1.038885
   52        1.039855
   53        1.045868
   54        1.422212
   55        1.423951
   56        1.458314
   57        1.460429
   58        1.791293
   59        1.791604
   60        1.795074
   61        1.798396
   62        1.845607
   63        2.083591
   64        2.093380
   65        5.806239
   66        5.809786
   67        5.987504
   68        5.993465
   69        5.998896
   70        6.002004
   71        6.142271
   72        6.374149
   73        6.387415
   74        6.406530
   75        6.409241
   76        6.834663
   77        8.182538
   78       10.400008
   79       10.402765
   80       11.499480
   81       11.623217
   82       11.625390
   83       11.751521
   84       11.800254
 
  0.1111111E+00  0.1111111E+00  0.0000000E+00  0.6172840E-02
    1      -15.165649
    2      -15.073987
    3      -15.072134
    4      -14.976369
    5      -11.328560
    6      -11.325635
    7      -11.261453
    8      -11.256703
    9      -11.256682
   10      -11.255694
   11      -11.187401
   12      -11.184541
   13       -9.902739
   14       -9.867377
   15       -9.866846
   16       -9.835210
   17       -8.846480
   18       -8.826809
   19       -8.822121
   20       -8.795532
   21       -7.507247
   22       -7.504205
   23       -7.460113
   24       -7.455971
   25       -7.455953
   26       -7.453929
   27       -7.407255
   28       -7.404062
   29       -3.819111
   30       -3.155888
   31       -3.153864
   32       -3.088135
   33       -3.065763
   34       -3.065506
   35       -3.042469
   36       -2.368349
   37       -2.284306
   38       -2.281100
   39       -2.268621
   40       -2.263780
   41       -2.263284
   42       -2.263282
   43       -2.247887
   44       -2.245791
   45        0.370131
   46        0.377197
   47        0.379038
   48        0.387214
   49        0.582278
   50        0.584858
   51        0.710931
   52        0.719649
   53        0.723998
   54        0.728093
   55        1.060763
   56        1.064856
   57        1.065155
   58        1.065672
   59        1.582332
   60        1.584585
   61        1.831441
   62        2.109058
   63        2.109947
   64        2.320949
   65        5.679344
   66        5.783000
   67        5.788927
   68        6.093512
   69        6.651400
   70        6.653685
   71        6.947534
   72        6.949914
   73        6.950741
   74        6.953645
   75        7.364201
   76        7.366761
   77        8.364799
   78       10.566828
   79       10.569572
   80       11.869806
   81       11.873914
   82       11.993159
   83       11.998834
   84       12.000284
 
  0.2222222E+00  0.1111111E+00  0.0000000E+00  0.6172840E-02
    1      -14.872696
    2      -14.782780
    3      -14.780939
    4      -14.687048
    5      -12.291117
    6      -12.216364
    7      -12.214535
    8      -12.137119
    9      -11.668306
   10      -11.597470
   11      -11.595566
   12      -11.522195
   13       -9.946467
   14       -9.893531
   15       -9.892357
   16       -9.839326
   17       -8.366754
   18       -8.326958
   19       -8.322701
   20       -8.279974
   21       -6.724301
   22       -6.680589
   23       -6.678390
   24       -6.633687
   25       -6.126091
   26       -6.082935
   27       -6.082764
   28       -6.038895
   29       -3.993682
   30       -3.965782
   31       -3.965554
   32       -3.936877
   33       -3.465364
   34       -2.810396
   35       -2.808292
   36       -2.806394
   37       -2.785653
   38       -2.784138
   39       -2.762880
   40       -2.033746
   41       -1.997401
   42       -1.982263
   43       -1.977976
   44       -1.962716
   45       -0.581081
   46       -0.568870
   47       -0.566528
   48       -0.553908
   49       -0.442005
   50        0.111197
   51        0.113769
   52        0.169222
   53        0.179147
   54        0.184588
   55        0.191340
   56        0.257439
   57        0.744389
   58        0.776060
   59        0.777491
   60        1.357624
   61        1.978702
   62        2.311689
   63        2.312493
   64        2.603538
   65        5.674670
   66        5.790320
   67        5.795974
   68        6.051688
   69        7.234067
   70        7.517055
   71        7.520190
   72        7.871811
   73        8.023435
   74        8.319611
   75        8.321674
   76        8.696414
   77        8.730699
   78       10.898988
   79       10.901733
   80       11.865342
   81       12.079153
   82       12.129682
   83       12.132737
   84       12.378937
 
  0.3333333E+00  0.1111111E+00  0.0000000E+00  0.6172840E-02
    1      -14.435201
    2      -14.347841
    3      -14.346014
    4      -14.254965
    5      -13.139325
    6      -13.059514
    7      -13.057712
    8      -12.974867
    9      -11.876698
   10      -11.804457
   11      -11.802520
   12      -11.727788
   13      -10.087390
   14      -10.028043
   15      -10.026427
   16       -9.965722
   17       -7.600516
   18       -7.561001
   19       -7.556864
   20       -7.516367
   21       -5.929159
   22       -5.893878
   23       -5.891002
   24       -5.855129
   25       -4.931302
   26       -4.901795
   27       -4.901421
   28       -4.871028
   29       -4.679880
   30       -4.643955
   31       -4.643840
   32       -4.607201
   33       -3.504007
   34       -3.480655
   35       -3.479929
   36       -3.455783
   37       -2.939657
   38       -2.297663
   39       -2.295522
   40       -1.823425
   41       -1.803189
   42       -1.801472
   43       -1.781330
   44       -1.581760
   45       -1.567359
   46       -1.562923
   47       -1.548726
   48       -1.538712
   49       -1.408223
   50       -0.812541
   51       -0.810332
   52       -0.451446
   53       -0.440161
   54       -0.434626
   55       -0.424503
   56       -0.118695
   57        0.052115
   58        0.591980
   59        0.593387
   60        1.206750
   61        1.992787
   62        2.402250
   63        2.402849
   64        2.821171
   65        5.721291
   66        5.908600
   67        5.913545
   68        6.152321
   69        7.736083
   70        7.970543
   71        7.973988
   72        8.230285
   73        9.276572
   74        9.581658
   75        9.823602
   76        9.826175
   77       10.138272
   78       10.896804
   79       11.379168
   80       11.382431
   81       12.253245
   82       12.273805
   83       12.276814
   84       12.491996
 
  0.4444444E+00  0.1111111E+00  0.0000000E+00  0.6172840E-02
    1      -13.857648
    2      -13.854772
    3      -13.774927
    4      -13.770899
    5      -13.769946
    6      -13.769457
    7      -13.684385
    8      -13.681531
    9      -11.947286
   10      -11.874492
   11      -11.872536
   12      -11.797511
   13      -10.141631
   14      -10.081243
   15      -10.079458
   16      -10.017290
   17       -7.098013
   18       -7.073929
   19       -7.069920
   20       -7.046689
   21       -5.465206
   22       -5.461998
   23       -5.446552
   24       -5.445788
   25       -5.444507
   26       -5.441168
   27       -5.426098
   28       -5.422425
   29       -3.923896
   30       -3.909357
   31       -3.908343
   32       -3.891813
   33       -3.224898
   34       -3.221917
   35       -3.197219
   36       -3.195824
   37       -3.193864
   38       -3.191291
   39       -3.167227
   40       -3.163347
   41       -2.250782
   42       -2.248428
   43       -1.628607
   44       -1.624975
   45       -1.624172
   46       -1.623130
   47       -1.059903
   48       -1.051713
   49       -1.044342
   50       -1.037823
   51       -1.037246
   52       -1.035633
   53       -1.025270
   54       -1.021917
   55       -0.895145
   56       -0.892578
   57       -0.018188
   58        0.528446
   59        0.529735
   60        1.153532
   61        1.987224
   62        2.425374
   63        2.426048
   64        2.896890
   65        5.757353
   66        5.976289
   67        5.980292
   68        6.209194
   69        7.948087
   70        8.146842
   71        8.150751
   72        8.349778
   73       10.001088
   74       10.002617
   75       11.157707
   76       11.160691
   77       11.290328
   78       11.295414
   79       11.297172
   80       11.303637
   81       11.574586
   82       11.577736
   83       12.060525
   84       12.068078
 
 -0.4444444E+00  0.1111111E+00  0.0000000E+00  0.6172840E-02
    1      -14.435969
    2      -14.348632
    3      -14.346782
    4      -14.255739
    5      -13.138121
    6      -13.058293
    7      -13.056526
    8      -12.973665
    9      -11.878499
   10      -11.806192
   11      -11.804234
   12      -11.729591
   13      -10.084667
   14      -10.025333
   15      -10.023482
   16       -9.962783
   17       -7.592102
   18       -7.551910
   19       -7.549360
   20       -7.508196
   21       -5.940513
   22       -5.905654
   23       -5.901415
   24       -5.866131
   25       -4.943510
   26       -4.914624
   27       -4.913426
   28       -4.883571
   29       -4.682095
   30       -4.646324
   31       -4.645914
   32       -4.609396
   33       -3.489586
   34       -3.466098
   35       -3.465173
   36       -3.441044
   37       -2.940402
   38       -2.298377
   39       -2.296295
   40       -1.823310
   41       -1.802590
   42       -1.802201
   43       -1.781694
   44       -1.579787
   45       -1.565432
   46       -1.560671
   47       -1.546591
   48       -1.539412
   49       -1.407141
   50       -0.811555
   51       -0.809241
   52       -0.450868
   53       -0.440048
   54       -0.435565
   55       -0.425193
   56       -0.117706
   57        0.050629
   58        0.590452
   59        0.591589
   60        1.204761
   61        1.993885
   62        2.404500
   63        2.405518
   64        2.826029
   65        5.723189
   66        5.912363
   67        5.915553
   68        6.154384
   69        7.730724
   70        7.965404
   71        7.969856
   72        8.227319
   73        9.275559
   74        9.581817
   75        9.823223
   76        9.825745
   77       10.137447
   78       10.898320
   79       11.378447
   80       11.381696
   81       12.249861
   82       12.270887
   83       12.274609
   84       12.488189
 
 -0.3333333E+00  0.1111111E+00  0.0000000E+00  0.6172840E-02
    1      -14.873243
    2      -14.783332
    3      -14.781475
    4      -14.687590
    5      -12.289697
    6      -12.214904
    7      -12.213123
    8      -12.135698
    9      -11.672023
   10      -11.601094
   11      -11.599156
   12      -11.525820
   13       -9.940420
   14       -9.887595
   15       -9.885722
   16       -9.832641
   17       -8.359732
   18       -8.318675
   19       -8.316652
   20       -8.272620
   21       -6.735905
   22       -6.692845
   23       -6.689083
   24       -6.645086
   25       -6.128408
   26       -6.085225
   27       -6.085111
   28       -6.041220
   29       -4.009528
   30       -3.982442
   31       -3.980715
   32       -3.952845
   33       -3.465906
   34       -2.810865
   35       -2.808836
   36       -2.788190
   37       -2.766853
   38       -2.766252
   39       -2.744426
   40       -2.034261
   41       -1.995731
   42       -1.980602
   43       -1.976113
   44       -1.960971
   45       -0.584800
   46       -0.571955
   47       -0.571838
   48       -0.559188
   49       -0.440847
   50        0.112261
   51        0.114953
   52        0.175884
   53        0.183324
   54        0.187284
   55        0.194430
   56        0.254636
   57        0.745466
   58        0.773005
   59        0.773961
   60        1.353612
   61        1.980043
   62        2.316016
   63        2.317397
   64        2.613232
   65        5.675391
   66        5.796649
   67        5.799406
   68        6.057908
   69        7.226928
   70        7.508698
   71        7.513579
   72        7.865334
   73        8.023057
   74        8.318813
   75        8.320921
   76        8.695311
   77        8.729950
   78       10.898336
   79       10.901075
   80       11.865521
   81       12.077651
   82       12.127174
   83       12.130631
   84       12.377106
 
 -0.2222222E+00  0.1111111E+00  0.0000000E+00  0.6172840E-02
    1      -15.165979
    2      -15.074325
    3      -15.072461
    4      -14.976703
    5      -11.332458
    6      -11.325432
    7      -11.264048
    8      -11.262175
    9      -11.256996
   10      -11.255103
   11      -11.191564
   12      -11.184464
   13       -9.892892
   14       -9.857438
   15       -9.855570
   16       -9.823798
   17       -8.843021
   18       -8.821739
   19       -8.819862
   20       -8.791483
   21       -7.516001
   22       -7.507351
   23       -7.468570
   24       -7.464978
   25       -7.458273
   26       -7.458096
   27       -7.416037
   28       -7.407510
   29       -3.819441
   30       -3.156199
   31       -3.154199
   32       -3.106135
   33       -3.084412
   34       -3.082510
   35       -3.060352
   36       -2.368662
   37       -2.282160
   38       -2.266390
   39       -2.262187
   40       -2.262098
   41       -2.246361
   42       -2.244788
   43       -2.244279
   44       -2.226727
   45        0.358266
   46        0.364718
   47        0.367187
   48        0.373215
   49        0.580066
   50        0.584386
   51        0.727490
   52        0.732294
   53        0.733905
   54        0.739065
   55        1.059371
   56        1.060149
   57        1.063276
   58        1.066329
   59        1.577753
   60        1.583830
   61        1.832674
   62        2.114711
   63        2.116330
   64        2.333711
   65        5.678784
   66        5.790807
   67        5.793453
   68        6.103511
   69        6.645264
   70        6.652858
   71        6.938580
   72        6.943754
   73        6.949224
   74        6.951641
   75        7.355866
   76        7.365058
   77        8.364343
   78       10.566402
   79       10.569142
   80       11.869924
   81       11.905448
   82       11.994255
   83       12.004672
   84       12.031572
 
 -0.1111111E+00  0.1111111E+00  0.0000000E+00  0.6172840E-02
    1      -15.312667
    2      -15.220126
    3      -15.218260
    4      -15.121549
    5      -10.872456
    6      -10.808207
    7      -10.806484
    8      -10.740589
    9      -10.322769
   10      -10.320512
   11      -10.268999
   12      -10.264714
   13      -10.264641
   14      -10.264577
   15      -10.210443
   16      -10.208340
   17       -8.707575
   18       -8.705846
   19       -8.663455
   20       -8.660926
   21       -8.660919
   22       -8.659839
   23       -8.613726
   24       -8.611851
   25       -8.197495
   26       -8.148666
   27       -8.145035
   28       -8.094239
   29       -3.996951
   30       -3.329810
   31       -3.327817
   32       -2.536952
   33       -2.428914
   34       -2.426029
   35       -2.412959
   36       -2.408602
   37       -2.407768
   38       -2.407766
   39       -2.392087
   40       -2.390225
   41       -2.109208
   42       -2.093616
   43       -2.093134
   44       -2.077335
   45        0.878953
   46        0.888670
   47        0.893749
   48        0.898902
   49        1.000313
   50        1.045803
   51        1.052060
   52        1.054014
   53        1.062348
   54        1.416983
   55        1.417653
   56        1.460134
   57        1.462512
   58        1.793871
   59        1.798315
   60        1.798937
   61        1.798976
   62        1.837145
   63        2.093088
   64        2.095107
   65        5.807664
   66        5.809859
   67        5.996022
   68        5.998160
   69        5.998725
   70        6.002574
   71        6.137851
   72        6.384152
   73        6.387019
   74        6.397165
   75        6.402435
   76        6.824661
   77        8.182384
   78       10.399860
   79       10.402615
   80       11.533987
   81       11.658405
   82       11.659339
   83       11.788472
   84       11.796393
 
 -0.1355253E-19  0.2222222E+00  0.0000000E+00  0.6172840E-02
    1      -15.092438
    2      -15.001242
    3      -14.999378
    4      -14.904063
    5      -11.872660
    6      -11.800406
    7      -11.798509
    8      -11.723911
    9      -10.674492
   10      -10.668572
   11      -10.612250
   12      -10.609578
   13      -10.604952
   14      -10.603912
   15      -10.545118
   16      -10.538900
   17       -8.028811
   18       -8.018293
   19       -7.981898
   20       -7.977596
   21       -7.969317
   22       -7.968738
   23       -7.928769
   24       -7.918279
   25       -6.865762
   26       -6.819686
   27       -6.817820
   28       -6.770872
   29       -3.730508
   30       -3.069361
   31       -3.067356
   32       -3.032639
   33       -3.013602
   34       -3.011523
   35       -3.007923
   36       -2.990668
   37       -2.990549
   38       -2.986847
   39       -2.967552
   40       -2.284436
   41       -1.914090
   42       -1.899483
   43       -1.897588
   44       -1.883040
   45        0.007887
   46        0.074376
   47        0.085733
   48        0.087729
   49        0.099279
   50        0.532670
   51        0.534384
   52        0.613620
   53        0.622012
   54        0.623812
   55        0.632012
   56        1.120510
   57        1.254594
   58        1.257749
   59        1.669402
   60        1.670772
   61        1.674291
   62        1.676228
   63        2.090202
   64        2.096933
   65        6.089013
   66        6.095167
   67        6.321139
   68        6.326726
   69        6.332067
   70        6.334702
   71        6.688661
   72        6.698686
   73        7.314644
   74        7.628072
   75        7.630863
   76        8.047173
   77        8.455679
   78       10.649187
   79       10.651922
   80       11.610034
   81       11.730824
   82       11.732810
   83       11.829416
   84       12.589598
 
  0.1111111E+00  0.2222222E+00  0.0000000E+00  0.6172840E-02
    1      -14.872701
    2      -14.782789
    3      -14.780939
    4      -14.687053
    5      -12.291168
    6      -12.216464
    7      -12.214535
    8      -12.137169
    9      -11.668270
   10      -11.597400
   11      -11.595566
   12      -11.522161
   13       -9.946458
   14       -9.893515
   15       -9.892357
   16       -9.839319
   17       -8.366692
   18       -8.326847
   19       -8.322701
   20       -8.279922
   21       -6.723355
   22       -6.678683
   23       -6.678379
   24       -6.632716
   25       -6.127016
   26       -6.084810
   27       -6.082785
   28       -6.039865
   29       -3.993751
   30       -3.965791
   31       -3.965699
   32       -3.936962
   33       -3.465349
   34       -2.810407
   35       -2.808308
   36       -2.807829
   37       -2.788176
   38       -2.784139
   39       -2.763992
   40       -2.033725
   41       -1.995705
   42       -1.979658
   43       -1.977976
   44       -1.961622
   45       -0.581701
   46       -0.568870
   47       -0.568419
   48       -0.555705
   49       -0.441633