   32   32    1    1
  0.1019246E+02  0.4934311E-09  0.4934311E-09  0.1546921E-08  0.5000000E-15
  1.000000000000000E-004
  CAR 
 graphite                                
    128    163     84
 
  0.0000000E+00  0.0000000E+00  0.0000000E+00  0.3086420E-02
    1      -16.030179
    2      -15.985348
    3      -15.984861
    4      -15.939109
    5      -10.767859
    6      -10.765565
    7      -10.763944
    8      -10.752740
    9      -10.749596
   10      -10.749559
   11      -10.748746
   12      -10.748742
   13      -10.746075
   14      -10.734902
   15      -10.733839
   16      -10.731540
   17       -9.716006
   18       -9.712568
   19       -9.711190
   20       -9.705052
   21       -9.701866
   22       -9.701016
   23       -9.700389
   24       -9.700385
   25       -9.697684
   26       -9.689897
   27       -9.687520
   28       -9.685169
   29       -4.520360
   30       -4.101730
   31       -4.100817
   32       -3.625048
   33       -2.894363
   34       -2.890692
   35       -2.887710
   36       -2.887010
   37       -2.884611
   38       -2.884609
   39       -2.884427
   40       -2.881470
   41       -2.880126
   42       -2.879484
   43       -2.877840
   44       -2.873174
   45        0.475624
   46        0.486047
   47        0.487572
   48        0.488818
   49        0.490683
   50        0.492345
   51        0.493455
   52        0.502379
   53        0.996084
   54        0.997965
   55        0.999666
   56        1.149490
   57        1.152914
   58        1.153178
   59        1.153203
   60        1.153332
   61        1.156222
   62        1.287376
   63        1.288922
   64        1.290507
   65        5.041991
   66        5.046036
   67        5.048017
   68        5.171186
   69        5.176202
   70        5.177722
   71        5.178407
   72        5.178510
   73        5.182794
   74        5.399513
   75        5.403860
   76        5.406414
   77        6.944182
   78        8.650244
   79        8.652064
   80       10.816000
   81       10.822470
   82       10.834266
   83       10.879904
   84       10.885582
 
  0.1111111E+00  0.1387779E-16  0.0000000E+00  0.6172840E-02
    1      -15.956992
    2      -15.912424
    3      -15.911941
    4      -15.866443
    5      -11.531205
    6      -11.501513
    7      -11.500860
    8      -11.470577
    9      -10.996258
   10      -10.994187
   11      -10.971679
   12      -10.969870
   13      -10.969119
   14      -10.967689
   15      -10.944900
   16      -10.942830
   17       -9.384361
   18       -9.381281
   19       -9.364697
   20       -9.361900
   21       -9.360410
   22       -9.360341
   23       -9.341322
   24       -9.338671
   25       -8.862606
   26       -8.840317
   27       -8.839111
   28       -8.816098
   29       -4.431978
   30       -4.014724
   31       -4.013809
   32       -3.539708
   33       -3.115708
   34       -3.111680
   35       -3.108835
   36       -3.107986
   37       -3.104915
   38       -3.103237
   39       -3.100724
   40       -3.095796
   41       -2.820659
   42       -2.814668
   43       -2.812363
   44       -2.807184
   45        0.190907
   46        0.193148
   47        0.194757
   48        0.201362
   49        0.322584
   50        0.330784
   51        0.332590
   52        0.334398
   53        0.480574
   54        0.726471
   55        0.728541
   56        0.910187
   57        0.912191
   58        0.980145
   59        1.100677
   60        1.101871
   61        1.101987
   62        1.104699
   63        1.281798
   64        1.283801
   65        5.159250
   66        5.163460
   67        5.300910
   68        5.305796
   69        5.307451
   70        5.308501
   71        5.529099
   72        5.533401
   73        5.538881
   74        5.716085
   75        5.719049
   76        5.965629
   77        7.037313
   78        8.738797
   79        8.740609
   80       10.853075
   81       10.914063
   82       10.915602
   83       10.976282
   84       11.160292
 
  0.2222222E+00  0.0000000E+00  0.0000000E+00  0.6172840E-02
    1      -15.737815
    2      -15.693958
    3      -15.693483
    4      -15.648755
    5      -12.532547
    6      -12.498607
    7      -12.498179
    8      -12.463577
    9      -11.335408
   10      -11.333603
   11      -11.306823
   12      -11.304994
   13      -11.304428
   14      -11.303382
   15      -11.275927
   16      -11.274164
   17       -8.698785
   18       -8.695766
   19       -8.677681
   20       -8.675100
   21       -8.673484
   22       -8.673394
   23       -8.653619
   24       -8.650939
   25       -7.542934
   26       -7.522629
   27       -7.521524
   28       -7.500792
   29       -4.167709
   30       -3.754661
   31       -3.753730
   32       -3.716759
   33       -3.712900
   34       -3.707759
   35       -3.706987
   36       -3.704112
   37       -3.702201
   38       -3.697606
   39       -3.693033
   40       -3.284796
   41       -2.606572
   42       -2.600610
   43       -2.598243
   44       -2.592926
   45       -0.629039
   46       -0.624859
   47       -0.622622
   48       -0.616462
   49       -0.477634
   50       -0.159604
   51       -0.158210
   52       -0.091867
   53       -0.084506
   54       -0.082245
   55       -0.079513
   56        0.188422
   57        0.734906
   58        0.736766
   59        0.980298
   60        0.981573
   61        0.981645
   62        0.984255
   63        1.232990
   64        1.235022
   65        5.475485
   66        5.479395
   67        5.631004
   68        5.635716
   69        5.637053
   70        5.637983
   71        5.845236
   72        5.848977
   73        6.742720
   74        6.933187
   75        6.935420
   76        7.174774
   77        7.317230
   78        9.004208
   79        9.006000
   80       10.952402
   81       11.018811
   82       11.020409
   83       11.049979
   84       11.575335
 
  0.3333333E+00  0.2775558E-16  0.0000000E+00  0.6172840E-02
    1      -15.373803
    2      -15.331164
    3      -15.330702
    4      -15.287143
    5      -13.438774
    6      -13.401992
    7      -13.401595
    8      -13.364236
    9      -11.589120
   10      -11.587459
   11      -11.559103
   12      -11.557203
   13      -11.556856
   14      -11.555900
   15      -11.526492
   16      -11.524887
   17       -7.896339
   18       -7.893197
   19       -7.877453
   20       -7.874696
   21       -7.873164
   22       -7.872923
   23       -7.855399
   24       -7.852708
   25       -6.118223
   26       -6.100875
   27       -6.099593
   28       -6.082249
   29       -4.526485
   30       -4.523115
   31       -4.515292
   32       -4.514869
   33       -4.512364
   34       -4.510315
   35       -4.503223
   36       -4.499198
   37       -3.730494
   38       -3.324680
   39       -3.323739
   40       -2.864102
   41       -2.259222
   42       -2.253274
   43       -2.250811
   44       -2.245713
   45       -1.806254
   46       -1.799250
   47       -1.796898
   48       -1.789255
   49       -1.467108
   50       -1.111286
   51       -1.110164
   52       -0.714483
   53       -0.649654
   54       -0.643112
   55       -0.640533
   56       -0.637021
   57        0.574517
   58        0.576313
   59        0.856845
   60        0.858171
   61        0.858243
   62        0.860764
   63        1.159724
   64        1.161736
   65        5.870736
   66        5.874059
   67        6.016780
   68        6.021356
   69        6.022183
   70        6.022896
   71        6.192023
   72        6.194964
   73        7.783161
   74        8.244297
   75        8.403393
   76        8.405658
   77        8.613629
   78        9.443138
   79        9.444936
   80       10.267320
   81       11.155865
   82       11.157932
   83       11.159801
   84       11.303005
 
  0.4444444E+00  0.0000000E+00  0.0000000E+00  0.6172840E-02
    1      -14.866873
    2      -14.825788
    3      -14.825333
    4      -14.783384
    5      -14.220144
    6      -14.180965
    7      -14.180567
    8      -14.140645
    9      -11.720410
   10      -11.718818
   11      -11.689802
   12      -11.687805
   13      -11.687689
   14      -11.686697
   15      -11.656803
   16      -11.655272
   17       -7.163541
   18       -7.160474
   19       -7.150562
   20       -7.147182
   21       -7.146808
   22       -7.145999
   23       -7.134406
   24       -7.132495
   25       -5.279663
   26       -5.277758
   27       -5.269910
   28       -5.269380
   29       -5.268478
   30       -5.266119
   31       -5.259149
   32       -5.256234
   33       -4.646619
   34       -4.632829
   35       -4.631205
   36       -4.617399
   37       -3.183567
   38       -3.173393
   39       -3.171391
   40       -3.160900
   41       -3.125944
   42       -2.731086
   43       -2.730143
   44       -2.364810
   45       -2.284436
   46       -1.985638
   47       -1.984639
   48       -1.795007
   49       -1.789100
   50       -1.786562
   51       -1.781856
   52       -1.559138
   53       -1.242503
   54       -1.236465
   55       -1.233875
   56       -1.229797
   57        0.483026
   58        0.484801
   59        0.782521
   60        0.783873
   61        0.783955
   62        0.786430
   63        1.109111
   64        1.111107
   65        6.158734
   66        6.161371
   67        6.279572
   68        6.284218
   69        6.284420
   70        6.284785
   71        6.409284
   72        6.411615
   73        8.434868
   74        9.267844
   75        9.831310
   76        9.903831
   77        9.908859
   78       10.033740
   79       10.036357
   80       10.111423
   81       10.886193
   82       10.892328
   83       11.374952
   84       11.381228
 
 -0.1694066E-20  0.1111111E+00  0.0000000E+00  0.6172840E-02
    1      -15.956993
    2      -15.912427
    3      -15.911941
    4      -15.866444
    5      -11.531141
    6      -11.501387
    7      -11.500858
    8      -11.470513
    9      -10.996390
   10      -10.994311
   11      -10.971915
   12      -10.969870
   13      -10.969121
   14      -10.967932
   15      -10.944964
   16      -10.943014
   17       -9.384572
   18       -9.380322
   19       -9.364997
   20       -9.361900
   21       -9.360354
   22       -9.358138
   23       -9.341421
   24       -9.337328
   25       -8.863360
   26       -8.840715
   27       -8.840314
   28       -8.816951
   29       -4.431974
   30       -4.014717
   31       -4.013806
   32       -3.539703
   33       -3.117120
   34       -3.111563
   35       -3.110303
   36       -3.107987
   37       -3.104915
   38       -3.103355
   39       -3.101608
   40       -3.096428
   41       -2.818816
   42       -2.812736
   43       -2.812360
   44       -2.806490
   45        0.189573
   46        0.192085
   47        0.193148
   48        0.195567
   49        0.329987
   50        0.332563
   51        0.332647
   52        0.335097
   53        0.481371
   54        0.728089
   55        0.728609
   56        0.909396
   57        0.911895
   58        0.981045
   59        1.099168
   60        1.101875
   61        1.101991
   62        1.104030
   63        1.281070
   64        1.283443
   65        5.159415
   66        5.165005
   67        5.301389
   68        5.305780
   69        5.307861
   70        5.311291
   71        5.529221
   72        5.535061
   73        5.537531
   74        5.715257
   75        5.716783
   76        5.964025
   77        7.037316
   78        8.738803
   79        8.740615
   80       10.853480
   81       10.914874
   82       10.915621
   83       10.976692
   84       11.168155
 
  0.1111111E+00  0.1111111E+00  0.0000000E+00  0.6172840E-02
    1      -15.810800
    2      -15.766703
    3      -15.766226
    4      -15.721226
    5      -11.990613
    6      -11.987879
    7      -11.959701
    8      -11.956584
    9      -11.956570
   10      -11.954415
   11      -11.925396
   12      -11.922760
   13      -10.577469
   14      -10.561990
   15      -10.561262
   16      -10.546533
   17       -9.533046
   18       -9.522829
   19       -9.519957
   20       -9.508409
   21       -8.183953
   22       -8.181210
   23       -8.162935
   24       -8.160399
   25       -8.160386
   26       -8.157319
   27       -8.139284
   28       -8.136207
   29       -4.255555
   30       -3.841152
   31       -3.840229
   32       -3.788026
   33       -3.779231
   34       -3.777740
   35       -3.768606
   36       -3.369599
   37       -2.973402
   38       -2.969704
   39       -2.966041
   40       -2.962977
   41       -2.962976
   42       -2.962119
   43       -2.957028
   44       -2.955335
   45       -0.339294
   46       -0.336939
   47       -0.335304
   48       -0.328628
   49        0.008663
   50        0.017377
   51        0.019018
   52        0.020579
   53        0.081767
   54        0.083603
   55        0.368818
   56        0.371748
   57        0.371791
   58        0.373000
   59        0.678230
   60        0.680311
   61        1.265783
   62        1.419089
   63        1.420965
   64        1.554190
   65        4.994591
   66        5.095111
   67        5.099414
   68        5.279774
   69        6.066885
   70        6.068993
   71        6.253422
   72        6.255041
   73        6.255301
   74        6.258478
   75        6.494341
   76        6.496667
   77        7.223871
   78        8.915991
   79        8.917789
   80       11.221799
   81       11.225995
   82       11.283479
   83       11.288091
   84       11.293986
 
  0.2222222E+00  0.1111111E+00  0.0000000E+00  0.6172840E-02
    1      -15.519200
    2      -15.476049
    3      -15.475585
    4      -15.431565
    5      -12.948367
    6      -12.913078
    7      -12.912646
    8      -12.876835
    9      -12.327810
   10      -12.294482
   11      -12.293976
   12      -12.260223
   13      -10.612607
   14      -10.588260
   15      -10.588084
   16      -10.563834
   17       -9.042026
   18       -9.023757
   19       -9.021198
   20       -9.002480
   21       -7.405583
   22       -7.386018
   23       -7.385304
   24       -7.365464
   25       -6.808234
   26       -6.789766
   27       -6.788632
   28       -6.769791
   29       -4.688330
   30       -4.676656
   31       -4.675198
   32       -4.663444
   33       -3.904775
   34       -3.496088
   35       -3.495104
   36       -3.492069
   37       -3.483105
   38       -3.483013
   39       -3.473938
   40       -3.031686
   41       -2.686778
   42       -2.680211
   43       -2.677815
   44       -2.671880
   45       -1.285340
   46       -1.280955
   47       -1.278487
   48       -1.271500
   49       -0.916937
   50       -0.578490
   51       -0.577159
   52       -0.531238
   53       -0.523056
   54       -0.520761
   55       -0.518133
   56       -0.229480
   57       -0.203674
   58        0.085469
   59        0.086036
   60        0.428978
   61        1.431368
   62        1.621457
   63        1.623208
   64        1.802436
   65        5.005302
   66        5.098641
   67        5.102698
   68        5.250416
   69        6.649496
   70        6.819228
   71        6.821033
   72        7.022840
   73        7.445889
   74        7.595740
   75        7.620142
   76        7.623266
   77        7.836589
   78        9.269550
   79        9.271328
   80       10.892489
   81       11.390813
   82       11.410224
   83       11.411730
   84       11.554912
 
  0.3333333E+00  0.1111111E+00  0.0000000E+00  0.6172840E-02
    1      -15.083699
    2      -15.041960
    3      -15.041512
    4      -14.998855
    5      -13.792761
    6      -13.754940
    7      -13.754522
    8      -13.715977
    9      -12.534227
   10      -12.500379
   11      -12.499843
   12      -12.465222
   13      -10.751044
   14      -10.723530
   15      -10.723277
   16      -10.695489
   17       -8.277536
   18       -8.259913
   19       -8.257471
   20       -8.239781
   21       -6.616820
   22       -6.601230
   23       -6.599927
   24       -6.584159
   25       -5.621359
   26       -5.609083
   27       -5.607512
   28       -5.594739
   29       -5.368140
   30       -5.352760
   31       -5.351440
   32       -5.336052
   33       -4.188092
   34       -4.178357
   35       -4.177757
   36       -4.167579
   37       -3.383669
   38       -2.983995
   39       -2.983012
   40       -2.531217
   41       -2.521185
   42       -2.513574
   43       -2.510938
   44       -2.502496
   45       -2.272196
   46       -2.265925
   47       -2.263467
   48       -2.257941
   49       -1.868026
   50       -1.500474
   51       -1.499460
   52       -1.149253
   53       -1.142261
   54       -1.139551
   55       -1.135628
   56       -1.088644
   57       -0.426381
   58       -0.097146
   59       -0.096535
   60        0.265661
   61        1.470372
   62        1.711647
   63        1.713004
   64        1.961876
   65        5.099258
   66        5.212525
   67        5.215947
   68        5.348723
   69        7.136295
   70        7.270001
   71        7.272069
   72        7.416672
   73        8.156987
   74        8.986951
   75        9.115839
   76        9.118250
   77        9.298068
   78        9.792312
   79        9.794199
   80        9.823309
   81       11.310305
   82       11.313562
   83       11.486418
   84       11.586738
 
  0.4444444E+00  0.1111111E+00  0.0000000E+00  0.6172840E-02
    1      -14.508264
    2      -14.505746
    3      -14.469384
    4      -14.466568
    5      -14.466445
    6      -14.464445
    7      -14.426843
    8      -14.424366
    9      -12.603695
   10      -12.569461
   11      -12.568908
   12      -12.534161
   13      -10.805811
   14      -10.777695
   15      -10.777297
   16      -10.748968
   17       -7.788777
   18       -7.778557
   19       -7.776297
   20       -7.766127
   21       -6.158807
   22       -6.152579
   23       -6.150408
   24       -6.147785
   25       -6.145441
   26       -6.143871
   27       -6.139799
   28       -6.136014
   29       -4.617530
   30       -4.611582
   31       -4.609625
   32       -4.602831
   33       -3.917005
   34       -3.915097
   35       -3.905173
   36       -3.904321
   37       -3.904273
   38       -3.900282
   39       -3.892416
   40       -3.888193
   41       -2.701003
   42       -2.698993
   43       -2.315439
   44       -2.312682
   45       -2.312580
   46       -2.311019
   47       -1.878501
   48       -1.876311
   49       -1.755299
   50       -1.745012
   51       -1.743077
   52       -1.739475
   53       -1.739412
   54       -1.738581
   55       -1.734877
   56       -1.732912
   57       -0.493412
   58       -0.159690
   59       -0.159022
   60        0.209291
   61        1.473414
   62        1.733842
   63        1.734716
   64        2.011105
   65        5.155754
   66        5.277805
   67        5.280377
   68        5.406130
   69        7.337777
   70        7.446365
   71        7.448850
   72        7.557969
   73        8.900455
   74        8.901094
   75       10.346073
   76       10.354023
   77       10.354972
   78       10.362512
   79       10.536849
   80       10.539656
   81       10.754997
   82       10.757855
   83       10.794678
   84       10.801522
 
 -0.4444444E+00  0.1111111E+00  0.0000000E+00  0.6172840E-02
    1      -15.083806
    2      -15.042077
    3      -15.041609
    4      -14.998962
    5      -13.792595
    6      -13.754758
    7      -13.754372
    8      -13.715811
    9      -12.534450
   10      -12.500612
   11      -12.500055
   12      -12.465444
   13      -10.750901
   14      -10.723490
   15      -10.723035
   16      -10.695350
   17       -8.275099
   18       -8.256962
   19       -8.255942
   20       -8.237673
   21       -6.619439
   22       -6.604235
   23       -6.601710
   24       -6.586419
   25       -5.623919
   26       -5.611078
   27       -5.610904
   28       -5.597618
   29       -5.368166
   30       -5.352898
   31       -5.351288
   32       -5.335992
   33       -4.185289
   34       -4.176061
   35       -4.174028
   36       -4.164171
   37       -3.383700
   38       -2.984001
   39       -2.983055
   40       -2.531249
   41       -2.521948
   42       -2.514054
   43       -2.512389
   44       -2.504198
   45       -2.272519
   46       -2.266030
   47       -2.263370
   48       -2.257905
   49       -1.867991
   50       -1.500492
   51       -1.499396
   52       -1.146626
   53       -1.141357
   54       -1.139059
   55       -1.134993
   56       -1.088634
   57       -0.426270
   58       -0.097077
   59       -0.096312
   60        0.265853
   61        1.469804
   62        1.711467
   63        1.711905
   64        1.961154
   65        5.101384
   66        5.215137
   67        5.216948
   68        5.350213
   69        7.134668
   70        7.268159
   71        7.271142
   72        7.415525
   73        8.156899
   74        8.987300
   75        9.116156
   76        9.118703
   77        9.298498
   78        9.792280
   79        9.794176
   80        9.823432
   81       11.309866
   82       11.313224
   83       11.483703
   84       11.585797
 
 -0.3333333E+00  0.1111111E+00  0.0000000E+00  0.6172840E-02
    1      -15.519276
    2      -15.476133
    3      -15.475654
    4      -15.431641
    5      -12.948171
    6      -12.912861
    7      -12.912471
    8      -12.876639
    9      -12.328251
   10      -12.294937
   11      -12.294399
   12      -12.260661
   13      -10.612431
   14      -10.588237
   15      -10.587762
   16      -10.563670
   17       -9.039182
   18       -9.020132
   19       -9.019572
   20       -9.000002
   21       -7.408320
   22       -7.389332
   23       -7.387204
   24       -7.367978
   25       -6.808398
   26       -6.789978
   27       -6.788726
   28       -6.769929
   29       -4.691622
   30       -4.679488
   31       -4.679190
   32       -4.667139
   33       -3.904800
   34       -3.496064
   35       -3.495130
   36       -3.488487
   37       -3.480138
   38       -3.478363
   39       -3.469745
   40       -3.031698
   41       -2.686878
   42       -2.680221
   43       -2.677689
   44       -2.671795
   45       -1.287139
   46       -1.282392
   47       -1.281168
   48       -1.276275
   49       -0.916909
   50       -0.578518
   51       -0.577083
   52       -0.525168
   53       -0.521113
   54       -0.519287
   55       -0.516484
   56       -0.229194
   57       -0.203709
   58        0.085605
   59        0.086534
   60        0.429386
   61        1.430267
   62        1.621054
   63        1.621325
   64        1.801288
   65        5.008668
   66        5.103137
   67        5.104571
   68        5.253402
   69        6.646819
   70        6.815999
   71        6.819365
   72        7.020598
   73        7.446114
   74        7.595712
   75        7.620229
   76        7.623672
   77        7.836900
   78        9.269526
   79        9.271305
   80       10.892482
   81       11.390210
   82       11.409394
   83       11.411282
   84       11.554529
 
 -0.2222222E+00  0.1111111E+00  0.0000000E+00  0.6172840E-02
    1      -15.810846
    2      -15.766754
    3      -15.766267
    4      -15.721272
    5      -11.989723
    6      -11.988902
    7      -11.957677
    8      -11.957199
    9      -11.956852
   10      -11.956378
   11      -11.924825
   12      -11.924009
   13      -10.577286
   14      -10.561695
   15      -10.561222
   16      -10.546383
   17       -9.529760
   18       -9.518940
   19       -9.518503
   20       -9.505956
   21       -8.185327
   22       -8.182213
   23       -8.164109
   24       -8.162123
   25       -8.160622
   26       -8.159495
   27       -8.140780
   28       -8.137749
   29       -4.255570
   30       -3.841158
   31       -3.840248
   32       -3.791672
   33       -3.782500
   34       -3.782062
   35       -3.772643
   36       -3.369607
   37       -2.971950
   38       -2.966336
   39       -2.965282
   40       -2.962883
   41       -2.959876
   42       -2.958218
   43       -2.956726
   44       -2.951479
   45       -0.343371
   46       -0.340787
   47       -0.340059
   48       -0.337470
   49        0.019608
   50        0.021670
   51        0.022203
   52        0.024153
   53        0.082421
   54        0.083486
   55        0.370084
   56        0.371688
   57        0.371805
   58        0.372884
   59        0.678871
   60        0.680305
   61        1.264418
   62        1.418497
   63        1.418914
   64        1.552988
   65        4.998383
   66        5.100447
   67        5.101861
   68        5.283729
   69        6.063913
   70        6.068775
   71        6.249781
   72        6.253414
   73        6.255190
   74        6.257814
   75        6.491709
   76        6.496413
   77        7.223833
   78        8.915976
   79        8.917773
   80       11.222719
   81       11.229371
   82       11.285807
   83       11.288401
   84       11.292340
 
 -0.1111111E+00  0.1111111E+00  0.0000000E+00  0.6172840E-02
    1      -15.957009
    2      -15.912444
    3      -15.911955
    4      -15.866460
    5      -11.531858
    6      -11.502010
    7      -11.501663
    8      -11.471225
    9      -10.996016
   10      -10.993888
   11      -10.971671
   12      -10.968954
   13      -10.968952
   14      -10.967676
   15      -10.944565
   16      -10.942642
   17       -9.381912
   18       -9.380416
   19       -9.361606
   20       -9.360538
   21       -9.360535
   22       -9.358354
   23       -9.339315
   24       -9.337514
   25       -8.865801
   26       -8.843861
   27       -8.841837
   28       -8.819207
   29       -4.431979
   30       -4.014719
   31       -4.013813
   32       -3.539706
   33       -3.118210
   34       -3.114869
   35       -3.110939
   36       -3.107954
   37       -3.107953
   38       -3.107390
   39       -3.101830
   40       -3.100366
   41       -2.814907
   42       -2.809223
   43       -2.807625
   44       -2.801801
   45        0.179139
   46        0.187794
   47        0.189680
   48        0.191767
   49        0.333966
   50        0.336091
   51        0.337550
   52        0.344943
   53        0.482110
   54        0.728486
   55        0.729921
   56        0.909016
   57        0.911163
   58        0.982002
   59        1.098365
   60        1.101894
   61        1.101916
   62        1.102542
   63        1.280688
   64        1.282651
   65        5.163112
   66        5.165243
   67        5.306541
   68        5.307859
   69        5.307961
   70        5.312039
   71        5.532358
   72        5.533934
   73        5.535917
   74        5.710385
   75        5.714273
   76        5.960353
   77        7.037303
   78        8.738798
   79        8.740610
   80       10.858374
   81       10.920040
   82       10.920554
   83       10.981913
   84       11.153882
 
 -0.3388132E-20  0.2222222E+00  0.0000000E+00  0.6172840E-02
    1      -15.737821
    2      -15.693969
    3      -15.693483
    4      -15.648761
    5      -12.532582
    6      -12.498676
    7      -12.498180
    8      -12.463612
    9      -11.335824
   10      -11.333353
   11      -11.307516
   12      -11.304994
   13      -11.304428
   14      -11.302780
   15      -11.276204
   16      -11.273826
   17       -8.699187
   18       -8.694813
   19       -8.678260
   20       -8.675100
   21       -8.673406
   22       -8.671129
   23       -8.653776
   24       -8.649559
   25       -7.543651
   26       -7.523055
   27       -7.522627
   28       -7.501609
   29       -4.167691
   30       -3.754633
   31       -3.753720
   32       -3.718162
   33       -3.712930
   34       -3.709413
   35       -3.706988
   36       -3.704113
   37       -3.702466
   38       -3.698375
   39       -3.693413
   40       -3.284774
   41       -2.604589
   42       -2.598658
   43       -2.598241
   44       -2.592219
   45       -0.630201
   46       -0.625630
   47       -0.624859
   48       -0.620256
   49       -0.477197
   50       -0.158736
   51       -0.158092
   52       -0.086003
   53       -0.082631
   54       -0.082241
   55       -0.078835
   56        0.188969
   57        0.734089
   58        0.736621
   59        0.978680
   60        0.981593
   61        0.981656
   62        0.983832
   63        1.232196
   64        1.234763
   65        5.475701
   66        5.480953
   67        5.631492
   68        5.635713
   69        5.637496
   70        5.640713
   71        5.845423
   72        5.850685
   73        6.741531
   74        6.932321
   75        6.933963
   76        7.173600
   77        7.317232
   78        9.004230
   79        9.006021
   80       10.952874
   81       11.019787
   82       11.020412
   83       11.050418
   84       11.569175
 
  0.1111111E+00  0.2222222E+00  0.0000000E+00  0.6172840E-02
    1      -15.519204
    2      -15.476057
    3      -15.475586
    4      -15.431569
    5      -12.948416
    6      -12.913174
    7      -12.912647
    8      -12.876883
    9      -12.327773
   10      -12.294410
   11      -12.293976
   12      -12.260188
   13      -10.612597
   14      -10.588259
   15      -10.588066
   16      -10.563825
   17       -9.041964
   18       -9.023666
   19       -9.021198
   20       -9.002443
   21       -7.404766
   22       -7.385305
   23       -7.384312
   24       -7.364570
   25       -6.809028
   26       -6.790325
   27       -6.789764
   28       -6.770698
   29       -4.688380
   30       -4.676656
   31       -4.675329
   32       -4.663537
   33       -3.904761
   34       -3.496124
   35       -3.495121
   36       -3.493535
   37       -3.485285
   38       -3.483022
   39       -3.474827
   40       -3.031668
   41       -2.684877
   42       -2.678046
   43       -2.677812
   44       -2.671069
   45       -1.285615
   46       -1.280956
   47       -1.279360
   48       -1.274242
   49       -0.916571