  32  32   0   0
  0.8419860E+01  0.4934311E-09  0.4934311E-09  0.1277891E-08  0.5000000E-15
  1.000000000000000E-004
  CAR 
 graphite                                
     16.67638140    -16.57038255  301      5.09698103      1.00000000
    -16.570  0.0000E+00  0.0000E+00
    -16.460  0.0000E+00  0.0000E+00
    -16.349  0.0000E+00  0.0000E+00
    -16.238  0.0000E+00  0.0000E+00
    -16.127  0.0000E+00  0.0000E+00
    -16.016  0.0000E+00  0.0000E+00
    -15.905  0.0000E+00  0.0000E+00
    -15.795  0.0000E+00  0.0000E+00
    -15.684  0.0000E+00  0.0000E+00
    -15.573  0.0000E+00  0.0000E+00
    -15.462  0.0000E+00  0.0000E+00
    -15.351  0.0000E+00  0.0000E+00
    -15.241  0.0000E+00  0.0000E+00
    -15.130  0.0000E+00  0.0000E+00
    -15.019  0.0000E+00  0.0000E+00
    -14.908  0.0000E+00  0.0000E+00
    -14.797  0.0000E+00  0.0000E+00
    -14.686  0.0000E+00  0.0000E+00
    -14.576  0.0000E+00  0.0000E+00
    -14.465  0.1457E+01  0.8445E-01
    -14.354  0.2411E+01  0.2964E+00
    -14.243  0.3169E+01  0.6078E+00
    -14.132  0.4483E+01  0.1018E+01
    -14.021  0.4917E+01  0.1562E+01
    -13.911  0.4918E+01  0.2111E+01
    -13.800  0.4916E+01  0.2651E+01
    -13.689  0.5022E+01  0.3203E+01
    -13.578  0.4923E+01  0.3754E+01
    -13.467  0.4954E+01  0.4300E+01
    -13.357  0.5357E+01  0.4862E+01
    -13.246  0.5602E+01  0.5472E+01
    -13.135  0.6555E+01  0.6128E+01
    -13.024  0.6216E+01  0.6858E+01
    -12.913  0.4073E+01  0.7386E+01
    -12.802  0.2737E+01  0.7721E+01
    -12.692  0.3591E+01  0.8070E+01
    -12.581  0.4059E+01  0.8465E+01
    -12.470  0.6319E+01  0.9141E+01
    -12.359  0.5329E+01  0.9774E+01
    -12.248  0.6006E+01  0.1039E+02
    -12.137  0.4458E+01  0.1100E+02
    -12.027  0.4756E+01  0.1151E+02
    -11.916  0.4982E+01  0.1205E+02
    -11.805  0.5001E+01  0.1261E+02
    -11.694  0.5057E+01  0.1316E+02
    -11.583  0.5293E+01  0.1373E+02
    -11.473  0.5807E+01  0.1436E+02
    -11.362  0.5034E+01  0.1495E+02
    -11.251  0.5026E+01  0.1551E+02
    -11.140  0.5047E+01  0.1607E+02
    -11.029  0.5115E+01  0.1663E+02
    -10.918  0.5193E+01  0.1720E+02
    -10.808  0.5286E+01  0.1778E+02
    -10.697  0.5526E+01  0.1838E+02
    -10.586  0.5671E+01  0.1900E+02
    -10.475  0.5989E+01  0.1964E+02
    -10.364  0.5964E+01  0.2030E+02
    -10.253  0.6015E+01  0.2096E+02
    -10.143  0.5348E+01  0.2161E+02
    -10.032  0.4328E+01  0.2214E+02
     -9.921  0.4385E+01  0.2260E+02
     -9.810  0.5120E+01  0.2314E+02
     -9.699  0.5394E+01  0.2373E+02
     -9.589  0.5585E+01  0.2433E+02
     -9.478  0.5844E+01  0.2497E+02
     -9.367  0.7012E+01  0.2569E+02
     -9.256  0.8707E+01  0.2655E+02
     -9.145  0.8382E+01  0.2759E+02
     -9.034  0.6965E+01  0.2841E+02
     -8.924  0.5203E+01  0.2905E+02
     -8.813  0.3668E+01  0.2961E+02
     -8.702  0.3281E+01  0.2999E+02
     -8.591  0.2893E+01  0.3034E+02
     -8.480  0.2506E+01  0.3064E+02
     -8.370  0.2862E+01  0.3092E+02
     -8.259  0.2497E+01  0.3123E+02
     -8.148  0.1981E+01  0.3148E+02
     -8.037  0.1801E+01  0.3167E+02
     -7.926  0.2741E+01  0.3192E+02
     -7.815  0.6490E+01  0.3250E+02
     -7.705  0.4270E+01  0.3310E+02
     -7.594  0.3997E+01  0.3356E+02
     -7.483  0.4884E+01  0.3403E+02
     -7.372  0.6483E+01  0.3472E+02
     -7.261  0.6514E+01  0.3551E+02
     -7.150  0.7606E+01  0.3629E+02
     -7.040  0.8924E+01  0.3721E+02
     -6.929  0.7584E+01  0.3812E+02
     -6.818  0.6202E+01  0.3885E+02
     -6.707  0.5914E+01  0.3953E+02
     -6.596  0.5658E+01  0.4017E+02
     -6.486  0.5449E+01  0.4078E+02
     -6.375  0.5259E+01  0.4138E+02
     -6.264  0.5071E+01  0.4195E+02
     -6.153  0.4896E+01  0.4250E+02
     -6.042  0.4838E+01  0.4304E+02
     -5.931  0.4811E+01  0.4357E+02
     -5.821  0.4681E+01  0.4410E+02
     -5.710  0.4544E+01  0.4461E+02
     -5.599  0.4427E+01  0.4511E+02
     -5.488  0.3599E+01  0.4553E+02
     -5.377  0.4146E+01  0.4597E+02
     -5.266  0.4803E+01  0.4646E+02
     -5.156  0.5576E+01  0.4704E+02
     -5.045  0.6495E+01  0.4770E+02
     -4.934  0.8950E+01  0.4857E+02
     -4.823  0.9410E+01  0.4965E+02
     -4.712  0.6840E+01  0.5055E+02
     -4.602  0.4269E+01  0.5117E+02
     -4.491  0.2463E+01  0.5152E+02
     -4.380  0.2864E+01  0.5180E+02
     -4.269  0.4101E+01  0.5218E+02
     -4.158  0.5582E+01  0.5272E+02
     -4.047  0.7379E+01  0.5343E+02
     -3.937  0.8084E+01  0.5430E+02
     -3.826  0.6971E+01  0.5515E+02
     -3.715  0.5754E+01  0.5585E+02
     -3.604  0.6660E+01  0.5647E+02
     -3.493  0.7940E+01  0.5733E+02
     -3.382  0.7583E+01  0.5819E+02
     -3.272  0.7437E+01  0.5901E+02
     -3.161  0.7744E+01  0.5985E+02
     -3.050  0.9900E+01  0.6074E+02
     -2.939  0.1014E+02  0.6177E+02
     -2.828  0.9155E+01  0.6276E+02
     -2.718  0.8355E+01  0.6374E+02
     -2.607  0.7078E+01  0.6460E+02
     -2.496  0.7311E+01  0.6538E+02
     -2.385  0.8370E+01  0.6624E+02
     -2.274  0.1013E+02  0.6726E+02
     -2.163  0.1220E+02  0.6851E+02
     -2.053  0.1341E+02  0.6992E+02
     -1.942  0.1036E+02  0.7119E+02
     -1.831  0.1179E+02  0.7242E+02
     -1.720  0.1271E+02  0.7377E+02
     -1.609  0.1509E+02  0.7533E+02
     -1.499  0.1320E+02  0.7686E+02
     -1.388  0.1491E+02  0.7854E+02
     -1.277  0.1085E+02  0.7975E+02
     -1.166  0.2018E+02  0.8157E+02
     -1.055  0.1951E+02  0.8368E+02
     -0.944  0.1560E+02  0.8563E+02
     -0.834  0.1329E+02  0.8723E+02
     -0.723  0.1124E+02  0.8858E+02
     -0.612  0.1037E+02  0.8979E+02
     -0.501  0.7788E+01  0.9077E+02
     -0.390  0.9836E+01  0.9169E+02
     -0.279  0.1458E+02  0.9307E+02
     -0.169  0.1523E+02  0.9466E+02
     -0.058  0.8889E+01  0.9610E+02
      0.053  0.8811E+01  0.9707E+02
      0.164  0.9559E+01  0.9808E+02
      0.275  0.1007E+02  0.9917E+02
      0.385  0.1088E+02  0.1004E+03
      0.496  0.1167E+02  0.1016E+03
      0.607  0.9628E+01  0.1028E+03
      0.718  0.9412E+01  0.1038E+03
      0.829  0.9360E+01  0.1049E+03
      0.940  0.9472E+01  0.1059E+03
      1.050  0.9869E+01  0.1070E+03
      1.161  0.9230E+01  0.1080E+03
      1.272  0.9200E+01  0.1090E+03
      1.383  0.9334E+01  0.1101E+03
      1.494  0.9696E+01  0.1111E+03
      1.605  0.9501E+01  0.1122E+03
      1.715  0.8912E+01  0.1132E+03
      1.826  0.8996E+01  0.1142E+03
      1.937  0.9347E+01  0.1152E+03
      2.048  0.8804E+01  0.1163E+03
      2.159  0.6540E+01  0.1171E+03
      2.269  0.5652E+01  0.1178E+03
      2.380  0.5638E+01  0.1184E+03
      2.491  0.5279E+01  0.1191E+03
      2.602  0.4686E+01  0.1196E+03
      2.713  0.6738E+01  0.1202E+03
      2.824  0.8210E+01  0.1211E+03
      2.934  0.6949E+01  0.1219E+03
      3.045  0.4940E+01  0.1226E+03
      3.156  0.6678E+01  0.1232E+03
      3.267  0.6175E+01  0.1238E+03
      3.378  0.5850E+01  0.1246E+03
      3.488  0.4591E+01  0.1251E+03
      3.599  0.3760E+01  0.1256E+03
      3.710  0.3217E+01  0.1260E+03
      3.821  0.2904E+01  0.1263E+03
      3.932  0.2591E+01  0.1266E+03
      4.043  0.2185E+01  0.1269E+03
      4.153  0.1855E+01  0.1271E+03
      4.264  0.1598E+01  0.1273E+03
      4.375  0.1361E+01  0.1275E+03
      4.486  0.1159E+01  0.1276E+03
      4.597  0.9866E+00  0.1277E+03
      4.708  0.8596E+00  0.1278E+03
      4.818  0.5988E+00  0.1279E+03
      4.929  0.3454E+00  0.1280E+03
      5.040  0.9904E-01  0.1280E+03
      5.151  0.4987E-01  0.1280E+03
      5.262  0.1939E+00  0.1280E+03
      5.372  0.3468E+00  0.1280E+03
      5.483  0.5090E+00  0.1281E+03
      5.594  0.6852E+00  0.1282E+03
      5.705  0.8765E+00  0.1282E+03
      5.816  0.1083E+01  0.1284E+03
      5.927  0.1358E+01  0.1285E+03
      6.037  0.1675E+01  0.1287E+03
      6.148  0.2049E+01  0.1289E+03
      6.259  0.2443E+01  0.1291E+03
      6.370  0.3342E+01  0.1294E+03
      6.481  0.4504E+01  0.1299E+03
      6.592  0.7941E+01  0.1304E+03
      6.702  0.1281E+02  0.1315E+03
      6.813  0.8221E+01  0.1324E+03
      6.924  0.7322E+01  0.1333E+03
      7.035  0.7351E+01  0.1341E+03
      7.146  0.7626E+01  0.1349E+03
      7.256  0.6008E+01  0.1357E+03
      7.367  0.5382E+01  0.1363E+03
      7.478  0.4975E+01  0.1369E+03
      7.589  0.4061E+01  0.1374E+03
      7.700  0.3560E+01  0.1378E+03
      7.811  0.3489E+01  0.1382E+03
      7.921  0.3859E+01  0.1386E+03
      8.032  0.4158E+01  0.1391E+03
      8.143  0.4560E+01  0.1395E+03
      8.254  0.4847E+01  0.1401E+03
      8.365  0.4857E+01  0.1406E+03
      8.476  0.4596E+01  0.1411E+03
      8.586  0.4328E+01  0.1416E+03
      8.697  0.4071E+01  0.1421E+03
      8.808  0.3946E+01  0.1425E+03
      8.919  0.3784E+01  0.1430E+03
      9.030  0.3651E+01  0.1434E+03
      9.140  0.3566E+01  0.1438E+03
      9.251  0.3464E+01  0.1442E+03
      9.362  0.3313E+01  0.1445E+03
      9.473  0.3214E+01  0.1449E+03
      9.584  0.3180E+01  0.1453E+03
      9.695  0.3189E+01  0.1456E+03
      9.805  0.3242E+01  0.1460E+03
      9.916  0.3125E+01  0.1463E+03
     10.027  0.3256E+01  0.1467E+03
     10.138  0.3448E+01  0.1470E+03
     10.249  0.3513E+01  0.1474E+03
     10.359  0.3584E+01  0.1478E+03
     10.470  0.3682E+01  0.1482E+03
     10.581  0.3753E+01  0.1486E+03
     10.692  0.3709E+01  0.1491E+03
     10.803  0.3668E+01  0.1495E+03
     10.914  0.3957E+01  0.1499E+03
     11.024  0.4290E+01  0.1503E+03
     11.135  0.4412E+01  0.1508E+03
     11.246  0.4355E+01  0.1513E+03
     11.357  0.4361E+01  0.1518E+03
     11.468  0.4235E+01  0.1523E+03
     11.579  0.5703E+01  0.1528E+03
     11.689  0.4209E+01  0.1534E+03
     11.800  0.3184E+01  0.1538E+03
     11.911  0.2886E+01  0.1541E+03
     12.022  0.2822E+01  0.1544E+03
     12.133  0.3339E+01  0.1547E+03
     12.243  0.3657E+01  0.1551E+03
     12.354  0.5284E+01  0.1557E+03
     12.465  0.7729E+01  0.1563E+03
     12.576  0.8740E+01  0.1573E+03
     12.687  0.1229E+02  0.1584E+03
     12.798  0.1226E+02  0.1597E+03
     12.908  0.1260E+02  0.1611E+03
     13.019  0.1076E+02  0.1624E+03
     13.130  0.1072E+02  0.1636E+03
     13.241  0.9884E+01  0.1647E+03
     13.352  0.8466E+01  0.1658E+03
     13.463  0.7402E+01  0.1666E+03
     13.573  0.4516E+01  0.1673E+03
     13.684  0.2668E+01  0.1677E+03
     13.795  0.9938E+00  0.1679E+03
     13.906  0.2583E+00  0.1680E+03
     14.017  0.1338E+00  0.1680E+03
     14.127  0.6902E-01  0.1680E+03
     14.238  0.4396E-01  0.1680E+03
     14.349  0.2453E-01  0.1680E+03
     14.460  0.1073E-01  0.1680E+03
     14.571  0.2556E-02  0.1680E+03
     14.682  0.0000E+00  0.1680E+03
     14.792  0.0000E+00  0.1680E+03
     14.903  0.0000E+00  0.1680E+03
     15.014  0.0000E+00  0.1680E+03
     15.125  0.0000E+00  0.1680E+03
     15.236  0.0000E+00  0.1680E+03
     15.347  0.0000E+00  0.1680E+03
     15.457  0.0000E+00  0.1680E+03
     15.568  0.0000E+00  0.1680E+03
     15.679  0.0000E+00  0.1680E+03
     15.790  0.0000E+00  0.1680E+03
     15.901  0.0000E+00  0.1680E+03
     16.011  0.0000E+00  0.1680E+03
     16.122  0.0000E+00  0.1680E+03
     16.233  0.0000E+00  0.1680E+03
     16.344  0.0000E+00  0.1680E+03
     16.455  0.0000E+00  0.1680E+03
     16.566  0.0000E+00  0.1680E+03
     16.676  0.0000E+00  0.1680E+03
