  32  32   0   0
  0.8951641E+01  0.4934311E-09  0.4934311E-09  0.1358600E-08  0.5000000E-15
  1.000000000000000E-004
  CAR 
 graphite                                
     15.38834467    -17.04644736  301      4.56071618      1.00000000
    -17.046  0.0000E+00  0.0000E+00
    -16.938  0.0000E+00  0.0000E+00
    -16.830  0.0000E+00  0.0000E+00
    -16.722  0.0000E+00  0.0000E+00
    -16.614  0.0000E+00  0.0000E+00
    -16.506  0.0000E+00  0.0000E+00
    -16.398  0.0000E+00  0.0000E+00
    -16.290  0.0000E+00  0.0000E+00
    -16.182  0.0000E+00  0.0000E+00
    -16.073  0.0000E+00  0.0000E+00
    -15.965  0.0000E+00  0.0000E+00
    -15.857  0.0000E+00  0.0000E+00
    -15.749  0.0000E+00  0.0000E+00
    -15.641  0.0000E+00  0.0000E+00
    -15.533  0.0000E+00  0.0000E+00
    -15.425  0.0000E+00  0.0000E+00
    -15.317  0.0000E+00  0.0000E+00
    -15.208  0.0000E+00  0.0000E+00
    -15.100  0.0000E+00  0.0000E+00
    -14.992  0.1138E+01  0.2381E-01
    -14.884  0.2523E+01  0.2325E+00
    -14.776  0.4175E+01  0.5896E+00
    -14.668  0.4807E+01  0.1107E+01
    -14.560  0.5029E+01  0.1642E+01
    -14.452  0.4909E+01  0.2175E+01
    -14.344  0.4954E+01  0.2709E+01
    -14.235  0.4914E+01  0.3243E+01
    -14.127  0.4983E+01  0.3778E+01
    -14.019  0.4985E+01  0.4317E+01
    -13.911  0.5007E+01  0.4857E+01
    -13.803  0.5627E+01  0.5427E+01
    -13.695  0.5902E+01  0.6054E+01
    -13.587  0.6810E+01  0.6767E+01
    -13.479  0.4590E+01  0.7358E+01
    -13.371  0.1791E+01  0.7722E+01
    -13.262  0.3336E+01  0.7967E+01
    -13.154  0.4258E+01  0.8412E+01
    -13.046  0.4629E+01  0.8896E+01
    -12.938  0.5923E+01  0.9641E+01
    -12.830  0.6723E+01  0.1034E+02
    -12.722  0.4356E+01  0.1089E+02
    -12.614  0.4530E+01  0.1137E+02
    -12.506  0.4665E+01  0.1187E+02
    -12.397  0.4780E+01  0.1238E+02
    -12.289  0.5146E+01  0.1292E+02
    -12.181  0.5492E+01  0.1349E+02
    -12.073  0.5673E+01  0.1412E+02
    -11.965  0.5528E+01  0.1472E+02
    -11.857  0.5137E+01  0.1529E+02
    -11.749  0.4948E+01  0.1583E+02
    -11.641  0.4929E+01  0.1636E+02
    -11.533  0.5026E+01  0.1690E+02
    -11.424  0.5085E+01  0.1745E+02
    -11.316  0.5227E+01  0.1800E+02
    -11.208  0.5500E+01  0.1858E+02
    -11.100  0.5908E+01  0.1920E+02
    -10.992  0.5795E+01  0.1983E+02
    -10.884  0.5746E+01  0.2045E+02
    -10.776  0.5805E+01  0.2107E+02
    -10.668  0.5341E+01  0.2170E+02
    -10.559  0.4542E+01  0.2221E+02
    -10.451  0.5148E+01  0.2274E+02
    -10.343  0.5344E+01  0.2331E+02
    -10.235  0.5445E+01  0.2389E+02
    -10.127  0.5644E+01  0.2449E+02
    -10.019  0.5893E+01  0.2511E+02
     -9.911  0.7286E+01  0.2581E+02
     -9.803  0.1062E+02  0.2676E+02
     -9.695  0.7167E+01  0.2772E+02
     -9.586  0.6688E+01  0.2838E+02
     -9.478  0.5962E+01  0.2909E+02
     -9.370  0.3638E+01  0.2962E+02
     -9.262  0.3267E+01  0.2999E+02
     -9.154  0.2895E+01  0.3032E+02
     -9.046  0.2524E+01  0.3062E+02
     -8.938  0.2399E+01  0.3087E+02
     -8.830  0.3094E+01  0.3119E+02
     -8.722  0.2031E+01  0.3147E+02
     -8.613  0.1532E+01  0.3163E+02
     -8.505  0.2423E+01  0.3184E+02
     -8.397  0.6025E+01  0.3223E+02
     -8.289  0.4528E+01  0.3299E+02
     -8.181  0.3882E+01  0.3343E+02
     -8.073  0.4214E+01  0.3387E+02
     -7.965  0.6821E+01  0.3448E+02
     -7.857  0.6187E+01  0.3526E+02
     -7.748  0.7251E+01  0.3599E+02
     -7.640  0.8351E+01  0.3683E+02
     -7.532  0.8303E+01  0.3778E+02
     -7.424  0.6325E+01  0.3855E+02
     -7.316  0.6062E+01  0.3922E+02
     -7.208  0.5802E+01  0.3986E+02
     -7.100  0.5566E+01  0.4047E+02
     -6.992  0.5372E+01  0.4106E+02
     -6.884  0.5191E+01  0.4163E+02
     -6.775  0.4997E+01  0.4219E+02
     -6.667  0.4857E+01  0.4272E+02
     -6.559  0.4829E+01  0.4324E+02
     -6.451  0.4799E+01  0.4376E+02
     -6.343  0.4654E+01  0.4428E+02
     -6.235  0.4435E+01  0.4477E+02
     -6.127  0.4381E+01  0.4524E+02
     -6.019  0.4065E+01  0.4565E+02
     -5.911  0.4218E+01  0.4609E+02
     -5.802  0.4851E+01  0.4658E+02
     -5.694  0.5648E+01  0.4715E+02
     -5.586  0.6441E+01  0.4781E+02
     -5.478  0.9860E+01  0.4868E+02
     -5.370  0.8902E+01  0.4975E+02
     -5.262  0.6595E+01  0.5059E+02
     -5.154  0.4287E+01  0.5118E+02
     -5.046  0.2618E+01  0.5153E+02
     -4.937  0.2933E+01  0.5182E+02
     -4.829  0.4141E+01  0.5220E+02
     -4.721  0.5474E+01  0.5272E+02
     -4.613  0.7024E+01  0.5339E+02
     -4.505  0.8140E+01  0.5423E+02
     -4.397  0.6988E+01  0.5506E+02
     -4.289  0.5730E+01  0.5574E+02
     -4.181  0.6643E+01  0.5637E+02
     -4.073  0.7352E+01  0.5718E+02
     -3.964  0.6831E+01  0.5794E+02
     -3.856  0.6349E+01  0.5865E+02
     -3.748  0.6456E+01  0.5935E+02
     -3.640  0.7669E+01  0.6004E+02
     -3.532  0.1238E+02  0.6115E+02
     -3.424  0.8806E+01  0.6225E+02
     -3.316  0.7924E+01  0.6316E+02
     -3.208  0.7301E+01  0.6398E+02
     -3.099  0.6801E+01  0.6472E+02
     -2.991  0.7537E+01  0.6549E+02
     -2.883  0.8599E+01  0.6636E+02
     -2.775  0.1035E+02  0.6737E+02
     -2.667  0.1429E+02  0.6871E+02
     -2.559  0.1256E+02  0.7023E+02
     -2.451  0.1155E+02  0.7150E+02
     -2.343  0.1270E+02  0.7284E+02
     -2.235  0.1396E+02  0.7421E+02
     -2.126  0.1361E+02  0.7579E+02
     -2.018  0.1485E+02  0.7724E+02
     -1.910  0.1264E+02  0.7907E+02
     -1.802  0.1343E+02  0.8031E+02
     -1.694  0.1640E+02  0.8239E+02
     -1.586  0.1837E+02  0.8432E+02
     -1.478  0.1487E+02  0.8617E+02
     -1.370  0.1218E+02  0.8764E+02
     -1.262  0.1058E+02  0.8885E+02
     -1.153  0.8969E+01  0.8995E+02
     -1.045  0.7564E+01  0.9086E+02
     -0.937  0.1080E+02  0.9183E+02
     -0.829  0.1342E+02  0.9319E+02
     -0.721  0.1624E+02  0.9464E+02
     -0.613  0.9089E+01  0.9612E+02
     -0.505  0.9770E+01  0.9712E+02
     -0.397  0.1088E+02  0.9823E+02
     -0.288  0.1047E+02  0.9936E+02
     -0.180  0.1118E+02  0.1005E+03
     -0.072  0.9535E+01  0.1016E+03
      0.036  0.9226E+01  0.1026E+03
      0.144  0.1013E+02  0.1037E+03
      0.252  0.9767E+01  0.1048E+03
      0.360  0.9329E+01  0.1058E+03
      0.468  0.9240E+01  0.1068E+03
      0.576  0.9463E+01  0.1078E+03
      0.685  0.9397E+01  0.1088E+03
      0.793  0.9266E+01  0.1099E+03
      0.901  0.9394E+01  0.1109E+03
      1.009  0.9118E+01  0.1119E+03
      1.117  0.9490E+01  0.1129E+03
      1.225  0.9599E+01  0.1139E+03
      1.333  0.9712E+01  0.1150E+03
      1.441  0.9933E+01  0.1160E+03
      1.550  0.7285E+01  0.1169E+03
      1.658  0.6617E+01  0.1177E+03
      1.766  0.6241E+01  0.1184E+03
      1.874  0.4985E+01  0.1190E+03
      1.982  0.3800E+01  0.1194E+03
      2.090  0.4237E+01  0.1198E+03
      2.198  0.6854E+01  0.1204E+03
      2.306  0.8578E+01  0.1213E+03
      2.414  0.5449E+01  0.1222E+03
      2.523  0.8493E+01  0.1229E+03
      2.631  0.6807E+01  0.1238E+03
      2.739  0.5251E+01  0.1244E+03
      2.847  0.4402E+01  0.1250E+03
      2.955  0.3745E+01  0.1254E+03
      3.063  0.3293E+01  0.1258E+03
      3.171  0.3143E+01  0.1261E+03
      3.279  0.2835E+01  0.1264E+03
      3.387  0.2436E+01  0.1267E+03
      3.496  0.2065E+01  0.1270E+03
      3.604  0.1832E+01  0.1272E+03
      3.712  0.1594E+01  0.1274E+03
      3.820  0.1353E+01  0.1275E+03
      3.928  0.1119E+01  0.1277E+03
      4.036  0.9236E+00  0.1278E+03
      4.144  0.7038E+00  0.1279E+03
      4.252  0.5015E+00  0.1279E+03
      4.361  0.3126E+00  0.1280E+03
      4.469  0.1345E+00  0.1280E+03
      4.577  0.9606E-02  0.1280E+03
      4.685  0.1335E+00  0.1280E+03
      4.793  0.2688E+00  0.1280E+03
      4.901  0.4179E+00  0.1281E+03
      5.009  0.5837E+00  0.1281E+03
      5.117  0.7727E+00  0.1282E+03
      5.225  0.1004E+01  0.1283E+03
      5.334  0.1375E+01  0.1284E+03
      5.442  0.1751E+01  0.1286E+03
      5.550  0.2092E+01  0.1288E+03
      5.658  0.2477E+01  0.1290E+03
      5.766  0.3218E+01  0.1293E+03
      5.874  0.3440E+01  0.1297E+03
      5.982  0.4406E+01  0.1301E+03
      6.090  0.7408E+01  0.1308E+03
      6.198  0.8181E+01  0.1318E+03
      6.307  0.8281E+01  0.1327E+03
      6.415  0.7996E+01  0.1336E+03
      6.523  0.7567E+01  0.1345E+03
      6.631  0.6309E+01  0.1352E+03
      6.739  0.6078E+01  0.1359E+03
      6.847  0.5584E+01  0.1365E+03
      6.955  0.4895E+01  0.1371E+03
      7.063  0.4287E+01  0.1376E+03
      7.172  0.3640E+01  0.1380E+03
      7.280  0.3580E+01  0.1384E+03
      7.388  0.3923E+01  0.1388E+03
      7.496  0.4433E+01  0.1392E+03
      7.604  0.4671E+01  0.1397E+03
      7.712  0.4698E+01  0.1402E+03
      7.820  0.4534E+01  0.1407E+03
      7.928  0.4379E+01  0.1412E+03
      8.036  0.4219E+01  0.1417E+03
      8.145  0.4046E+01  0.1421E+03
      8.253  0.3859E+01  0.1426E+03
      8.361  0.3718E+01  0.1430E+03
      8.469  0.3603E+01  0.1434E+03
      8.577  0.3525E+01  0.1437E+03
      8.685  0.3441E+01  0.1441E+03
      8.793  0.3347E+01  0.1445E+03
      8.901  0.3557E+01  0.1449E+03
      9.010  0.3758E+01  0.1453E+03
      9.118  0.3923E+01  0.1457E+03
      9.226  0.4081E+01  0.1461E+03
      9.334  0.4167E+01  0.1466E+03
      9.442  0.4063E+01  0.1470E+03
      9.550  0.3970E+01  0.1474E+03
      9.658  0.3959E+01  0.1479E+03
      9.766  0.3939E+01  0.1483E+03
      9.874  0.3958E+01  0.1487E+03
      9.983  0.3973E+01  0.1491E+03
     10.091  0.4031E+01  0.1496E+03
     10.199  0.4097E+01  0.1500E+03
     10.307  0.4245E+01  0.1505E+03
     10.415  0.4301E+01  0.1509E+03
     10.523  0.5455E+01  0.1514E+03
     10.631  0.5490E+01  0.1521E+03
     10.739  0.5351E+01  0.1526E+03
     10.847  0.4497E+01  0.1532E+03
     10.956  0.4480E+01  0.1537E+03
     11.064  0.3893E+01  0.1542E+03
     11.172  0.3467E+01  0.1546E+03
     11.280  0.3667E+01  0.1550E+03
     11.388  0.4371E+01  0.1554E+03
     11.496  0.3314E+01  0.1558E+03
     11.604  0.2442E+01  0.1561E+03
     11.712  0.3488E+01  0.1564E+03
     11.821  0.6416E+01  0.1569E+03
     11.929  0.7022E+01  0.1576E+03
     12.037  0.1064E+02  0.1586E+03
     12.145  0.1295E+02  0.1599E+03
     12.253  0.1392E+02  0.1614E+03
     12.361  0.1362E+02  0.1629E+03
     12.469  0.1050E+02  0.1642E+03
     12.577  0.7726E+01  0.1652E+03
     12.685  0.6279E+01  0.1659E+03
     12.794  0.5485E+01  0.1666E+03
     12.902  0.5462E+01  0.1672E+03
     13.010  0.3002E+01  0.1676E+03
     13.118  0.1711E+01  0.1679E+03
     13.226  0.5525E+00  0.1680E+03
     13.334  0.3799E-02  0.1680E+03
     13.442  0.0000E+00  0.1680E+03
     13.550  0.0000E+00  0.1680E+03
     13.658  0.0000E+00  0.1680E+03
     13.767  0.0000E+00  0.1680E+03
     13.875  0.0000E+00  0.1680E+03
     13.983  0.0000E+00  0.1680E+03
     14.091  0.0000E+00  0.1680E+03
     14.199  0.0000E+00  0.1680E+03
     14.307  0.0000E+00  0.1680E+03
     14.415  0.0000E+00  0.1680E+03
     14.523  0.0000E+00  0.1680E+03
     14.632  0.0000E+00  0.1680E+03
     14.740  0.0000E+00  0.1680E+03
     14.848  0.0000E+00  0.1680E+03
     14.956  0.0000E+00  0.1680E+03
     15.064  0.0000E+00  0.1680E+03
     15.172  0.0000E+00  0.1680E+03
     15.280  0.0000E+00  0.1680E+03
     15.388  0.0000E+00  0.1680E+03
