 running on    6 total cores
 distrk:  each k-point on    6 cores,    1 groups
 distr:  one band on    1 cores,    6 groups
 using from now: INCAR     
 vasp.5.3.5 31Mar14 (build Nov 02 2014 15:17:37) complex                        
  
 POSCAR found :  1 types and      32 ions
 scaLAPACK will be used

 ----------------------------------------------------------------------------- 
|                                                                             |
|           W    W    AA    RRRRR   N    N  II  N    N   GGGG   !!!           |
|           W    W   A  A   R    R  NN   N  II  NN   N  G    G  !!!           |
|           W    W  A    A  R    R  N N  N  II  N N  N  G       !!!           |
|           W WW W  AAAAAA  RRRRR   N  N N  II  N  N N  G  GGG   !            |
|           WW  WW  A    A  R   R   N   NN  II  N   NN  G    G                |
|           W    W  A    A  R    R  N    N  II  N    N   GGGG   !!!           |
|                                                                             |
|      For optimal performance we recommend to set                            |
|        NCORE= 4 - approx SQRT( number of cores)                             |
|      NCORE specifies how many cores store one orbital (NPAR=cpu/NCORE).     |
|      This setting can  greatly improve the performance of VASP for DFT.     |
|      The default, NPAR=number of cores might be grossly inefficient         |
|      on modern multi-core architectures or massively parallel machines.     |
|      Do your own testing !!!!                                               |
|      Unfortunately you need to use the default for GW and RPA calculations. |
|      (for HF NCORE is supported but not extensively tested yet)             |
|                                                                             |
 ----------------------------------------------------------------------------- 


 ----------------------------------------------------------------------------- 
|                                                                             |
|  ADVICE TO THIS USER RUNNING 'VASP/VAMP'   (HEAR YOUR MASTER'S VOICE ...):  |
|                                                                             |
|      You have a (more or less) 'large supercell' and for larger cells       |
|      it might be more efficient to use real space projection operators      |
|      So try LREAL= Auto  in the INCAR   file.                               |
|      Mind: If you want to do a very accurate calculations keep the          |
|      reciprocal projection scheme          (i.e. LREAL=.FALSE.)             |
|                                                                             |
 ----------------------------------------------------------------------------- 

 LDA part: xc-table for Pade appr. of Perdew
 POSCAR, INCAR and KPOINTS ok, starting setup
 WARNING: small aliasing (wrap around) errors must be expected
 FFT: planning ...
 WAVECAR not read
 WARNING: random wavefunctions but no delay for mixing, default for NELMDL
 entering main loop
       N       E                     dE             d eps       ncg     rms          rms(c)
DAV:   1     0.595880383459E+03    0.59588E+03   -0.71554E+04 27384   0.159E+03
DAV:   2    -0.262476464567E+03   -0.85836E+03   -0.82731E+03 34224   0.311E+02
DAV:   3    -0.312712957661E+03   -0.50236E+02   -0.49761E+02 33312   0.758E+01
DAV:   4    -0.313673353959E+03   -0.96040E+00   -0.95865E+00 34932   0.114E+01
DAV:   5    -0.313701206052E+03   -0.27852E-01   -0.27840E-01 35016   0.181E+00    0.220E+01
DAV:   6    -0.299261897457E+03    0.14439E+02   -0.14886E+01 31296   0.107E+01    0.116E+01
DAV:   7    -0.294676578413E+03    0.45853E+01   -0.15733E+01 30900   0.110E+01    0.195E+00
DAV:   8    -0.294737706608E+03   -0.61128E-01   -0.46138E-01 31620   0.199E+00    0.559E-01
DAV:   9    -0.294741582186E+03   -0.38756E-02   -0.36493E-02 31800   0.650E-01    0.223E-01
DAV:  10    -0.294740570789E+03    0.10114E-02   -0.13193E-02 40488   0.366E-01    0.118E-01
DAV:  11    -0.294741373836E+03   -0.80305E-03   -0.87564E-03 31224   0.226E-01    0.101E-01
DAV:  12    -0.294741615047E+03   -0.24121E-03   -0.65318E-03 31176   0.182E-01    0.874E-02
DAV:  13    -0.294741524065E+03    0.90982E-04   -0.25873E-03 31608   0.120E-01    0.521E-02
DAV:  14    -0.294741481736E+03    0.42328E-04   -0.18449E-04 32016   0.443E-02    0.318E-02
DAV:  15    -0.294741505187E+03   -0.23451E-04   -0.55688E-04 35652   0.258E-02    0.447E-02
DAV:  16    -0.294741480106E+03    0.25081E-04   -0.69894E-05 30612   0.191E-02    0.955E-03
DAV:  17    -0.294741516626E+03   -0.36520E-04   -0.44842E-04 28512   0.236E-02    0.480E-02
DAV:  18    -0.294741481391E+03    0.35235E-04   -0.12414E-04 24012   0.220E-02    0.245E-02
DAV:  19    -0.294741482062E+03   -0.67088E-06   -0.38589E-05 20388   0.644E-03    0.279E-02
DAV:  20    -0.294741487419E+03   -0.53570E-05   -0.18869E-04 19644   0.106E-02    0.363E-02
DAV:  21    -0.294741486116E+03    0.13028E-05   -0.20654E-04 19272   0.134E-02    0.360E-02
DAV:  22    -0.294741482188E+03    0.39279E-05   -0.11775E-04 19188   0.985E-03    0.261E-02
DAV:  23    -0.294741481838E+03    0.35018E-06   -0.14301E-06 18696   0.281E-03
   1 F= -.29775792E+03 E0= -.29775792E+03  d E =0.000000E+00
