    4    4  200    1
  0.8685751E+01  0.2467155E-09  0.2467155E-09  0.6591227E-09  0.5000000E-15
  1.000000000000000E-004
  CAR 
 graphite                                
     16    455     12
 
  0.0000000E+00  0.0000000E+00  0.0000000E+00  0.3858025E-03
    1      -14.812345
    2      -14.468061
    3       -3.741897
    4       -1.591120
    5        1.827782
    6        1.832461
    7        1.850059
    8        1.854721
    9        9.292973
   10       13.149688
   11       13.151600
   12       13.210116
 
  0.5555556E-01  0.0000000E+00  0.0000000E+00  0.1543210E-02
    1      -14.738610
    2      -14.395853
    3       -3.652451
    4       -1.507718
    5        1.528714
    6        1.559899
    7        1.669671
    8        1.698290
    9        9.380820
   10       13.179296
   11       13.255121
   12       13.464581
 
  0.1111111E+00  0.0000000E+00  0.0000000E+00  0.1543210E-02
    1      -14.517951
    2      -14.179589
    3       -3.384961
    4       -1.259477
    5        0.700093
    6        0.751478
    7        1.249282
    8        1.288559
    9        9.645106
   10       13.193442
   11       13.320383
   12       14.356276
 
  0.1666667E+00  0.2775558E-16  0.0000000E+00  0.1543210E-02
    1      -14.151306
    2      -13.820348
    3       -2.941908
    4       -0.850125
    5       -0.487444
    6       -0.411180
    7        0.686350
    8        0.734667
    9       10.086074
   10       13.087892
   11       13.295404
   12       13.957347
 
  0.2222222E+00 -0.1387779E-16  0.0000000E+00  0.1543210E-02
    1      -13.640641
    2      -13.319977
    3       -2.328300
    4       -1.875404
    5       -1.772574
    6       -0.288005
    7        0.089474
    8        0.144517
    9       10.700707
   10       12.515043
   11       12.874055
   12       13.162634
 
  0.2777778E+00  0.2775558E-16  0.0000000E+00  0.1543210E-02
    1      -12.989253
    2      -12.681579
    3       -3.349164
    4       -3.219498
    5       -1.553658
    6       -0.465412
    7       -0.406062
    8        0.411038
    9       10.915210
   10       11.477033
   11       11.724319
   12       12.621162
 
  0.3333333E+00  0.5551115E-16  0.0000000E+00  0.1543210E-02
    1      -12.202083
    2      -11.910225
    3       -4.831015
    4       -4.675029
    5       -0.931246
    6       -0.868908
    7       -0.635098
    8        1.214346
    9        9.288939
   10       10.280245
   11       12.251824
   12       12.473172
 
  0.3888889E+00  0.2775558E-16  0.0000000E+00  0.1543210E-02
    1      -11.288801
    2      -11.016310
    3       -6.265092
    4       -6.085230
    5       -1.279929
    6       -1.215449
    7        0.389962
    8        2.041195
    9        7.788497
   10        8.881756
   11       12.156309
   12       12.559336
 
  0.4444444E+00 -0.2775558E-16  0.0000000E+00  0.1543210E-02
    1      -10.277133
    2      -10.033720
    3       -7.589453
    4       -7.396459
    5       -1.494869
    6       -1.429066
    7        1.418409
    8        2.664420
    9        6.685979
   10        7.671691
   11       12.038098
   12       12.478180
 
  0.5000000E+00 -0.5551115E-16  0.0000000E+00  0.7716049E-03
    1       -9.476611
    2       -9.347363
    3       -8.392734
    4       -8.295883
    5       -1.567244
    6       -1.500944
    7        2.020946
    8        2.774051
    9        6.353777
   10        7.066208
   11       11.996830
   12       12.446684
 
  0.5555556E-01  0.5555556E-01  0.0000000E+00  0.7716049E-03
    1      -14.591399
    2      -14.251604
    3       -3.473972
    4       -1.341901
    5        0.997881
    6        1.028615
    7        1.358407
    8        1.383338
    9        9.557096
   10       13.281441
   11       13.377239
   12       13.988732
 
  0.1111111E+00  0.5555556E-01  0.0000000E+00  0.1543210E-02
    1      -14.297741
    2      -13.963840
    3       -3.118593
    4       -1.012971
    5        0.042733
    6        0.094946
    7        0.811789
    8        0.849495
    9        9.910722
   10       13.366950
   11       13.520350
   12       14.426571
 
  0.1666667E+00  0.5555556E-01  0.0000000E+00  0.1543210E-02
    1      -13.859064
    2      -13.534024
    3       -2.590056
    4       -1.205433
    5       -1.122860
    6       -0.526728
    7        0.185548
    8        0.237371
    9       10.440684
   10       13.152584
   11       13.272360
   12       13.515157
 
  0.2222222E+00  0.5555556E-01  0.0000000E+00  0.1543210E-02
    1      -13.278068
    2      -12.964647
    3       -2.611471
    4       -2.499369
    5       -1.895263
    6       -0.419245
    7       -0.358328
    8        0.105474
    9       11.141883
   10       11.654415
   11       12.325095
   12       13.057818
 
  0.2777778E+00  0.5555556E-01  0.0000000E+00  0.1543210E-02
    1      -12.558580
    2      -12.259603
    3       -4.074878
    4       -3.934669
    5       -1.046528
    6       -0.946173
    7       -0.879618
    8        0.861592
    9       10.055573
   10       10.920572
   11       11.994991
   12       12.819646
 
  0.3333333E+00  0.5555556E-01  0.0000000E+00  0.1543210E-02
    1      -11.707617
    2      -11.426273
    3       -5.525415
    4       -5.359172
    5       -1.362529
    6       -1.292224
    7       -0.068569
    8        1.692234
    9        8.490035
   10        9.510393
   11       12.548569
   12       12.860293
 
  0.3888889E+00  0.5555556E-01  0.0000000E+00  0.1543210E-02
    1      -10.740405
    2      -10.481082
    3       -6.907160
    4       -6.719627
    5       -1.648843
    6       -1.576400
    7        0.979539
    8        2.464001
    9        7.150851
   10        8.196313
   11       12.411979
   12       12.844882
 
  0.4444444E+00  0.5555556E-01  0.0000000E+00  0.1543210E-02
    1       -9.728971
    2       -9.521892
    3       -8.098147
    4       -7.924443
    5       -1.794350
    6       -1.720926
    7        1.900862
    8        2.838005
    9        6.418184
   10        7.200642
   11       12.330797
   12       12.786603
 
  0.5000000E+00  0.5555556E-01  0.0000000E+00  0.1543210E-02
    1       -9.729148
    2       -9.522048
    3       -8.097975
    4       -7.924250
    5       -1.794385
    6       -1.720962
    7        1.900803
    8        2.838017
    9        6.418184
   10        7.200637
   11       12.330879
   12       12.786694
 
 -0.4444444E+00  0.5555556E-01  0.0000000E+00  0.1543210E-02
    1      -10.740601
    2      -10.481275
    3       -6.906924
    4       -6.719393
    5       -1.648940
    6       -1.576499
    7        0.979445
    8        2.463976
    9        7.150848
   10        8.196271
   11       12.412232
   12       12.845161
 
 -0.3888889E+00  0.5555556E-01  0.0000000E+00  0.1543210E-02
    1      -11.707792
    2      -11.426447
    3       -5.525191
    4       -5.358954
    5       -1.362661
    6       -1.292361
    7       -0.068667
    8        1.692186
    9        8.489990
   10        9.510288
   11       12.548999
   12       12.860627
 
 -0.3333333E+00  0.5555556E-01  0.0000000E+00  0.1543210E-02
    1      -12.558730
    2      -12.259753
    3       -4.074718
    4       -3.934526
    5       -1.046620
    6       -0.946276
    7       -0.879736
    8        0.861537
    9       10.055450
   10       10.920390
   11       11.994901
   12       12.820253
 
 -0.2777778E+00  0.5555556E-01  0.0000000E+00  0.1543210E-02
    1      -13.278192
    2      -12.964770
    3       -2.611479
    4       -2.499414
    5       -1.895344
    6       -0.419186
    7       -0.358306
    8        0.105422
    9       11.141768
   10       11.654187
   11       12.324838
   12       13.058727
 
 -0.2222222E+00  0.5555556E-01  0.0000000E+00  0.1543210E-02
    1      -13.859160
    2      -13.534120
    3       -2.590121
    4       -1.205838
    5       -1.123352
    6       -0.526773
    7        0.186053
    8        0.237786
    9       10.440588
   10       13.152140
   11       13.273413
   12       13.516881
 
 -0.1666667E+00  0.5555556E-01  0.0000000E+00  0.1543210E-02
    1      -14.297810
    2      -13.963909
    3       -3.118642
    4       -1.013006
    5        0.041429
    6        0.093477
    7        0.813298
    8        0.850831
    9        9.910651
   10       13.369071
   11       13.522624
   12       14.425566
 
 -0.1111111E+00  0.5555556E-01  0.0000000E+00  0.1543210E-02
    1      -14.591441
    2      -14.251645
    3       -3.474002
    4       -1.341922
    5        0.994845
    6        1.025590
    7        1.361502
    8        1.386424
    9        9.557051
   10       13.284565
   11       13.380419
   12       13.978301
 
 -0.5555556E-01  0.5555556E-01  0.0000000E+00  0.7716049E-03
    1      -14.738624
    2      -14.395867
    3       -3.652461
    4       -1.507726
    5        1.525310
    6        1.556513
    7        1.673100
    8        1.701717
    9        9.380805
   10       13.182098
   11       13.257864
   12       13.462207
 
  0.1111111E+00  0.1111111E+00  0.0000000E+00  0.7716049E-03
    1      -13.932053
    2      -13.605509
    3       -2.677554
    4       -0.855595
    5       -0.808295
    6       -0.606792
    7        0.109982
    8        0.143579
    9       10.354914
   10       13.402108
   11       13.779810
   12       13.932892
 
  0.1666667E+00  0.1111111E+00  0.0000000E+00  0.1543210E-02
    1      -13.422973
    2      -13.106678
    3       -2.067051
    4       -2.006257
    5       -1.931183
    6       -0.639264
    7       -0.587995
    8       -0.048848
    9       10.974821
   10       12.122725
   11       12.634759
   12       13.934273
 
  0.2222222E+00  0.1111111E+00  0.0000000E+00  0.1543210E-02
    1      -12.773856
    2      -12.470556
    3       -3.337325
    4       -3.224857
    5       -1.295975
    6       -1.289633
    7       -1.219077
    8        0.645667
    9       10.669543
   10       11.334630
   11       11.763943
   12       13.795323
 
  0.2777778E+00  0.1111111E+00  0.0000000E+00  0.1543210E-02
    1      -11.990140
    2      -11.702776
    3       -4.737738
    4       -4.592697
    5       -1.804353
    6       -1.722827
    7       -0.381198
    8        1.446008
    9        9.151603
   10        9.990979
   11       12.704945
   12       13.588195
 
  0.3333333E+00  0.1111111E+00  0.0000000E+00  0.1543210E-02
    1      -11.081960
    2      -10.813943
    3       -6.124201
    4       -5.952297
    5       -2.176815
    6       -2.089287
    7        0.641501
    8        2.276955
    9        7.716714
   10        8.673301
   11       13.355739
   12       13.699742
 
  0.3888889E+00  0.1111111E+00  0.0000000E+00  0.1543210E-02
    1      -10.078124
    2       -9.838939
    3       -7.419916
    4       -7.233024
    5       -2.402409
    6       -2.311831
    7        1.673574
    8        2.917717
    9        6.642159
   10        7.502887
   11       13.251280
   12       13.733008
 
  0.4444444E+00  0.1111111E+00  0.0000000E+00  0.1543210E-02
    1       -9.287753
    2       -9.160586
    3       -8.208821
    4       -8.116198
    5       -2.478111
    6       -2.386504
    7        2.287218
    8        3.033536
    9        6.340713
   10        6.878573
   11       13.209842
   12       13.705489
 
  0.5000000E+00  0.1111111E+00  0.0000000E+00  0.1543210E-02
    1      -10.078515
    2       -9.839316
    3       -7.419474
    4       -7.232583
    5       -2.402504
    6       -2.311919
    7        1.673421
    8        2.917719
    9        6.642137
   10        7.502849
   11       13.251588
   12       13.733366
 
 -0.4444444E+00  0.1111111E+00  0.0000000E+00  0.1543210E-02
    1      -11.082331
    2      -10.814312
    3       -6.123760
    4       -5.951867
    5       -2.176974
    6       -2.089459
    7        0.641312
    8        2.276886
    9        7.716629
   10        8.673138
   11       13.356390
   12       13.700159
 
 -0.3888889E+00  0.1111111E+00  0.0000000E+00  0.1543210E-02
    1      -11.990465
    2      -11.703100
    3       -4.737409
    4       -4.592398
    5       -1.804458
    6       -1.722963
    7       -0.381384
    8        1.445910
    9        9.151373
   10        9.990679
   11       12.704678
   12       13.589137
 
 -0.3333333E+00  0.1111111E+00  0.0000000E+00  0.1543210E-02
    1      -12.774130
    2      -12.470829
    3       -3.337319
    4       -3.224924
    5       -1.296144
    6       -1.289429
    7       -1.218948
    8        0.645563
    9       10.669104
   10       11.334193
   11       11.763663
   12       13.796966
 
 -0.2777778E+00  0.1111111E+00  0.0000000E+00  0.1543210E-02
    1      -13.423192
    2      -13.106896
    3       -2.067195
    4       -2.007027
    5       -1.932077
    6       -0.638253
    7       -0.587113
    8       -0.048943
    9       10.974589
   10       12.122049
   11       12.634226
   12       13.937232
 
 -0.2222222E+00  0.1111111E+00  0.0000000E+00  0.1543210E-02
    1      -13.932217
    2      -13.605673
    3       -2.677666
    4       -0.857755
    5       -0.810439
    6       -0.606870
    7        0.112269
    8        0.145866
    9       10.354738
   10       13.400949
   11       13.784246
   12       13.823377
 
 -0.1666667E+00  0.1111111E+00  0.0000000E+00  0.1543210E-02
    1      -14.297851
    2      -13.963950
    3       -3.118670
    4       -1.013026
    5        0.039513
    6        0.091761
    7        0.815151
    8        0.852875
    9        9.910602
   10       13.371196
   11       13.524575
   12       14.425986
 
 -0.1111111E+00  0.1111111E+00  0.0000000E+00  0.7716049E-03
    1      -14.518006
    2      -14.179643
    3       -3.385000
    4       -1.259505
    5        0.696880
    6        0.748281
    7        1.252625
    8        1.291902
    9        9.645043
   10       13.196546
   11       13.323434
   12       14.350821
 
  0.1666667E+00  0.1666667E+00  0.0000000E+00  0.7716049E-03
    1      -12.845870
    2      -12.541065
    3       -2.921288
    4       -2.857018
    5       -1.556127
    6       -1.509243
    7       -1.379474
    8        0.572979
    9       10.925636
   10       11.464709
   11       11.682572
   12       14.729988
 
  0.2222222E+00  0.1666667E+00  0.0000000E+00  0.1543210E-02
    1      -12.132262
    2      -11.841871
    3       -4.049509
    4       -3.950686
    5       -2.331320
    6       -2.260225
    7       -0.539375
    8        1.319124
    9        9.598983
   10       10.228281
   11       12.554745
   12       14.904586
 
  0.2777778E+00  0.1666667E+00  0.0000000E+00  0.1543210E-02
    1      -11.290066
    2      -11.017274
    3       -5.323601
    4       -5.182169
    5       -2.876211
    6       -2.781188
    7        0.430575
    8        2.147312
    9        8.225451
   10        8.986777
   11       13.575202
   12       14.748420
 
  0.3333333E+00  0.1666667E+00  0.0000000E+00  0.1543210E-02
    1      -10.335775
    2      -10.085348
    3       -6.611838
    4       -6.440797
    5       -3.218877
    6       -3.112450
    7        1.477486
    8        2.941768
    9        6.983253
   10        7.798144
   11       14.529574
   12       14.762708
 
  0.3888889E+00  0.1666667E+00  0.0000000E+00  0.1543210E-02
    1       -9.343147
    2       -9.143834
    3       -7.751757
    4       -7.590196
    5       -3.385705
    6       -3.274550
    7        2.419257
    8        3.354761
    9        6.303195
   10        6.814066
   11       14.481877
   12       15.073693
 
  0.4444444E+00  0.1666667E+00  0.0000000E+00  0.1543210E-02
    1       -9.343664
    2       -9.144291
    3       -7.751276
    4       -7.589655
    5       -3.385745
    6       -3.274596
    7        2.419096
    8        3.354813
    9        6.303127
   10        6.814034
   11       14.482082
   12       15.073975
 
  0.5000000E+00  0.1666667E+00  0.0000000E+00  0.1543210E-02
    1      -10.336353
    2      -10.085918
    3       -6.611226
    4       -6.440200
    5       -3.218950
    6       -3.112546
    7        1.477234
    8        2.941726
    9        6.983085
   10        7.797959
   11       14.530259
   12       14.764120
 
 -0.4444444E+00  0.1666667E+00  0.0000000E+00  0.1543210E-02
    1      -11.290587
    2      -11.017793
    3       -5.323174
    4       -5.181795
    5       -2.876137
    6       -2.781174
    7        0.430308
    8        2.147201
    9        8.225072
   10        8.986415
   11       13.574639
   12       14.749557
 
 -0.3888889E+00  0.1666667E+00  0.0000000E+00  0.1543210E-02
    1      -12.132710
    2      -11.842317
    3       -4.049666
    4       -3.950943
    5       -2.330683
    6       -2.259699
    7       -0.539631
    8        1.318986
    9        9.598286
   10       10.227756
   11       12.554239
   12       14.907036
 
 -0.3333333E+00  0.1666667E+00  0.0000000E+00  0.1543210E-02
    1      -12.846239
    2      -12.541433
    3       -2.922622
    4       -2.858325
    5       -1.554477
    6       -1.507583
    7       -1.379700
    8        0.572840
    9       10.924592
   10       11.464055
   11       11.682161
   12       14.735402
 
 -0.2777778E+00  0.1666667E+00  0.0000000E+00  0.1543210E-02
    1      -13.423261
    2      -13.106965
    3       -2.067237
    4       -2.008587
    5       -1.933451
    6       -0.636652
    7       -0.585336
    8       -0.048971
    9       10.974505
   10       12.121449
   11       12.634006
   12       13.940259
 
 -0.2222222E+00  0.1666667E+00  0.0000000E+00  0.1543210E-02
    1      -13.859270
    2      -13.534229
    3       -2.590194
    4       -1.208246
    5       -1.125667
    6       -0.526823
    7        0.188720
    8        0.240534
    9       10.440458
   10       13.151224
   11       13.277413
   12       13.519988
 
 -0.1666667E+00  0.1666667E+00  0.0000000E+00  0.7716049E-03
    1      -14.151429
    2      -13.820471
    3       -2.941992
    4       -0.850184
    5       -0.490377
    6       -0.414097
    7        0.689592
    8        0.737910
    9       10.085932
   10       13.091456
   11       13.298887
   12       13.956574
 
  0.2222222E+00  0.2222222E+00  0.0000000E+00  0.7716049E-03
    1      -11.359704
    2      -11.085564
    3       -4.841760
    4       -4.760644
    5       -3.292176
    6       -3.231578
    7        0.359063
    8        2.101352
    9        8.448612
   10        9.081298
   11       13.498409
   12       16.016340
 
  0.2777778E+00  0.2222222E+00  0.0000000E+00  0.1543210E-02
    1      -10.468509
    2      -10.213803
    3       -5.860778
    4       -5.739495
    5       -3.965743
    6       -3.875036
    7        1.369215
    8        2.937943
    9        7.261658
   10        7.957410
   11       14.570365
   12       16.058342
 
  0.3333333E+00  0.2222222E+00  0.0000000E+00  0.1543210E-02
    1       -9.489556
    2       -9.263645
    3       -6.988348
    4       -6.830941
    5       -4.320146
    6       -4.204101
    7        2.411575
    8        3.649615
    9        6.262635
   10        6.911345
   11       15.689527
   12       15.948970
 
  0.3888889E+00  0.2222222E+00  0.0000000E+00  0.1543210E-02
    1       -8.722018
    2       -8.601347
    3       -7.719196
    4       -7.651152
    5       -4.428358
    6       -4.305450
    7        3.075144
    8        3.796668
    9        6.119945
   10        6.143695
   11       15.844744
   12       16.662229
 
  0.4444444E+00  0.2222222E+00  0.0000000E+00  0.1543210E-02
    1       -9.490319
    2       -9.264385
    3       -6.987669
    4       -6.830274
    5       -4.320048
    6       -4.204044
    7        2.411320
    8        3.649677
    9        6.262321
   10        6.911190
   11       15.688991
   12       15.948686
 
  0.5000000E+00  0.2222222E+00  0.0000000E+00  0.1543210E-02
    1      -10.469239
    2      -10.214527
    3       -5.860442
    4       -5.739234
    5       -3.965258
    6       -3.874649
    7        1.368905
    8        2.937881
    9        7.261058
   10        7.957045
   11       14.569439
   12       16.059386
 
 -0.4444444E+00  0.2222222E+00  0.0000000E+00  0.1543210E-02
    1      -11.360347
    2      -11.086205
    3       -4.842399
    4       -4.761245
    5       -3.290885
    6       -3.230274
    7        0.358744
    8        2.101220
    9        8.447618
   10        9.080749
   11       13.497626
   12       16.021600
 
 -0.3888889E+00  0.2222222E+00  0.0000000E+00  0.1543210E-02
    1      -12.132805
    2      -11.842412
    3       -4.051055
    4       -3.952156
    5       -2.329209
    6       -2.258054
    7       -0.539675
    8        1.318965
    9        9.597618
   10       10.227535
   11       12.554116
   12       14.910627
 
 -0.3333333E+00  0.2222222E+00  0.0000000E+00  0.1543210E-02
    1      -12.774293
    2      -12.470992
    3       -3.339374
    4       -3.226884
    5       -1.296234
    6       -1.286982
    7       -1.216417
    8        0.645511
    9       10.667947
   10       11.333695
   11       11.763463
   12       13.800658
 
 -0.2777778E+00  0.2222222E+00  0.0000000E+00  0.1543210E-02
    1      -13.278397
    2      -12.964975
    3       -2.613871
    4       -2.501763
    5       -1.895469
    6       -0.416229
    7       -0.355318
    8        0.105342
    9       11.141531
   10       11.652763
   11       12.324096
   12       13.062392
 
 -0.2222222E+00  0.2222222E+00  0.0000000E+00  0.7716049E-03
    1      -13.640860
    2      -13.320196
    3       -2.328442
    4       -1.878026
    5       -1.775182
    6       -0.288100
    7        0.092644
    8        0.147687
    9       10.700461
   10       12.513563
   11       12.877940
   12       13.167381
 
  0.2777778E+00  0.2777778E+00  0.0000000E+00  0.7716049E-03
    1       -9.545908
    2       -9.315046
    3       -6.479767
    4       -6.383000
    5       -4.829014
    6       -4.761815
    7        2.397344
    8        3.760811
    9        6.255938
   10        6.965035
   11       15.640117
   12       16.744437
 
  0.3333333E+00  0.2777778E+00  0.0000000E+00  0.1543210E-02
    1       -8.592827
    2       -8.407519
    3       -7.298789
    4       -7.183533
    5       -5.272190
    6       -5.180361
    7        3.393225
    8        4.343803
    9        5.482492
   10        6.095089
   11       16.243045
   12       16.300088
 
  0.3888889E+00  0.2777778E+00  0.0000000E+00  0.1543210E-02
    1       -8.593639
    2       -8.408244
    3       -7.298290
    4       -7.182982
    5       -5.271897
    6       -5.180118
    7        3.393084
    8        4.344040
    9        5.482056
   10        6.094958
   11       16.243705
   12       16.296001
 
  0.4444444E+00  0.2777778E+00  0.0000000E+00  0.1543210E-02
    1       -9.546830
    2       -9.315954
    3       -6.479848
    4       -6.383033
    5       -4.827975
    6       -4.760755
    7        2.397087
    8        3.760916
    9        6.255084
   10        6.964650
   11       15.638778
   12       16.717918
 
  0.5000000E+00  0.2777778E+00  0.0000000E+00  0.1543210E-02
    1      -10.469359
    2      -10.214647
    3       -5.861669
    4       -5.740299
    5       -3.963941
    6       -3.873166
    7        1.368895
    8        2.937898
    9        7.260399
   10        7.956800
   11       14.569269
   12       16.063849
 
 -0.4444444E+00  0.2777778E+00  0.0000000E+00  0.1543210E-02
    1      -11.290803
    2      -11.018009
    3       -5.324960
    4       -5.183496
    5       -2.873916
    6       -2.778877
    7        0.430240
    8        2.147187
    9        8.223865
   10        8.985896
   11       13.574360
   12       14.753895
 
 -0.3888889E+00  0.2777778E+00  0.0000000E+00  0.1543210E-02
    1      -11.990750
    2      -11.703384
    3       -4.739456
    4       -4.594401
    5       -1.801705
    6       -1.720177
    7       -0.381511
    8        1.445853
    9        9.149807
   10        9.989856
   11       12.704376
   12       13.593212
 
 -0.3333333E+00  0.2777778E+00  0.0000000E+00  0.1543210E-02
    1      -12.559057
    2      -12.260079
    3       -4.076915
    4       -3.936698
    5       -1.046794
    6       -0.943223
    7       -0.876672
    8        0.861441
    9       10.053693
   10       10.919341
   11       11.994620
   12       12.824195
 
 -0.2777778E+00  0.2777778E+00  0.0000000E+00  0.7716049E-03
    1      -12.989594
    2      -12.681920
    3       -3.351468
    4       -3.221789
    5       -1.553859
    6       -0.462284
    7       -0.402934
    8        0.410915
    9       10.913418
   10       11.476709
   11       11.723201
   12       12.625248
 
  0.3333333E+00  0.3333333E+00  0.0000000E+00  0.7716049E-03
    1       -7.834868
    2       -7.722069
    3       -7.721913
    4       -7.613447
    5       -5.666089
    6       -5.665967
    7        4.126043
    8        4.800897
    9        4.801576
   10        5.623786
   11       16.046779
   12       16.047489
 
  0.3888889E+00  0.3333333E+00  0.0000000E+00  0.1543210E-02
    1       -8.593795
    2       -8.408435
    3       -7.299203
    4       -7.183816
    5       -5.270851
    6       -5.178906
    7        3.393299
    8        4.344011
    9        5.481594
   10        6.094500
   11       16.243714
   12       16.296695
 
  0.4444444E+00  0.3333333E+00  0.0000000E+00  0.1543210E-02
    1       -9.490581
    2       -9.264655
    3       -6.989168
    4       -6.831705
    5       -4.318134
    6       -4.202060
    7        2.411425
    8        3.649736
    9        6.261160
   10        6.910576
   11       15.688970
   12       15.953118
 
  0.5000000E+00  0.3333333E+00  0.0000000E+00  0.1543210E-02
    1      -10.336712
    2      -10.086279
    3       -6.612962
    4       -6.441897
    5       -3.216498
    6       -3.110065
    7        1.477220
    8        2.941763
    9        6.981482
   10        7.797077
   11       14.533284
   12       14.763273
 
 -0.4444444E+00  0.3333333E+00  0.0000000E+00  0.1543210E-02
    1      -11.082761
    2      -10.814742
    3       -6.125623
    4       -5.953705
    5       -2.174136
    6       -2.086609
    7        0.641195
    8        2.276867
    9        7.714772
   10        8.671980
   11       13.360191
   12       13.702403
 
 -0.3888889E+00  0.3333333E+00  0.0000000E+00  0.1543210E-02
    1      -11.708266
    2      -11.426920
    3       -5.527133
    4       -5.360879
    5       -1.359588
    6       -1.289285
    7       -0.068862
    8        1.692109
    9        8.488008
   10        9.508953
   11       12.552635
   12       12.863316
 
 -0.3333333E+00  0.3333333E+00  0.0000000E+00  0.7716049E-03
    1      -12.202572
    2      -11.910713
    3       -4.833010
    4       -4.677012
    5       -0.928138
    6       -0.865801
    7       -0.635343
    8        1.214221
    9        9.286946
   10       10.278877
   11       12.253796
   12       12.475977
 
  0.3888889E+00  0.3888889E+00  0.0000000E+00  0.7716049E-03
    1       -8.722674
    2       -8.602066
    3       -7.720345
    4       -7.652273
    5       -4.426306
    6       -4.303367
    7        3.075535
    8        3.796463
    9        6.118956
   10        6.142424
   11       15.849315
   12       16.665987
 
  0.4444444E+00  0.3888889E+00  0.0000000E+00  0.1543210E-02
    1       -9.344188
    2       -9.144851
    3       -7.752800
    4       -7.591178
    5       -3.383258
    6       -3.272098
    7        2.419349
    8        3.354717
    9        6.301413
   10        6.812699
   11       14.486705
   12       15.078591
 
  0.5000000E+00  0.3888889E+00  0.0000000E+00  0.1543210E-02
    1      -10.079106
    2       -9.839913
    3       -7.421107
    4       -7.234200
    5       -2.399671
    6       -2.309082
    7        1.673454
    8        2.917720
    9        6.640113
   10        7.501313
   11       13.255984
   12       13.737740
 
 -0.4444444E+00  0.3888889E+00  0.0000000E+00  0.1543210E-02
    1      -10.741240
    2      -10.481915
    3       -6.908605
    4       -6.721059
    5       -1.645880
    6       -1.573440
    7        0.979318
    8        2.463960
    9        7.148703
   10        8.194638
   11       12.416435
   12       12.849328
 
 -0.3888889E+00  0.3888889E+00  0.0000000E+00  0.7716049E-03
    1      -11.289464
    2      -11.016968
    3       -6.266805
    4       -6.086941
    5       -1.276827
    6       -1.212350
    7        0.389729
    8        2.041079
    9        7.786354
   10        8.880149
   11       12.160489
   12       12.563434
 
  0.4444444E+00  0.4444444E+00  0.0000000E+00  0.7716049E-03
    1       -9.288589
    2       -9.161488
    3       -8.210126
    4       -8.117503
    5       -2.475323
    6       -2.383714
    7        2.287541
    8        3.033272
    9        6.338867
   10        6.876635
   11       13.214418
   12       13.710094
 
  0.5000000E+00  0.4444444E+00  0.0000000E+00  0.1543210E-02
    1       -9.729948
    2       -9.522868
    3       -8.099424
    4       -7.925689
    5       -1.791353
    6       -1.717932
    7        1.900969
    8        2.837870
    9        6.416107
   10        7.198596
   11       12.335224
   12       12.791042
 
 -0.4444444E+00  0.4444444E+00  0.0000000E+00  0.7716049E-03
    1      -10.277969
    2      -10.034557
    3       -7.590911
    4       -7.397901
    5       -1.491769
    6       -1.425969
    7        1.418344
    8        2.664386
    9        6.683772
   10        7.669776
   11       12.042387
   12       12.482467
 
  0.5000000E+00  0.5000000E+00  0.0000000E+00  0.3858025E-03
    1       -9.477506
    2       -9.348327
    3       -8.394065
    4       -8.297215
    5       -1.564144
    6       -1.497848
    7        2.021241
    8        2.773759
    9        6.351764
   10        7.063942
   11       12.001143
   12       12.451001
 