<?xml version="1.0" encoding="ISO-8859-1"?>
<modeling>
 <generator>
  <i name="program" type="string">vasp </i>
  <i name="version" type="string">5.3.5  </i>
  <i name="subversion" type="string">31Mar14 (build Nov 02 2014 15:17:37) complex                          parallel </i>
  <i name="platform" type="string">ion-Intel-MKL </i>
  <i name="date" type="string">2016 08 26 </i>
  <i name="time" type="string">18:36:06 </i>
 </generator>
 <incar>
  <i type="string" name="SYSTEM">graphite</i>
  <i type="string" name="PREC">accurate</i>
  <i type="int" name="NELM">   200</i>
  <i type="int" name="IBRION">     2</i>
  <i name="EDIFF">      0.00000100</i>
  <i name="EDIFFG">      0.00100000</i>
  <i type="int" name="NSW">   200</i>
  <i type="int" name="ISIF">     2</i>
  <i name="ENCUT">    600.00000000</i>
  <i type="int" name="ISMEAR">    -5</i>
  <i type="logical" name="LWAVE"> F  </i>
  <i type="logical" name="LCHARG"> F  </i>
  <i type="int" name="NELM">   200</i>
  <i type="string" name="GGA">PE</i>
 </incar>
 <kpoints>
  <generation param="Gamma">
   <v type="int" name="divisions">      18       18        8 </v>
   <v name="usershift">      0.00000000       0.00000000       0.00000000 </v>
   <v name="genvec1">      0.05555556       0.00000000       0.00000000 </v>
   <v name="genvec2">     -0.00000000       0.05555556       0.00000000 </v>
   <v name="genvec3">      0.00000000       0.00000000       0.12500000 </v>
   <v name="shift">      0.00000000       0.00000000       0.00000000 </v>
  </generation>
  <varray name="kpointlist" >
   <v>       0.00000000       0.00000000       0.00000000 </v>
   <v>       0.05555556       0.00000000       0.00000000 </v>
   <v>       0.11111111       0.00000000       0.00000000 </v>
   <v>       0.16666667       0.00000000       0.00000000 </v>
   <v>       0.22222222      -0.00000000       0.00000000 </v>
   <v>       0.27777778       0.00000000       0.00000000 </v>
   <v>       0.33333333       0.00000000       0.00000000 </v>
   <v>       0.38888889       0.00000000       0.00000000 </v>
   <v>       0.44444444      -0.00000000       0.00000000 </v>
   <v>       0.50000000      -0.00000000       0.00000000 </v>
   <v>       0.05555556       0.05555556       0.00000000 </v>
   <v>       0.11111111       0.05555556       0.00000000 </v>
   <v>       0.16666667       0.05555556       0.00000000 </v>
   <v>       0.22222222       0.05555556       0.00000000 </v>
   <v>       0.27777778       0.05555556       0.00000000 </v>
   <v>       0.33333333       0.05555556       0.00000000 </v>
   <v>       0.38888889       0.05555556       0.00000000 </v>
   <v>       0.44444444       0.05555556       0.00000000 </v>
   <v>       0.50000000       0.05555556       0.00000000 </v>
   <v>      -0.44444444       0.05555556       0.00000000 </v>
   <v>      -0.38888889       0.05555556       0.00000000 </v>
   <v>      -0.33333333       0.05555556       0.00000000 </v>
   <v>      -0.27777778       0.05555556       0.00000000 </v>
   <v>      -0.22222222       0.05555556       0.00000000 </v>
   <v>      -0.16666667       0.05555556       0.00000000 </v>
   <v>      -0.11111111       0.05555556       0.00000000 </v>
   <v>      -0.05555556       0.05555556       0.00000000 </v>
   <v>       0.11111111       0.11111111       0.00000000 </v>
   <v>       0.16666667       0.11111111       0.00000000 </v>
   <v>       0.22222222       0.11111111       0.00000000 </v>
   <v>       0.27777778       0.11111111       0.00000000 </v>
   <v>       0.33333333       0.11111111       0.00000000 </v>
   <v>       0.38888889       0.11111111       0.00000000 </v>
   <v>       0.44444444       0.11111111       0.00000000 </v>
   <v>       0.50000000       0.11111111       0.00000000 </v>
   <v>      -0.44444444       0.11111111       0.00000000 </v>
   <v>      -0.38888889       0.11111111       0.00000000 </v>
   <v>      -0.33333333       0.11111111       0.00000000 </v>
   <v>      -0.27777778       0.11111111       0.00000000 </v>
   <v>      -0.22222222       0.11111111       0.00000000 </v>
   <v>      -0.16666667       0.11111111       0.00000000 </v>
   <v>      -0.11111111       0.11111111       0.00000000 </v>
   <v>       0.16666667       0.16666667       0.00000000 </v>
   <v>       0.22222222       0.16666667       0.00000000 </v>
   <v>       0.27777778       0.16666667       0.00000000 </v>
   <v>       0.33333333       0.16666667       0.00000000 </v>
   <v>       0.38888889       0.16666667       0.00000000 </v>
   <v>       0.44444444       0.16666667       0.00000000 </v>
   <v>       0.50000000       0.16666667       0.00000000 </v>
   <v>      -0.44444444       0.16666667       0.00000000 </v>
   <v>      -0.38888889       0.16666667       0.00000000 </v>
   <v>      -0.33333333       0.16666667       0.00000000 </v>
   <v>      -0.27777778       0.16666667       0.00000000 </v>
   <v>      -0.22222222       0.16666667       0.00000000 </v>
   <v>      -0.16666667       0.16666667       0.00000000 </v>
   <v>       0.22222222       0.22222222       0.00000000 </v>
   <v>       0.27777778       0.22222222       0.00000000 </v>
   <v>       0.33333333       0.22222222       0.00000000 </v>
   <v>       0.38888889       0.22222222       0.00000000 </v>
   <v>       0.44444444       0.22222222       0.00000000 </v>
   <v>       0.50000000       0.22222222       0.00000000 </v>
   <v>      -0.44444444       0.22222222       0.00000000 </v>
   <v>      -0.38888889       0.22222222       0.00000000 </v>
   <v>      -0.33333333       0.22222222       0.00000000 </v>
   <v>      -0.27777778       0.22222222       0.00000000 </v>
   <v>      -0.22222222       0.22222222       0.00000000 </v>
   <v>       0.27777778       0.27777778       0.00000000 </v>
   <v>       0.33333333       0.27777778       0.00000000 </v>
   <v>       0.38888889       0.27777778       0.00000000 </v>
   <v>       0.44444444       0.27777778       0.00000000 </v>
   <v>       0.50000000       0.27777778       0.00000000 </v>
   <v>      -0.44444444       0.27777778       0.00000000 </v>
   <v>      -0.38888889       0.27777778       0.00000000 </v>
   <v>      -0.33333333       0.27777778       0.00000000 </v>
   <v>      -0.27777778       0.27777778       0.00000000 </v>
   <v>       0.33333333       0.33333333       0.00000000 </v>
   <v>       0.38888889       0.33333333       0.00000000 </v>
   <v>       0.44444444       0.33333333       0.00000000 </v>
   <v>       0.50000000       0.33333333       0.00000000 </v>
   <v>      -0.44444444       0.33333333       0.00000000 </v>
   <v>      -0.38888889       0.33333333       0.00000000 </v>
   <v>      -0.33333333       0.33333333       0.00000000 </v>
   <v>       0.38888889       0.38888889       0.00000000 </v>
   <v>       0.44444444       0.38888889       0.00000000 </v>
   <v>       0.50000000       0.38888889       0.00000000 </v>
   <v>      -0.44444444       0.38888889       0.00000000 </v>
   <v>      -0.38888889       0.38888889       0.00000000 </v>
   <v>       0.44444444       0.44444444       0.00000000 </v>
   <v>       0.50000000       0.44444444       0.00000000 </v>
   <v>      -0.44444444       0.44444444       0.00000000 </v>
   <v>       0.50000000       0.50000000       0.00000000 </v>
   <v>       0.00000000       0.00000000       0.12500000 </v>
   <v>       0.05555556       0.00000000       0.12500000 </v>
   <v>       0.11111111       0.00000000       0.12500000 </v>
   <v>       0.16666667       0.00000000       0.12500000 </v>
   <v>       0.22222222      -0.00000000       0.12500000 </v>
   <v>       0.27777778       0.00000000       0.12500000 </v>
   <v>       0.33333333       0.00000000       0.12500000 </v>
   <v>       0.38888889       0.00000000       0.12500000 </v>
   <v>       0.44444444      -0.00000000       0.12500000 </v>
   <v>       0.50000000      -0.00000000       0.12500000 </v>
   <v>       0.05555556       0.05555556       0.12500000 </v>
   <v>       0.11111111       0.05555556       0.12500000 </v>
   <v>       0.16666667       0.05555556       0.12500000 </v>
   <v>       0.22222222       0.05555556       0.12500000 </v>
   <v>       0.27777778       0.05555556       0.12500000 </v>
   <v>       0.33333333       0.05555556       0.12500000 </v>
   <v>       0.38888889       0.05555556       0.12500000 </v>
   <v>       0.44444444       0.05555556       0.12500000 </v>
   <v>       0.50000000       0.05555556       0.12500000 </v>
   <v>      -0.44444444       0.05555556       0.12500000 </v>
   <v>      -0.38888889       0.05555556       0.12500000 </v>
   <v>      -0.33333333       0.05555556       0.12500000 </v>
   <v>      -0.27777778       0.05555556       0.12500000 </v>
   <v>      -0.22222222       0.05555556       0.12500000 </v>
   <v>      -0.16666667       0.05555556       0.12500000 </v>
   <v>      -0.11111111       0.05555556       0.12500000 </v>
   <v>      -0.05555556       0.05555556       0.12500000 </v>
   <v>       0.11111111       0.11111111       0.12500000 </v>
   <v>       0.16666667       0.11111111       0.12500000 </v>
   <v>       0.22222222       0.11111111       0.12500000 </v>
   <v>       0.27777778       0.11111111       0.12500000 </v>
   <v>       0.33333333       0.11111111       0.12500000 </v>
   <v>       0.38888889       0.11111111       0.12500000 </v>
   <v>       0.44444444       0.11111111       0.12500000 </v>
   <v>       0.50000000       0.11111111       0.12500000 </v>
   <v>      -0.44444444       0.11111111       0.12500000 </v>
   <v>      -0.38888889       0.11111111       0.12500000 </v>
   <v>      -0.33333333       0.11111111       0.12500000 </v>
   <v>      -0.27777778       0.11111111       0.12500000 </v>
   <v>      -0.22222222       0.11111111       0.12500000 </v>
   <v>      -0.16666667       0.11111111       0.12500000 </v>
   <v>      -0.11111111       0.11111111       0.12500000 </v>
   <v>       0.16666667       0.16666667       0.12500000 </v>
   <v>       0.22222222       0.16666667       0.12500000 </v>
   <v>       0.27777778       0.16666667       0.12500000 </v>
   <v>       0.33333333       0.16666667       0.12500000 </v>
   <v>       0.38888889       0.16666667       0.12500000 </v>
   <v>       0.44444444       0.16666667       0.12500000 </v>
   <v>       0.50000000       0.16666667       0.12500000 </v>
   <v>      -0.44444444       0.16666667       0.12500000 </v>
   <v>      -0.38888889       0.16666667       0.12500000 </v>
   <v>      -0.33333333       0.16666667       0.12500000 </v>
   <v>      -0.27777778       0.16666667       0.12500000 </v>
   <v>      -0.22222222       0.16666667       0.12500000 </v>
   <v>      -0.16666667       0.16666667       0.12500000 </v>
   <v>       0.22222222       0.22222222       0.12500000 </v>
   <v>       0.27777778       0.22222222       0.12500000 </v>
   <v>       0.33333333       0.22222222       0.12500000 </v>
   <v>       0.38888889       0.22222222       0.12500000 </v>
   <v>       0.44444444       0.22222222       0.12500000 </v>
   <v>       0.50000000       0.22222222       0.12500000 </v>
   <v>      -0.44444444       0.22222222       0.12500000 </v>
   <v>      -0.38888889       0.22222222       0.12500000 </v>
   <v>      -0.33333333       0.22222222       0.12500000 </v>
   <v>      -0.27777778       0.22222222       0.12500000 </v>
   <v>      -0.22222222       0.22222222       0.12500000 </v>
   <v>       0.27777778       0.27777778       0.12500000 </v>
   <v>       0.33333333       0.27777778       0.12500000 </v>
   <v>       0.38888889       0.27777778       0.12500000 </v>
   <v>       0.44444444       0.27777778       0.12500000 </v>
   <v>       0.50000000       0.27777778       0.12500000 </v>
   <v>      -0.44444444       0.27777778       0.12500000 </v>
   <v>      -0.38888889       0.27777778       0.12500000 </v>
   <v>      -0.33333333       0.27777778       0.12500000 </v>
   <v>      -0.27777778       0.27777778       0.12500000 </v>
   <v>       0.33333333       0.33333333       0.12500000 </v>
   <v>       0.38888889       0.33333333       0.12500000 </v>
   <v>       0.44444444       0.33333333       0.12500000 </v>
   <v>       0.50000000       0.33333333       0.12500000 </v>
   <v>      -0.44444444       0.33333333       0.12500000 </v>
   <v>      -0.38888889       0.33333333       0.12500000 </v>
   <v>      -0.33333333       0.33333333       0.12500000 </v>
   <v>       0.38888889       0.38888889       0.12500000 </v>
   <v>       0.44444444       0.38888889       0.12500000 </v>
   <v>       0.50000000       0.38888889       0.12500000 </v>
   <v>      -0.44444444       0.38888889       0.12500000 </v>
   <v>      -0.38888889       0.38888889       0.12500000 </v>
   <v>       0.44444444       0.44444444       0.12500000 </v>
   <v>       0.50000000       0.44444444       0.12500000 </v>
   <v>      -0.44444444       0.44444444       0.12500000 </v>
   <v>       0.50000000       0.50000000       0.12500000 </v>
   <v>       0.00000000       0.00000000       0.25000000 </v>
   <v>       0.05555556       0.00000000       0.25000000 </v>
   <v>       0.11111111       0.00000000       0.25000000 </v>
   <v>       0.16666667       0.00000000       0.25000000 </v>
   <v>       0.22222222      -0.00000000       0.25000000 </v>
   <v>       0.27777778       0.00000000       0.25000000 </v>
   <v>       0.33333333       0.00000000       0.25000000 </v>
   <v>       0.38888889       0.00000000       0.25000000 </v>
   <v>       0.44444444      -0.00000000       0.25000000 </v>
   <v>       0.50000000      -0.00000000       0.25000000 </v>
   <v>       0.05555556       0.05555556       0.25000000 </v>
   <v>       0.11111111       0.05555556       0.25000000 </v>
   <v>       0.16666667       0.05555556       0.25000000 </v>
   <v>       0.22222222       0.05555556       0.25000000 </v>
   <v>       0.27777778       0.05555556       0.25000000 </v>
   <v>       0.33333333       0.05555556       0.25000000 </v>
   <v>       0.38888889       0.05555556       0.25000000 </v>
   <v>       0.44444444       0.05555556       0.25000000 </v>
   <v>       0.50000000       0.05555556       0.25000000 </v>
   <v>      -0.44444444       0.05555556       0.25000000 </v>
   <v>      -0.38888889       0.05555556       0.25000000 </v>
   <v>      -0.33333333       0.05555556       0.25000000 </v>
   <v>      -0.27777778       0.05555556       0.25000000 </v>
   <v>      -0.22222222       0.05555556       0.25000000 </v>
   <v>      -0.16666667       0.05555556       0.25000000 </v>
   <v>      -0.11111111       0.05555556       0.25000000 </v>
   <v>      -0.05555556       0.05555556       0.25000000 </v>
   <v>       0.11111111       0.11111111       0.25000000 </v>
   <v>       0.16666667       0.11111111       0.25000000 </v>
   <v>       0.22222222       0.11111111       0.25000000 </v>
   <v>       0.27777778       0.11111111       0.25000000 </v>
   <v>       0.33333333       0.11111111       0.25000000 </v>
   <v>       0.38888889       0.11111111       0.25000000 </v>
   <v>       0.44444444       0.11111111       0.25000000 </v>
   <v>       0.50000000       0.11111111       0.25000000 </v>
   <v>      -0.44444444       0.11111111       0.25000000 </v>
   <v>      -0.38888889       0.11111111       0.25000000 </v>
   <v>      -0.33333333       0.11111111       0.25000000 </v>
   <v>      -0.27777778       0.11111111       0.25000000 </v>
   <v>      -0.22222222       0.11111111       0.25000000 </v>
   <v>      -0.16666667       0.11111111       0.25000000 </v>
   <v>      -0.11111111       0.11111111       0.25000000 </v>
   <v>       0.16666667       0.16666667       0.25000000 </v>
   <v>       0.22222222       0.16666667       0.25000000 </v>
   <v>       0.27777778       0.16666667       0.25000000 </v>
   <v>       0.33333333       0.16666667       0.25000000 </v>
   <v>       0.38888889       0.16666667       0.25000000 </v>
   <v>       0.44444444       0.16666667       0.25000000 </v>
   <v>       0.50000000       0.16666667       0.25000000 </v>
   <v>      -0.44444444       0.16666667       0.25000000 </v>
   <v>      -0.38888889       0.16666667       0.25000000 </v>
   <v>      -0.33333333       0.16666667       0.25000000 </v>
   <v>      -0.27777778       0.16666667       0.25000000 </v>
   <v>      -0.22222222       0.16666667       0.25000000 </v>
   <v>      -0.16666667       0.16666667       0.25000000 </v>
   <v>       0.22222222       0.22222222       0.25000000 </v>
   <v>       0.27777778       0.22222222       0.25000000 </v>
   <v>       0.33333333       0.22222222       0.25000000 </v>
   <v>       0.38888889       0.22222222       0.25000000 </v>
   <v>       0.44444444       0.22222222       0.25000000 </v>
   <v>       0.50000000       0.22222222       0.25000000 </v>
   <v>      -0.44444444       0.22222222       0.25000000 </v>
   <v>      -0.38888889       0.22222222       0.25000000 </v>
   <v>      -0.33333333       0.22222222       0.25000000 </v>
   <v>      -0.27777778       0.22222222       0.25000000 </v>
   <v>      -0.22222222       0.22222222       0.25000000 </v>
   <v>       0.27777778       0.27777778       0.25000000 </v>
   <v>       0.33333333       0.27777778       0.25000000 </v>
   <v>       0.38888889       0.27777778       0.25000000 </v>
   <v>       0.44444444       0.27777778       0.25000000 </v>
   <v>       0.50000000       0.27777778       0.25000000 </v>
   <v>      -0.44444444       0.27777778       0.25000000 </v>
   <v>      -0.38888889       0.27777778       0.25000000 </v>
   <v>      -0.33333333       0.27777778       0.25000000 </v>
   <v>      -0.27777778       0.27777778       0.25000000 </v>
   <v>       0.33333333       0.33333333       0.25000000 </v>
   <v>       0.38888889       0.33333333       0.25000000 </v>
   <v>       0.44444444       0.33333333       0.25000000 </v>
   <v>       0.50000000       0.33333333       0.25000000 </v>
   <v>      -0.44444444       0.33333333       0.25000000 </v>
   <v>      -0.38888889       0.33333333       0.25000000 </v>
   <v>      -0.33333333       0.33333333       0.25000000 </v>
   <v>       0.38888889       0.38888889       0.25000000 </v>
   <v>       0.44444444       0.38888889       0.25000000 </v>
   <v>       0.50000000       0.38888889       0.25000000 </v>
   <v>      -0.44444444       0.38888889       0.25000000 </v>
   <v>      -0.38888889       0.38888889       0.25000000 </v>
   <v>       0.44444444       0.44444444       0.25000000 </v>
   <v>       0.50000000       0.44444444       0.25000000 </v>
   <v>      -0.44444444       0.44444444       0.25000000 </v>
   <v>       0.50000000       0.50000000       0.25000000 </v>
   <v>       0.00000000       0.00000000       0.37500000 </v>
   <v>       0.05555556       0.00000000       0.37500000 </v>
   <v>       0.11111111       0.00000000       0.37500000 </v>
   <v>       0.16666667       0.00000000       0.37500000 </v>
   <v>       0.22222222      -0.00000000       0.37500000 </v>
   <v>       0.27777778       0.00000000       0.37500000 </v>
   <v>       0.33333333       0.00000000       0.37500000 </v>
   <v>       0.38888889       0.00000000       0.37500000 </v>
   <v>       0.44444444      -0.00000000       0.37500000 </v>
   <v>       0.50000000      -0.00000000       0.37500000 </v>
   <v>       0.05555556       0.05555556       0.37500000 </v>
   <v>       0.11111111       0.05555556       0.37500000 </v>
   <v>       0.16666667       0.05555556       0.37500000 </v>
   <v>       0.22222222       0.05555556       0.37500000 </v>
   <v>       0.27777778       0.05555556       0.37500000 </v>
   <v>       0.33333333       0.05555556       0.37500000 </v>
   <v>       0.38888889       0.05555556       0.37500000 </v>
   <v>       0.44444444       0.05555556       0.37500000 </v>
   <v>       0.50000000       0.05555556       0.37500000 </v>
   <v>      -0.44444444       0.05555556       0.37500000 </v>
   <v>      -0.38888889       0.05555556       0.37500000 </v>
   <v>      -0.33333333       0.05555556       0.37500000 </v>
   <v>      -0.27777778       0.05555556       0.37500000 </v>
   <v>      -0.22222222       0.05555556       0.37500000 </v>
   <v>      -0.16666667       0.05555556       0.37500000 </v>
   <v>      -0.11111111       0.05555556       0.37500000 </v>
   <v>      -0.05555556       0.05555556       0.37500000 </v>
   <v>       0.11111111       0.11111111       0.37500000 </v>
   <v>       0.16666667       0.11111111       0.37500000 </v>
   <v>       0.22222222       0.11111111       0.37500000 </v>
   <v>       0.27777778       0.11111111       0.37500000 </v>
   <v>       0.33333333       0.11111111       0.37500000 </v>
   <v>       0.38888889       0.11111111       0.37500000 </v>
   <v>       0.44444444       0.11111111       0.37500000 </v>
   <v>       0.50000000       0.11111111       0.37500000 </v>
   <v>      -0.44444444       0.11111111       0.37500000 </v>
   <v>      -0.38888889       0.11111111       0.37500000 </v>
   <v>      -0.33333333       0.11111111       0.37500000 </v>
   <v>      -0.27777778       0.11111111       0.37500000 </v>
   <v>      -0.22222222       0.11111111       0.37500000 </v>
   <v>      -0.16666667       0.11111111       0.37500000 </v>
   <v>      -0.11111111       0.11111111       0.37500000 </v>
   <v>       0.16666667       0.16666667       0.37500000 </v>
   <v>       0.22222222       0.16666667       0.37500000 </v>
   <v>       0.27777778       0.16666667       0.37500000 </v>
   <v>       0.33333333       0.16666667       0.37500000 </v>
   <v>       0.38888889       0.16666667       0.37500000 </v>
   <v>       0.44444444       0.16666667       0.37500000 </v>
   <v>       0.50000000       0.16666667       0.37500000 </v>
   <v>      -0.44444444       0.16666667       0.37500000 </v>
   <v>      -0.38888889       0.16666667       0.37500000 </v>
   <v>      -0.33333333       0.16666667       0.37500000 </v>
   <v>      -0.27777778       0.16666667       0.37500000 </v>
   <v>      -0.22222222       0.16666667       0.37500000 </v>
   <v>      -0.16666667       0.16666667       0.37500000 </v>
   <v>       0.22222222       0.22222222       0.37500000 </v>
   <v>       0.27777778       0.22222222       0.37500000 </v>
   <v>       0.33333333       0.22222222       0.37500000 </v>
   <v>       0.38888889       0.22222222       0.37500000 </v>
   <v>       0.44444444       0.22222222       0.37500000 </v>
   <v>       0.50000000       0.22222222       0.37500000 </v>
   <v>      -0.44444444       0.22222222       0.37500000 </v>
   <v>      -0.38888889       0.22222222       0.37500000 </v>
   <v>      -0.33333333       0.22222222       0.37500000 </v>
   <v>      -0.27777778       0.22222222       0.37500000 </v>
   <v>      -0.22222222       0.22222222       0.37500000 </v>
   <v>       0.27777778       0.27777778       0.37500000 </v>
   <v>       0.33333333       0.27777778       0.37500000 </v>
   <v>       0.38888889       0.27777778       0.37500000 </v>
   <v>       0.44444444       0.27777778       0.37500000 </v>
   <v>       0.50000000       0.27777778       0.37500000 </v>
   <v>      -0.44444444       0.27777778       0.37500000 </v>
   <v>      -0.38888889       0.27777778       0.37500000 </v>
   <v>      -0.33333333       0.27777778       0.37500000 </v>
   <v>      -0.27777778       0.27777778       0.37500000 </v>
   <v>       0.33333333       0.33333333       0.37500000 </v>
   <v>       0.38888889       0.33333333       0.37500000 </v>
   <v>       0.44444444       0.33333333       0.37500000 </v>
   <v>       0.50000000       0.33333333       0.37500000 </v>
   <v>      -0.44444444       0.33333333       0.37500000 </v>
   <v>      -0.38888889       0.33333333       0.37500000 </v>
   <v>      -0.33333333       0.33333333       0.37500000 </v>
   <v>       0.38888889       0.38888889       0.37500000 </v>
   <v>       0.44444444       0.38888889       0.37500000 </v>
   <v>       0.50000000       0.38888889       0.37500000 </v>
   <v>      -0.44444444       0.38888889       0.37500000 </v>
   <v>      -0.38888889       0.38888889       0.37500000 </v>
   <v>       0.44444444       0.44444444       0.37500000 </v>
   <v>       0.50000000       0.44444444       0.37500000 </v>
   <v>      -0.44444444       0.44444444       0.37500000 </v>
   <v>       0.50000000       0.50000000       0.37500000 </v>
   <v>       0.00000000       0.00000000       0.50000000 </v>
   <v>       0.05555556       0.00000000       0.50000000 </v>
   <v>       0.11111111       0.00000000       0.50000000 </v>
   <v>       0.16666667       0.00000000       0.50000000 </v>
   <v>       0.22222222      -0.00000000       0.50000000 </v>
   <v>       0.27777778       0.00000000       0.50000000 </v>
   <v>       0.33333333       0.00000000       0.50000000 </v>
   <v>       0.38888889       0.00000000       0.50000000 </v>
   <v>       0.44444444      -0.00000000       0.50000000 </v>
   <v>       0.50000000      -0.00000000       0.50000000 </v>
   <v>       0.05555556       0.05555556       0.50000000 </v>
   <v>       0.11111111       0.05555556       0.50000000 </v>
   <v>       0.16666667       0.05555556       0.50000000 </v>
   <v>       0.22222222       0.05555556       0.50000000 </v>
   <v>       0.27777778       0.05555556       0.50000000 </v>
   <v>       0.33333333       0.05555556       0.50000000 </v>
   <v>       0.38888889       0.05555556       0.50000000 </v>
   <v>       0.44444444       0.05555556       0.50000000 </v>
   <v>       0.50000000       0.05555556       0.50000000 </v>
   <v>      -0.44444444       0.05555556       0.50000000 </v>
   <v>      -0.38888889       0.05555556       0.50000000 </v>
   <v>      -0.33333333       0.05555556       0.50000000 </v>
   <v>      -0.27777778       0.05555556       0.50000000 </v>
   <v>      -0.22222222       0.05555556       0.50000000 </v>
   <v>      -0.16666667       0.05555556       0.50000000 </v>
   <v>      -0.11111111       0.05555556       0.50000000 </v>
   <v>      -0.05555556       0.05555556       0.50000000 </v>
   <v>       0.11111111       0.11111111       0.50000000 </v>
   <v>       0.16666667       0.11111111       0.50000000 </v>
   <v>       0.22222222       0.11111111       0.50000000 </v>
   <v>       0.27777778       0.11111111       0.50000000 </v>
   <v>       0.33333333       0.11111111       0.50000000 </v>
   <v>       0.38888889       0.11111111       0.50000000 </v>
   <v>       0.44444444       0.11111111       0.50000000 </v>
   <v>       0.50000000       0.11111111       0.50000000 </v>
   <v>      -0.44444444       0.11111111       0.50000000 </v>
   <v>      -0.38888889       0.11111111       0.50000000 </v>
   <v>      -0.33333333       0.11111111       0.50000000 </v>
   <v>      -0.27777778       0.11111111       0.50000000 </v>
   <v>      -0.22222222       0.11111111       0.50000000 </v>
   <v>      -0.16666667       0.11111111       0.50000000 </v>
   <v>      -0.11111111       0.11111111       0.50000000 </v>
   <v>       0.16666667       0.16666667       0.50000000 </v>
   <v>       0.22222222       0.16666667       0.50000000 </v>
   <v>       0.27777778       0.16666667       0.50000000 </v>
   <v>       0.33333333       0.16666667       0.50000000 </v>
   <v>       0.38888889       0.16666667       0.50000000 </v>
   <v>       0.44444444       0.16666667       0.50000000 </v>
   <v>       0.50000000       0.16666667       0.50000000 </v>
   <v>      -0.44444444       0.16666667       0.50000000 </v>
   <v>      -0.38888889       0.16666667       0.50000000 </v>
   <v>      -0.33333333       0.16666667       0.50000000 </v>
   <v>      -0.27777778       0.16666667       0.50000000 </v>
   <v>      -0.22222222       0.16666667       0.50000000 </v>
   <v>      -0.16666667       0.16666667       0.50000000 </v>
   <v>       0.22222222       0.22222222       0.50000000 </v>
   <v>       0.27777778       0.22222222       0.50000000 </v>
   <v>       0.33333333       0.22222222       0.50000000 </v>
   <v>       0.38888889       0.22222222       0.50000000 </v>
   <v>       0.44444444       0.22222222       0.50000000 </v>
   <v>       0.50000000       0.22222222       0.50000000 </v>
   <v>      -0.44444444       0.22222222       0.50000000 </v>
   <v>      -0.38888889       0.22222222       0.50000000 </v>
   <v>      -0.33333333       0.22222222       0.50000000 </v>
   <v>      -0.27777778       0.22222222       0.50000000 </v>
   <v>      -0.22222222       0.22222222       0.50000000 </v>
   <v>       0.27777778       0.27777778       0.50000000 </v>
   <v>       0.33333333       0.27777778       0.50000000 </v>
   <v>       0.38888889       0.27777778       0.50000000 </v>
   <v>       0.44444444       0.27777778       0.50000000 </v>
   <v>       0.50000000       0.27777778       0.50000000 </v>
   <v>      -0.44444444       0.27777778       0.50000000 </v>
   <v>      -0.38888889       0.27777778       0.50000000 </v>
   <v>      -0.33333333       0.27777778       0.50000000 </v>
   <v>      -0.27777778       0.27777778       0.50000000 </v>
   <v>       0.33333333       0.33333333       0.50000000 </v>
   <v>       0.38888889       0.33333333       0.50000000 </v>
   <v>       0.44444444       0.33333333       0.50000000 </v>
   <v>       0.50000000       0.33333333       0.50000000 </v>
   <v>      -0.44444444       0.33333333       0.50000000 </v>
   <v>      -0.38888889       0.33333333       0.50000000 </v>
   <v>      -0.33333333       0.33333333       0.50000000 </v>
   <v>       0.38888889       0.38888889       0.50000000 </v>
   <v>       0.44444444       0.38888889       0.50000000 </v>
   <v>       0.50000000       0.38888889       0.50000000 </v>
   <v>      -0.44444444       0.38888889       0.50000000 </v>
   <v>      -0.38888889       0.38888889       0.50000000 </v>
   <v>       0.44444444       0.44444444       0.50000000 </v>
   <v>       0.50000000       0.44444444       0.50000000 </v>
   <v>      -0.44444444       0.44444444       0.50000000 </v>
   <v>       0.50000000       0.50000000       0.50000000 </v>
  </varray>
  <varray name="weights" >
   <v>       0.00038580 </v>
   <v>       0.00154321 </v>
   <v>       0.00154321 </v>
   <v>       0.00154321 </v>
   <v>       0.00154321 </v>
   <v>       0.00154321 </v>
   <v>       0.00154321 </v>
   <v>       0.00154321 </v>
   <v>       0.00154321 </v>
   <v>       0.00077160 </v>
   <v>       0.00077160 </v>
   <v>       0.00154321 </v>
   <v>       0.00154321 </v>
   <v>       0.00154321 </v>
   <v>       0.00154321 </v>
   <v>       0.00154321 </v>
   <v>       0.00154321 </v>
   <v>       0.00154321 </v>
   <v>       0.00154321 </v>
   <v>       0.00154321 </v>
   <v>       0.00154321 </v>
   <v>       0.00154321 </v>
   <v>       0.00154321 </v>
   <v>       0.00154321 </v>
   <v>       0.00154321 </v>
   <v>       0.00154321 </v>
   <v>       0.00077160 </v>
   <v>       0.00077160 </v>
   <v>       0.00154321 </v>
   <v>       0.00154321 </v>
   <v>       0.00154321 </v>
   <v>       0.00154321 </v>
   <v>       0.00154321 </v>
   <v>       0.00154321 </v>
   <v>       0.00154321 </v>
   <v>       0.00154321 </v>
   <v>       0.00154321 </v>
   <v>       0.00154321 </v>
   <v>       0.00154321 </v>
   <v>       0.00154321 </v>
   <v>       0.00154321 </v>
   <v>       0.00077160 </v>
   <v>       0.00077160 </v>
   <v>       0.00154321 </v>
   <v>       0.00154321 </v>
   <v>       0.00154321 </v>
   <v>       0.00154321 </v>
   <v>       0.00154321 </v>
   <v>       0.00154321 </v>
   <v>       0.00154321 </v>
   <v>       0.00154321 </v>
   <v>       0.00154321 </v>
   <v>       0.00154321 </v>
   <v>       0.00154321 </v>
   <v>       0.00077160 </v>
   <v>       0.00077160 </v>
   <v>       0.00154321 </v>
   <v>       0.00154321 </v>
   <v>       0.00154321 </v>
   <v>       0.00154321 </v>
   <v>       0.00154321 </v>
   <v>       0.00154321 </v>
   <v>       0.00154321 </v>
   <v>       0.00154321 </v>
   <v>       0.00154321 </v>
   <v>       0.00077160 </v>
   <v>       0.00077160 </v>
   <v>       0.00154321 </v>
   <v>       0.00154321 </v>
   <v>       0.00154321 </v>
   <v>       0.00154321 </v>
   <v>       0.00154321 </v>
   <v>       0.00154321 </v>
   <v>       0.00154321 </v>
   <v>       0.00077160 </v>
   <v>       0.00077160 </v>
   <v>       0.00154321 </v>
   <v>       0.00154321 </v>
   <v>       0.00154321 </v>
   <v>       0.00154321 </v>
   <v>       0.00154321 </v>
   <v>       0.00077160 </v>
   <v>       0.00077160 </v>
   <v>       0.00154321 </v>
   <v>       0.00154321 </v>
   <v>       0.00154321 </v>
   <v>       0.00077160 </v>
   <v>       0.00077160 </v>
   <v>       0.00154321 </v>
   <v>       0.00077160 </v>
   <v>       0.00038580 </v>
   <v>       0.00077160 </v>
   <v>       0.00308642 </v>
   <v>       0.00308642 </v>
   <v>       0.00308642 </v>
   <v>       0.00308642 </v>
   <v>       0.00308642 </v>
   <v>       0.00308642 </v>
   <v>       0.00308642 </v>
   <v>       0.00308642 </v>
   <v>       0.00154321 </v>
   <v>       0.00154321 </v>
   <v>       0.00308642 </v>
   <v>       0.00308642 </v>
   <v>       0.00308642 </v>
   <v>       0.00308642 </v>
   <v>       0.00308642 </v>
   <v>       0.00308642 </v>
   <v>       0.00308642 </v>
   <v>       0.00308642 </v>
   <v>       0.00308642 </v>
   <v>       0.00308642 </v>
   <v>       0.00308642 </v>
   <v>       0.00308642 </v>
   <v>       0.00308642 </v>
   <v>       0.00308642 </v>
   <v>       0.00308642 </v>
   <v>       0.00154321 </v>
   <v>       0.00154321 </v>
   <v>       0.00308642 </v>
   <v>       0.00308642 </v>
   <v>       0.00308642 </v>
   <v>       0.00308642 </v>
   <v>       0.00308642 </v>
   <v>       0.00308642 </v>
   <v>       0.00308642 </v>
   <v>       0.00308642 </v>
   <v>       0.00308642 </v>
   <v>       0.00308642 </v>
   <v>       0.00308642 </v>
   <v>       0.00308642 </v>
   <v>       0.00308642 </v>
   <v>       0.00154321 </v>
   <v>       0.00154321 </v>
   <v>       0.00308642 </v>
   <v>       0.00308642 </v>
   <v>       0.00308642 </v>
   <v>       0.00308642 </v>
   <v>       0.00308642 </v>
   <v>       0.00308642 </v>
   <v>       0.00308642 </v>
   <v>       0.00308642 </v>
   <v>       0.00308642 </v>
   <v>       0.00308642 </v>
   <v>       0.00308642 </v>
   <v>       0.00154321 </v>
   <v>       0.00154321 </v>
   <v>       0.00308642 </v>
   <v>       0.00308642 </v>
   <v>       0.00308642 </v>
   <v>       0.00308642 </v>
   <v>       0.00308642 </v>
   <v>       0.00308642 </v>
   <v>       0.00308642 </v>
   <v>       0.00308642 </v>
   <v>       0.00308642 </v>
   <v>       0.00154321 </v>
   <v>       0.00154321 </v>
   <v>       0.00308642 </v>
   <v>       0.00308642 </v>
   <v>       0.00308642 </v>
   <v>       0.00308642 </v>
   <v>       0.00308642 </v>
   <v>       0.00308642 </v>
   <v>       0.00308642 </v>
   <v>       0.00154321 </v>
   <v>       0.00154321 </v>
   <v>       0.00308642 </v>
   <v>       0.00308642 </v>
   <v>       0.00308642 </v>
   <v>       0.00308642 </v>
   <v>       0.00308642 </v>
   <v>       0.00154321 </v>
   <v>       0.00154321 </v>
   <v>       0.00308642 </v>
   <v>       0.00308642 </v>
   <v>       0.00308642 </v>
   <v>       0.00154321 </v>
   <v>       0.00154321 </v>
   <v>       0.00308642 </v>
   <v>       0.00154321 </v>
   <v>       0.00077160 </v>
   <v>       0.00077160 </v>
   <v>       0.00308642 </v>
   <v>       0.00308642 </v>
   <v>       0.00308642 </v>
   <v>       0.00308642 </v>
   <v>       0.00308642 </v>
   <v>       0.00308642 </v>
   <v>       0.00308642 </v>
   <v>       0.00308642 </v>
   <v>       0.00154321 </v>
   <v>       0.00154321 </v>
   <v>       0.00308642 </v>
   <v>       0.00308642 </v>
   <v>       0.00308642 </v>
   <v>       0.00308642 </v>
   <v>       0.00308642 </v>
   <v>       0.00308642 </v>
   <v>       0.00308642 </v>
   <v>       0.00308642 </v>
   <v>       0.00308642 </v>
   <v>       0.00308642 </v>
   <v>       0.00308642 </v>
   <v>       0.00308642 </v>
   <v>       0.00308642 </v>
   <v>       0.00308642 </v>
   <v>       0.00308642 </v>
   <v>       0.00154321 </v>
   <v>       0.00154321 </v>
   <v>       0.00308642 </v>
   <v>       0.00308642 </v>
   <v>       0.00308642 </v>
   <v>       0.00308642 </v>
   <v>       0.00308642 </v>
   <v>       0.00308642 </v>
   <v>       0.00308642 </v>
   <v>       0.00308642 </v>
   <v>       0.00308642 </v>
   <v>       0.00308642 </v>
   <v>       0.00308642 </v>
   <v>       0.00308642 </v>
   <v>       0.00308642 </v>
   <v>       0.00154321 </v>
   <v>       0.00154321 </v>
   <v>       0.00308642 </v>
   <v>       0.00308642 </v>
   <v>       0.00308642 </v>
   <v>       0.00308642 </v>
   <v>       0.00308642 </v>
   <v>       0.00308642 </v>
   <v>       0.00308642 </v>
   <v>       0.00308642 </v>
   <v>       0.00308642 </v>
   <v>       0.00308642 </v>
   <v>       0.00308642 </v>
   <v>       0.00154321 </v>
   <v>       0.00154321 </v>
   <v>       0.00308642 </v>
   <v>       0.00308642 </v>
   <v>       0.00308642 </v>
   <v>       0.00308642 </v>
   <v>       0.00308642 </v>
   <v>       0.00308642 </v>
   <v>       0.00308642 </v>
   <v>       0.00308642 </v>
   <v>       0.00308642 </v>
   <v>       0.00154321 </v>
   <v>       0.00154321 </v>
   <v>       0.00308642 </v>
   <v>       0.00308642 </v>
   <v>       0.00308642 </v>
   <v>       0.00308642 </v>
   <v>       0.00308642 </v>
   <v>       0.00308642 </v>
   <v>       0.00308642 </v>
   <v>       0.00154321 </v>
   <v>       0.00154321 </v>
   <v>       0.00308642 </v>
   <v>       0.00308642 </v>
   <v>       0.00308642 </v>
   <v>       0.00308642 </v>
   <v>       0.00308642 </v>
   <v>       0.00154321 </v>
   <v>       0.00154321 </v>
   <v>       0.00308642 </v>
   <v>       0.00308642 </v>
   <v>       0.00308642 </v>
   <v>       0.00154321 </v>
   <v>       0.00154321 </v>
   <v>       0.00308642 </v>
   <v>       0.00154321 </v>
   <v>       0.00077160 </v>
   <v>       0.00077160 </v>
   <v>       0.00308642 </v>
   <v>       0.00308642 </v>
   <v>       0.00308642 </v>
   <v>       0.00308642 </v>
   <v>       0.00308642 </v>
   <v>       0.00308642 </v>
   <v>       0.00308642 </v>
   <v>       0.00308642 </v>
   <v>       0.00154321 </v>
   <v>       0.00154321 </v>
   <v>       0.00308642 </v>
   <v>       0.00308642 </v>
   <v>       0.00308642 </v>
   <v>       0.00308642 </v>
   <v>       0.00308642 </v>
   <v>       0.00308642 </v>
   <v>       0.00308642 </v>
   <v>       0.00308642 </v>
   <v>       0.00308642 </v>
   <v>       0.00308642 </v>
   <v>       0.00308642 </v>
   <v>       0.00308642 </v>
   <v>       0.00308642 </v>
   <v>       0.00308642 </v>
   <v>       0.00308642 </v>
   <v>       0.00154321 </v>
   <v>       0.00154321 </v>
   <v>       0.00308642 </v>
   <v>       0.00308642 </v>
   <v>       0.00308642 </v>
   <v>       0.00308642 </v>
   <v>       0.00308642 </v>
   <v>       0.00308642 </v>
   <v>       0.00308642 </v>
   <v>       0.00308642 </v>
   <v>       0.00308642 </v>
   <v>       0.00308642 </v>
   <v>       0.00308642 </v>
   <v>       0.00308642 </v>
   <v>       0.00308642 </v>
   <v>       0.00154321 </v>
   <v>       0.00154321 </v>
   <v>       0.00308642 </v>
   <v>       0.00308642 </v>
   <v>       0.00308642 </v>
   <v>       0.00308642 </v>
   <v>       0.00308642 </v>
   <v>       0.00308642 </v>
   <v>       0.00308642 </v>
   <v>       0.00308642 </v>
   <v>       0.00308642 </v>
   <v>       0.00308642 </v>
   <v>       0.00308642 </v>
   <v>       0.00154321 </v>
   <v>       0.00154321 </v>
   <v>       0.00308642 </v>
   <v>       0.00308642 </v>
   <v>       0.00308642 </v>
   <v>       0.00308642 </v>
   <v>       0.00308642 </v>
   <v>       0.00308642 </v>
   <v>       0.00308642 </v>
   <v>       0.00308642 </v>
   <v>       0.00308642 </v>
   <v>       0.00154321 </v>
   <v>       0.00154321 </v>
   <v>       0.00308642 </v>
   <v>       0.00308642 </v>
   <v>       0.00308642 </v>
   <v>       0.00308642 </v>
   <v>       0.00308642 </v>
   <v>       0.00308642 </v>
   <v>       0.00308642 </v>
   <v>       0.00154321 </v>
   <v>       0.00154321 </v>
   <v>       0.00308642 </v>
   <v>       0.00308642 </v>
   <v>       0.00308642 </v>
   <v>       0.00308642 </v>
   <v>       0.00308642 </v>
   <v>       0.00154321 </v>
   <v>       0.00154321 </v>
   <v>       0.00308642 </v>
   <v>       0.00308642 </v>
   <v>       0.00308642 </v>
   <v>       0.00154321 </v>
   <v>       0.00154321 </v>
   <v>       0.00308642 </v>
   <v>       0.00154321 </v>
   <v>       0.00077160 </v>
   <v>       0.00038580 </v>
   <v>       0.00154321 </v>
   <v>       0.00154321 </v>
   <v>       0.00154321 </v>
   <v>       0.00154321 </v>
   <v>       0.00154321 </v>
   <v>       0.00154321 </v>
   <v>       0.00154321 </v>
   <v>       0.00154321 </v>
   <v>       0.00077160 </v>
   <v>       0.00077160 </v>
   <v>       0.00154321 </v>
   <v>       0.00154321 </v>
   <v>       0.00154321 </v>
   <v>       0.00154321 </v>
   <v>       0.00154321 </v>
   <v>       0.00154321 </v>
   <v>       0.00154321 </v>
   <v>       0.00154321 </v>
   <v>       0.00154321 </v>
   <v>       0.00154321 </v>
   <v>       0.00154321 </v>
   <v>       0.00154321 </v>
   <v>       0.00154321 </v>
   <v>       0.00154321 </v>
   <v>       0.00154321 </v>
   <v>       0.00077160 </v>
   <v>       0.00077160 </v>
   <v>       0.00154321 </v>
   <v>       0.00154321 </v>
   <v>       0.00154321 </v>
   <v>       0.00154321 </v>
   <v>       0.00154321 </v>
   <v>       0.00154321 </v>
   <v>       0.00154321 </v>
   <v>       0.00154321 </v>
   <v>       0.00154321 </v>
   <v>       0.00154321 </v>
   <v>       0.00154321 </v>
   <v>       0.00154321 </v>
   <v>       0.00154321 </v>
   <v>       0.00077160 </v>
   <v>       0.00077160 </v>
   <v>       0.00154321 </v>
   <v>       0.00154321 </v>
   <v>       0.00154321 </v>
   <v>       0.00154321 </v>
   <v>       0.00154321 </v>
   <v>       0.00154321 </v>
   <v>       0.00154321 </v>
   <v>       0.00154321 </v>
   <v>       0.00154321 </v>
   <v>       0.00154321 </v>
   <v>       0.00154321 </v>
   <v>       0.00077160 </v>
   <v>       0.00077160 </v>
   <v>       0.00154321 </v>
   <v>       0.00154321 </v>
   <v>       0.00154321 </v>
   <v>       0.00154321 </v>
   <v>       0.00154321 </v>
   <v>       0.00154321 </v>
   <v>       0.00154321 </v>
   <v>       0.00154321 </v>
   <v>       0.00154321 </v>
   <v>       0.00077160 </v>
   <v>       0.00077160 </v>
   <v>       0.00154321 </v>
   <v>       0.00154321 </v>
   <v>       0.00154321 </v>
   <v>       0.00154321 </v>
   <v>       0.00154321 </v>
   <v>       0.00154321 </v>
   <v>       0.00154321 </v>
   <v>       0.00077160 </v>
   <v>       0.00077160 </v>
   <v>       0.00154321 </v>
   <v>       0.00154321 </v>
   <v>       0.00154321 </v>
   <v>       0.00154321 </v>
   <v>       0.00154321 </v>
   <v>       0.00077160 </v>
   <v>       0.00077160 </v>
   <v>       0.00154321 </v>
   <v>       0.00154321 </v>
   <v>       0.00154321 </v>
   <v>       0.00077160 </v>
   <v>       0.00077160 </v>
   <v>       0.00154321 </v>
   <v>       0.00077160 </v>
   <v>       0.00038580 </v>
  </varray>
  <varray name="tetrahedronlist"  type="int" >
   <v type="int" >        4        2        2       11       93 </v>
   <v type="int" >        4        1        2        2       93 </v>
   <v type="int" >        4        1        2       92       93 </v>
   <v type="int" >        4        2       11       93      102 </v>
   <v type="int" >        4        2       93       93      102 </v>
   <v type="int" >        4        2       92       93       93 </v>
   <v type="int" >        4        3       11       12      102 </v>
   <v type="int" >        4        2        3       11      102 </v>
   <v type="int" >        4        2        3       93      102 </v>
   <v type="int" >        4        3       12      102      103 </v>
   <v type="int" >        4        3       94      102      103 </v>
   <v type="int" >        4        3       93       94      102 </v>
   <v type="int" >        4        4       12       13      103 </v>
   <v type="int" >        4        3        4       12      103 </v>
   <v type="int" >        4        3        4       94      103 </v>
   <v type="int" >        4        4       13      103      104 </v>
   <v type="int" >        4        4       95      103      104 </v>
   <v type="int" >        4        4       94       95      103 </v>
   <v type="int" >        4        5       13       14      104 </v>
   <v type="int" >        4        4        5       13      104 </v>
   <v type="int" >        4        4        5       95      104 </v>
   <v type="int" >        4        5       14      104      105 </v>
   <v type="int" >        4        5       96      104      105 </v>
   <v type="int" >        4        5       95       96      104 </v>
   <v type="int" >        4        6       14       15      105 </v>
   <v type="int" >        4        5        6       14      105 </v>
   <v type="int" >        4        5        6       96      105 </v>
   <v type="int" >        4        6       15      105      106 </v>
   <v type="int" >        4        6       97      105      106 </v>
   <v type="int" >        4        6       96       97      105 </v>
   <v type="int" >        4        7       15       16      106 </v>
   <v type="int" >        4        6        7       15      106 </v>
   <v type="int" >        4        6        7       97      106 </v>
   <v type="int" >        4        7       16      106      107 </v>
   <v type="int" >        4        7       98      106      107 </v>
   <v type="int" >        4        7       97       98      106 </v>
   <v type="int" >        4        8       16       17      107 </v>
   <v type="int" >        4        7        8       16      107 </v>
   <v type="int" >        4        7        8       98      107 </v>
   <v type="int" >        4        8       17      107      108 </v>
   <v type="int" >        4        8       99      107      108 </v>
   <v type="int" >        4        8       98       99      107 </v>
   <v type="int" >        4        9       17       18      108 </v>
   <v type="int" >        4        8        9       17      108 </v>
   <v type="int" >        4        8        9       99      108 </v>
   <v type="int" >        4        9       18      108      109 </v>
   <v type="int" >        4        9      100      108      109 </v>
   <v type="int" >        4        9       99      100      108 </v>
   <v type="int" >        4       10       18       19      109 </v>
   <v type="int" >        4        9       10       18      109 </v>
   <v type="int" >        4        9       10      100      109 </v>
   <v type="int" >        4       10       19      109      110 </v>
   <v type="int" >        4       10      101      109      110 </v>
   <v type="int" >        4       10      100      101      109 </v>
   <v type="int" >        4        9       19       20      110 </v>
   <v type="int" >        4        9       10       19      110 </v>
   <v type="int" >        4        9       10      101      110 </v>
   <v type="int" >        4        9       20      110      111 </v>
   <v type="int" >        4        9      100      110      111 </v>
   <v type="int" >        4        9      100      101      110 </v>
   <v type="int" >        4        8       20       21      111 </v>
   <v type="int" >        4        8        9       20      111 </v>
   <v type="int" >        4        8        9      100      111 </v>
   <v type="int" >        4        8       21      111      112 </v>
   <v type="int" >        4        8       99      111      112 </v>
   <v type="int" >        4        8       99      100      111 </v>
   <v type="int" >        4        7       21       22      112 </v>
   <v type="int" >        4        7        8       21      112 </v>
   <v type="int" >        4        7        8       99      112 </v>
   <v type="int" >        4        7       22      112      113 </v>
   <v type="int" >        4        7       98      112      113 </v>
   <v type="int" >        4        7       98       99      112 </v>
   <v type="int" >        4        6       22       23      113 </v>
   <v type="int" >        4        6        7       22      113 </v>
   <v type="int" >        4        6        7       98      113 </v>
   <v type="int" >        4        6       23      113      114 </v>
   <v type="int" >        4        6       97      113      114 </v>
   <v type="int" >        4        6       97       98      113 </v>
   <v type="int" >        4        5       23       24      114 </v>
   <v type="int" >        4        5        6       23      114 </v>
   <v type="int" >        4        5        6       97      114 </v>
   <v type="int" >        4        5       24      114      115 </v>
   <v type="int" >        4        5       96      114      115 </v>
   <v type="int" >        4        5       96       97      114 </v>
   <v type="int" >        4        4       24       25      115 </v>
   <v type="int" >        4        4        5       24      115 </v>
   <v type="int" >        4        4        5       96      115 </v>
   <v type="int" >        4        4       25      115      116 </v>
   <v type="int" >        4        4       95      115      116 </v>
   <v type="int" >        4        4       95       96      115 </v>
   <v type="int" >        4        3       25       26      116 </v>
   <v type="int" >        4        3        4       25      116 </v>
   <v type="int" >        4        3        4       95      116 </v>
   <v type="int" >        4        3       26      116      117 </v>
   <v type="int" >        4        3       94      116      117 </v>
   <v type="int" >        4        3       94       95      116 </v>
   <v type="int" >        4        2       26       27      117 </v>
   <v type="int" >        4        2        3       26      117 </v>
   <v type="int" >        4        2        3       94      117 </v>
   <v type="int" >        4        2       27      117      118 </v>
   <v type="int" >        4        2       93      117      118 </v>
   <v type="int" >        4        2       93       94      117 </v>
   <v type="int" >        4        1        2       27      118 </v>
   <v type="int" >        4        1        2       93      118 </v>
   <v type="int" >        4        1       92       93      118 </v>
   <v type="int" >        4        3       11       12       94 </v>
   <v type="int" >        4        2        3       11       94 </v>
   <v type="int" >        4        2       11       93       94 </v>
   <v type="int" >        4       11       12       94      103 </v>
   <v type="int" >        4       11       94      102      103 </v>
   <v type="int" >        4       11       93       94      102 </v>
   <v type="int" >        4       12       12       28      103 </v>
   <v type="int" >        4       11       12       12      103 </v>
   <v type="int" >        4       11       12      102      103 </v>
   <v type="int" >        4       12       28      103      119 </v>
   <v type="int" >        4       12      103      103      119 </v>
   <v type="int" >        4       12      102      103      103 </v>
   <v type="int" >        4       13       28       29      119 </v>
   <v type="int" >        4       12       13       28      119 </v>
   <v type="int" >        4       12       13      103      119 </v>
   <v type="int" >        4       13       29      119      120 </v>
   <v type="int" >        4       13      104      119      120 </v>
   <v type="int" >        4       13      103      104      119 </v>
   <v type="int" >        4       14       29       30      120 </v>
   <v type="int" >        4       13       14       29      120 </v>
   <v type="int" >        4       13       14      104      120 </v>
   <v type="int" >        4       14       30      120      121 </v>
   <v type="int" >        4       14      105      120      121 </v>
   <v type="int" >        4       14      104      105      120 </v>
   <v type="int" >        4       15       30       31      121 </v>
   <v type="int" >        4       14       15       30      121 </v>
   <v type="int" >        4       14       15      105      121 </v>
   <v type="int" >        4       15       31      121      122 </v>
   <v type="int" >        4       15      106      121      122 </v>
   <v type="int" >        4       15      105      106      121 </v>
   <v type="int" >        4       16       31       32      122 </v>
   <v type="int" >        4       15       16       31      122 </v>
   <v type="int" >        4       15       16      106      122 </v>
   <v type="int" >        4       16       32      122      123 </v>
   <v type="int" >        4       16      107      122      123 </v>
   <v type="int" >        4       16      106      107      122 </v>
   <v type="int" >        4       17       32       33      123 </v>
   <v type="int" >        4       16       17       32      123 </v>
   <v type="int" >        4       16       17      107      123 </v>
   <v type="int" >        4       17       33      123      124 </v>
   <v type="int" >        4       17      108      123      124 </v>
   <v type="int" >        4       17      107      108      123 </v>
   <v type="int" >        4       18       33       34      124 </v>
   <v type="int" >        4       17       18       33      124 </v>
   <v type="int" >        4       17       18      108      124 </v>
   <v type="int" >        4       18       34      124      125 </v>
   <v type="int" >        4       18      109      124      125 </v>
   <v type="int" >        4       18      108      109      124 </v>
   <v type="int" >        4       19       34       35      125 </v>
   <v type="int" >        4       18       19       34      125 </v>
   <v type="int" >        4       18       19      109      125 </v>
   <v type="int" >        4       19       35      125      126 </v>
   <v type="int" >        4       19      110      125      126 </v>
   <v type="int" >        4       19      109      110      125 </v>
   <v type="int" >        4       20       35       36      126 </v>
   <v type="int" >        4       19       20       35      126 </v>
   <v type="int" >        4       19       20      110      126 </v>
   <v type="int" >        4       20       36      126      127 </v>
   <v type="int" >        4       20      111      126      127 </v>
   <v type="int" >        4       20      110      111      126 </v>
   <v type="int" >        4       21       36       37      127 </v>
   <v type="int" >        4       20       21       36      127 </v>
   <v type="int" >        4       20       21      111      127 </v>
   <v type="int" >        4       21       37      127      128 </v>
   <v type="int" >        4       21      112      127      128 </v>
   <v type="int" >        4       21      111      112      127 </v>
   <v type="int" >        4       22       37       38      128 </v>
   <v type="int" >        4       21       22       37      128 </v>
   <v type="int" >        4       21       22      112      128 </v>
   <v type="int" >        4       22       38      128      129 </v>
   <v type="int" >        4       22      113      128      129 </v>
   <v type="int" >        4       22      112      113      128 </v>
   <v type="int" >        4       23       38       39      129 </v>
   <v type="int" >        4       22       23       38      129 </v>
   <v type="int" >        4       22       23      113      129 </v>
   <v type="int" >        4       23       39      129      130 </v>
   <v type="int" >        4       23      114      129      130 </v>
   <v type="int" >        4       23      113      114      129 </v>
   <v type="int" >        4       24       39       40      130 </v>
   <v type="int" >        4       23       24       39      130 </v>
   <v type="int" >        4       23       24      114      130 </v>
   <v type="int" >        4       24       40      130      131 </v>
   <v type="int" >        4       24      115      130      131 </v>
   <v type="int" >        4       24      114      115      130 </v>
   <v type="int" >        4       25       40       41      131 </v>
   <v type="int" >        4       24       25       40      131 </v>
   <v type="int" >        4       24       25      115      131 </v>
   <v type="int" >        4       25       41      131      132 </v>
   <v type="int" >        4       25      116      131      132 </v>
   <v type="int" >        4       25      115      116      131 </v>
   <v type="int" >        4       26       41       42      132 </v>
   <v type="int" >        4       25       26       41      132 </v>
   <v type="int" >        4       25       26      116      132 </v>
   <v type="int" >        4       26       42      132      133 </v>
   <v type="int" >        4       26      117      132      133 </v>
   <v type="int" >        4       26      116      117      132 </v>
   <v type="int" >        4       26       27       42      133 </v>
   <v type="int" >        4       26       27      117      133 </v>
   <v type="int" >        4       27      117      118      133 </v>
   <v type="int" >        4        4       12       13       95 </v>
   <v type="int" >        4        3        4       12       95 </v>
   <v type="int" >        4        3       12       94       95 </v>
   <v type="int" >        4       12       13       95      104 </v>
   <v type="int" >        4       12       95      103      104 </v>
   <v type="int" >        4       12       94       95      103 </v>
   <v type="int" >        4       13       28       29      104 </v>
   <v type="int" >        4       12       13       28      104 </v>
   <v type="int" >        4       12       28      103      104 </v>
   <v type="int" >        4       28       29      104      120 </v>
   <v type="int" >        4       28      104      119      120 </v>
   <v type="int" >        4       28      103      104      119 </v>
   <v type="int" >        4       29       29       43      120 </v>
   <v type="int" >        4       28       29       29      120 </v>
   <v type="int" >        4       28       29      119      120 </v>
   <v type="int" >        4       29       43      120      134 </v>
   <v type="int" >        4       29      120      120      134 </v>
   <v type="int" >        4       29      119      120      120 </v>
   <v type="int" >        4       30       43       44      134 </v>
   <v type="int" >        4       29       30       43      134 </v>
   <v type="int" >        4       29       30      120      134 </v>
   <v type="int" >        4       30       44      134      135 </v>
   <v type="int" >        4       30      121      134      135 </v>
   <v type="int" >        4       30      120      121      134 </v>
   <v type="int" >        4       31       44       45      135 </v>
   <v type="int" >        4       30       31       44      135 </v>
   <v type="int" >        4       30       31      121      135 </v>
   <v type="int" >        4       31       45      135      136 </v>
   <v type="int" >        4       31      122      135      136 </v>
   <v type="int" >        4       31      121      122      135 </v>
   <v type="int" >        4       32       45       46      136 </v>
   <v type="int" >        4       31       32       45      136 </v>
   <v type="int" >        4       31       32      122      136 </v>
   <v type="int" >        4       32       46      136      137 </v>
   <v type="int" >        4       32      123      136      137 </v>
   <v type="int" >        4       32      122      123      136 </v>
   <v type="int" >        4       33       46       47      137 </v>
   <v type="int" >        4       32       33       46      137 </v>
   <v type="int" >        4       32       33      123      137 </v>
   <v type="int" >        4       33       47      137      138 </v>
   <v type="int" >        4       33      124      137      138 </v>
   <v type="int" >        4       33      123      124      137 </v>
   <v type="int" >        4       34       47       48      138 </v>
   <v type="int" >        4       33       34       47      138 </v>
   <v type="int" >        4       33       34      124      138 </v>
   <v type="int" >        4       34       48      138      139 </v>
   <v type="int" >        4       34      125      138      139 </v>
   <v type="int" >        4       34      124      125      138 </v>
   <v type="int" >        4       35       48       49      139 </v>
   <v type="int" >        4       34       35       48      139 </v>
   <v type="int" >        4       34       35      125      139 </v>
   <v type="int" >        4       35       49      139      140 </v>
   <v type="int" >        4       35      126      139      140 </v>
   <v type="int" >        4       35      125      126      139 </v>
   <v type="int" >        4       36       49       50      140 </v>
   <v type="int" >        4       35       36       49      140 </v>
   <v type="int" >        4       35       36      126      140 </v>
   <v type="int" >        4       36       50      140      141 </v>
   <v type="int" >        4       36      127      140      141 </v>
   <v type="int" >        4       36      126      127      140 </v>
   <v type="int" >        4       37       50       51      141 </v>
   <v type="int" >        4       36       37       50      141 </v>
   <v type="int" >        4       36       37      127      141 </v>
   <v type="int" >        4       37       51      141      142 </v>
   <v type="int" >        4       37      128      141      142 </v>
   <v type="int" >        4       37      127      128      141 </v>
   <v type="int" >        4       38       51       52      142 </v>
   <v type="int" >        4       37       38       51      142 </v>
   <v type="int" >        4       37       38      128      142 </v>
   <v type="int" >        4       38       52      142      143 </v>
   <v type="int" >        4       38      129      142      143 </v>
   <v type="int" >        4       38      128      129      142 </v>
   <v type="int" >        4       39       52       53      143 </v>
   <v type="int" >        4       38       39       52      143 </v>
   <v type="int" >        4       38       39      129      143 </v>
   <v type="int" >        4       39       53      143      144 </v>
   <v type="int" >        4       39      130      143      144 </v>
   <v type="int" >        4       39      129      130      143 </v>
   <v type="int" >        4       40       53       54      144 </v>
   <v type="int" >        4       39       40       53      144 </v>
   <v type="int" >        4       39       40      130      144 </v>
   <v type="int" >        4       40       54      144      145 </v>
   <v type="int" >        4       40      131      144      145 </v>
   <v type="int" >        4       40      130      131      144 </v>
   <v type="int" >        4       41       54       55      145 </v>
   <v type="int" >        4       40       41       54      145 </v>
   <v type="int" >        4       40       41      131      145 </v>
   <v type="int" >        4       41       55      145      146 </v>
   <v type="int" >        4       41      132      145      146 </v>
   <v type="int" >        4       41      131      132      145 </v>
   <v type="int" >        4       41       42       55      146 </v>
   <v type="int" >        4       41       42      132      146 </v>
   <v type="int" >        4       42      132      133      146 </v>
   <v type="int" >        4        5       13       14       96 </v>
   <v type="int" >        4        4        5       13       96 </v>
   <v type="int" >        4        4       13       95       96 </v>
   <v type="int" >        4       13       14       96      105 </v>
   <v type="int" >        4       13       96      104      105 </v>
   <v type="int" >        4       13       95       96      104 </v>
   <v type="int" >        4       14       29       30      105 </v>
   <v type="int" >        4       13       14       29      105 </v>
   <v type="int" >        4       13       29      104      105 </v>
   <v type="int" >        4       29       30      105      121 </v>
   <v type="int" >        4       29      105      120      121 </v>
   <v type="int" >        4       29      104      105      120 </v>
   <v type="int" >        4       30       43       44      121 </v>
   <v type="int" >        4       29       30       43      121 </v>
   <v type="int" >        4       29       43      120      121 </v>
   <v type="int" >        4       43       44      121      135 </v>
   <v type="int" >        4       43      121      134      135 </v>
   <v type="int" >        4       43      120      121      134 </v>
   <v type="int" >        4       44       44       56      135 </v>
   <v type="int" >        4       43       44       44      135 </v>
   <v type="int" >        4       43       44      134      135 </v>
   <v type="int" >        4       44       56      135      147 </v>
   <v type="int" >        4       44      135      135      147 </v>
   <v type="int" >        4       44      134      135      135 </v>
   <v type="int" >        4       45       56       57      147 </v>
   <v type="int" >        4       44       45       56      147 </v>
   <v type="int" >        4       44       45      135      147 </v>
   <v type="int" >        4       45       57      147      148 </v>
   <v type="int" >        4       45      136      147      148 </v>
   <v type="int" >        4       45      135      136      147 </v>
   <v type="int" >        4       46       57       58      148 </v>
   <v type="int" >        4       45       46       57      148 </v>
   <v type="int" >        4       45       46      136      148 </v>
   <v type="int" >        4       46       58      148      149 </v>
   <v type="int" >        4       46      137      148      149 </v>
   <v type="int" >        4       46      136      137      148 </v>
   <v type="int" >        4       47       58       59      149 </v>
   <v type="int" >        4       46       47       58      149 </v>
   <v type="int" >        4       46       47      137      149 </v>
   <v type="int" >        4       47       59      149      150 </v>
   <v type="int" >        4       47      138      149      150 </v>
   <v type="int" >        4       47      137      138      149 </v>
   <v type="int" >        4       48       59       60      150 </v>
   <v type="int" >        4       47       48       59      150 </v>
   <v type="int" >        4       47       48      138      150 </v>
   <v type="int" >        4       48       60      150      151 </v>
   <v type="int" >        4       48      139      150      151 </v>
   <v type="int" >        4       48      138      139      150 </v>
   <v type="int" >        4       49       60       61      151 </v>
   <v type="int" >        4       48       49       60      151 </v>
   <v type="int" >        4       48       49      139      151 </v>
   <v type="int" >        4       49       61      151      152 </v>
   <v type="int" >        4       49      140      151      152 </v>
   <v type="int" >        4       49      139      140      151 </v>
   <v type="int" >        4       50       61       62      152 </v>
   <v type="int" >        4       49       50       61      152 </v>
   <v type="int" >        4       49       50      140      152 </v>
   <v type="int" >        4       50       62      152      153 </v>
   <v type="int" >        4       50      141      152      153 </v>
   <v type="int" >        4       50      140      141      152 </v>
   <v type="int" >        4       51       62       63      153 </v>
   <v type="int" >        4       50       51       62      153 </v>
   <v type="int" >        4       50       51      141      153 </v>
   <v type="int" >        4       51       63      153      154 </v>
   <v type="int" >        4       51      142      153      154 </v>
   <v type="int" >        4       51      141      142      153 </v>
   <v type="int" >        4       52       63       64      154 </v>
   <v type="int" >        4       51       52       63      154 </v>
   <v type="int" >        4       51       52      142      154 </v>
   <v type="int" >        4       52       64      154      155 </v>
   <v type="int" >        4       52      143      154      155 </v>
   <v type="int" >        4       52      142      143      154 </v>
   <v type="int" >        4       53       64       65      155 </v>
   <v type="int" >        4       52       53       64      155 </v>
   <v type="int" >        4       52       53      143      155 </v>
   <v type="int" >        4       53       65      155      156 </v>
   <v type="int" >        4       53      144      155      156 </v>
   <v type="int" >        4       53      143      144      155 </v>
   <v type="int" >        4       54       65       66      156 </v>
   <v type="int" >        4       53       54       65      156 </v>
   <v type="int" >        4       53       54      144      156 </v>
   <v type="int" >        4       54       66      156      157 </v>
   <v type="int" >        4       54      145      156      157 </v>
   <v type="int" >        4       54      144      145      156 </v>
   <v type="int" >        4       54       55       66      157 </v>
   <v type="int" >        4       54       55      145      157 </v>
   <v type="int" >        4       55      145      146      157 </v>
   <v type="int" >        4        6       14       15       97 </v>
   <v type="int" >        4        5        6       14       97 </v>
   <v type="int" >        4        5       14       96       97 </v>
   <v type="int" >        4       14       15       97      106 </v>
   <v type="int" >        4       14       97      105      106 </v>
   <v type="int" >        4       14       96       97      105 </v>
   <v type="int" >        4       15       30       31      106 </v>
   <v type="int" >        4       14       15       30      106 </v>
   <v type="int" >        4       14       30      105      106 </v>
   <v type="int" >        4       30       31      106      122 </v>
   <v type="int" >        4       30      106      121      122 </v>
   <v type="int" >        4       30      105      106      121 </v>
   <v type="int" >        4       31       44       45      122 </v>
   <v type="int" >        4       30       31       44      122 </v>
   <v type="int" >        4       30       44      121      122 </v>
   <v type="int" >        4       44       45      122      136 </v>
   <v type="int" >        4       44      122      135      136 </v>
   <v type="int" >        4       44      121      122      135 </v>
   <v type="int" >        4       45       56       57      136 </v>
   <v type="int" >        4       44       45       56      136 </v>
   <v type="int" >        4       44       56      135      136 </v>
   <v type="int" >        4       56       57      136      148 </v>
   <v type="int" >        4       56      136      147      148 </v>
   <v type="int" >        4       56      135      136      147 </v>
   <v type="int" >        4       57       57       67      148 </v>
   <v type="int" >        4       56       57       57      148 </v>
   <v type="int" >        4       56       57      147      148 </v>
   <v type="int" >        4       57       67      148      158 </v>
   <v type="int" >        4       57      148      148      158 </v>
   <v type="int" >        4       57      147      148      148 </v>
   <v type="int" >        4       58       67       68      158 </v>
   <v type="int" >        4       57       58       67      158 </v>
   <v type="int" >        4       57       58      148      158 </v>
   <v type="int" >        4       58       68      158      159 </v>
   <v type="int" >        4       58      149      158      159 </v>
   <v type="int" >        4       58      148      149      158 </v>
   <v type="int" >        4       59       68       69      159 </v>
   <v type="int" >        4       58       59       68      159 </v>
   <v type="int" >        4       58       59      149      159 </v>
   <v type="int" >        4       59       69      159      160 </v>
   <v type="int" >        4       59      150      159      160 </v>
   <v type="int" >        4       59      149      150      159 </v>
   <v type="int" >        4       60       69       70      160 </v>
   <v type="int" >        4       59       60       69      160 </v>
   <v type="int" >        4       59       60      150      160 </v>
   <v type="int" >        4       60       70      160      161 </v>
   <v type="int" >        4       60      151      160      161 </v>
   <v type="int" >        4       60      150      151      160 </v>
   <v type="int" >        4       61       70       71      161 </v>
   <v type="int" >        4       60       61       70      161 </v>
   <v type="int" >        4       60       61      151      161 </v>
   <v type="int" >        4       61       71      161      162 </v>
   <v type="int" >        4       61      152      161      162 </v>
   <v type="int" >        4       61      151      152      161 </v>
   <v type="int" >        4       62       71       72      162 </v>
   <v type="int" >        4       61       62       71      162 </v>
   <v type="int" >        4       61       62      152      162 </v>
   <v type="int" >        4       62       72      162      163 </v>
   <v type="int" >        4       62      153      162      163 </v>
   <v type="int" >        4       62      152      153      162 </v>
   <v type="int" >        4       63       72       73      163 </v>
   <v type="int" >        4       62       63       72      163 </v>
   <v type="int" >        4       62       63      153      163 </v>
   <v type="int" >        4       63       73      163      164 </v>
   <v type="int" >        4       63      154      163      164 </v>
   <v type="int" >        4       63      153      154      163 </v>
   <v type="int" >        4       64       73       74      164 </v>
   <v type="int" >        4       63       64       73      164 </v>
   <v type="int" >        4       63       64      154      164 </v>
   <v type="int" >        4       64       74      164      165 </v>
   <v type="int" >        4       64      155      164      165 </v>
   <v type="int" >        4       64      154      155      164 </v>
   <v type="int" >        4       65       74       75      165 </v>
   <v type="int" >        4       64       65       74      165 </v>
   <v type="int" >        4       64       65      155      165 </v>
   <v type="int" >        4       65       75      165      166 </v>
   <v type="int" >        4       65      156      165      166 </v>
   <v type="int" >        4       65      155      156      165 </v>
   <v type="int" >        4       65       66       75      166 </v>
   <v type="int" >        4       65       66      156      166 </v>
   <v type="int" >        4       66      156      157      166 </v>
   <v type="int" >        4        7       15       16       98 </v>
   <v type="int" >        4        6        7       15       98 </v>
   <v type="int" >        4        6       15       97       98 </v>
   <v type="int" >        4       15       16       98      107 </v>
   <v type="int" >        4       15       98      106      107 </v>
   <v type="int" >        4       15       97       98      106 </v>
   <v type="int" >        4       16       31       32      107 </v>
   <v type="int" >        4       15       16       31      107 </v>
   <v type="int" >        4       15       31      106      107 </v>
   <v type="int" >        4       31       32      107      123 </v>
   <v type="int" >        4       31      107      122      123 </v>
   <v type="int" >        4       31      106      107      122 </v>
   <v type="int" >        4       32       45       46      123 </v>
   <v type="int" >        4       31       32       45      123 </v>
   <v type="int" >        4       31       45      122      123 </v>
   <v type="int" >        4       45       46      123      137 </v>
   <v type="int" >        4       45      123      136      137 </v>
   <v type="int" >        4       45      122      123      136 </v>
   <v type="int" >        4       46       57       58      137 </v>
   <v type="int" >        4       45       46       57      137 </v>
   <v type="int" >        4       45       57      136      137 </v>
   <v type="int" >        4       57       58      137      149 </v>
   <v type="int" >        4       57      137      148      149 </v>
   <v type="int" >        4       57      136      137      148 </v>
   <v type="int" >        4       58       67       68      149 </v>
   <v type="int" >        4       57       58       67      149 </v>
   <v type="int" >        4       57       67      148      149 </v>
   <v type="int" >        4       67       68      149      159 </v>
   <v type="int" >        4       67      149      158      159 </v>
   <v type="int" >        4       67      148      149      158 </v>
   <v type="int" >        4       68       68       76      159 </v>
   <v type="int" >        4       67       68       68      159 </v>
   <v type="int" >        4       67       68      158      159 </v>
   <v type="int" >        4       68       76      159      167 </v>
   <v type="int" >        4       68      159      159      167 </v>
   <v type="int" >        4       68      158      159      159 </v>
   <v type="int" >        4       69       76       77      167 </v>
   <v type="int" >        4       68       69       76      167 </v>
   <v type="int" >        4       68       69      159      167 </v>
   <v type="int" >        4       69       77      167      168 </v>
   <v type="int" >        4       69      160      167      168 </v>
   <v type="int" >        4       69      159      160      167 </v>
   <v type="int" >        4       70       77       78      168 </v>
   <v type="int" >        4       69       70       77      168 </v>
   <v type="int" >        4       69       70      160      168 </v>
   <v type="int" >        4       70       78      168      169 </v>
   <v type="int" >        4       70      161      168      169 </v>
   <v type="int" >        4       70      160      161      168 </v>
   <v type="int" >        4       71       78       79      169 </v>
   <v type="int" >        4       70       71       78      169 </v>
   <v type="int" >        4       70       71      161      169 </v>
   <v type="int" >        4       71       79      169      170 </v>
   <v type="int" >        4       71      162      169      170 </v>
   <v type="int" >        4       71      161      162      169 </v>
   <v type="int" >        4       72       79       80      170 </v>
   <v type="int" >        4       71       72       79      170 </v>
   <v type="int" >        4       71       72      162      170 </v>
   <v type="int" >        4       72       80      170      171 </v>
   <v type="int" >        4       72      163      170      171 </v>
   <v type="int" >        4       72      162      163      170 </v>
   <v type="int" >        4       73       80       81      171 </v>
   <v type="int" >        4       72       73       80      171 </v>
   <v type="int" >        4       72       73      163      171 </v>
[...]
       <r>   -9.2447    1.0000 </r>
       <r>   -9.2447    1.0000 </r>
       <r>   -7.6768    1.0000 </r>
       <r>   -7.6768    1.0000 </r>
       <r>   -3.3287    1.0000 </r>
       <r>   -3.3287    1.0000 </r>
       <r>    2.9440    1.0000 </r>
       <r>    2.9440    1.0000 </r>
       <r>    6.4141    0.0000 </r>
       <r>    6.4141    0.0000 </r>
       <r>   14.7175    0.0000 </r>
       <r>   14.7175    0.0000 </r>
      </set>
      <set comment="kpoint 449">
       <r>   -9.9622    1.0000 </r>
       <r>   -9.9622    1.0000 </r>
       <r>   -7.3304    1.0000 </r>
       <r>   -7.3304    1.0000 </r>
       <r>   -2.3551    1.0000 </r>
       <r>   -2.3551    1.0000 </r>
       <r>    2.3038    1.0000 </r>
       <r>    2.3038    1.0000 </r>
       <r>    6.9445    0.0000 </r>
       <r>    6.9445    0.0000 </r>
       <r>   13.4843    0.0000 </r>
       <r>   13.4843    0.0000 </r>
      </set>
      <set comment="kpoint 450">
       <r>  -10.6151    1.0000 </r>
       <r>  -10.6151    1.0000 </r>
       <r>   -6.8172    1.0000 </r>
       <r>   -6.8172    1.0000 </r>
       <r>   -1.6099    1.0000 </r>
       <r>   -1.6099    1.0000 </r>
       <r>    1.6934    1.0000 </r>
       <r>    1.6934    1.0000 </r>
       <r>    7.5613    0.0000 </r>
       <r>    7.5613    0.0000 </r>
       <r>   12.6313    0.0000 </r>
       <r>   12.6313    0.0000 </r>
      </set>
      <set comment="kpoint 451">
       <r>  -11.1571    1.0000 </r>
       <r>  -11.1571    1.0000 </r>
       <r>   -6.1788    1.0000 </r>
       <r>   -6.1788    1.0000 </r>
       <r>   -1.2446    1.0000 </r>
       <r>   -1.2446    1.0000 </r>
       <r>    1.1630    1.0000 </r>
       <r>    1.1630    1.0000 </r>
       <r>    8.2404    0.0000 </r>
       <r>    8.2404    0.0000 </r>
       <r>   12.3690    0.0000 </r>
       <r>   12.3690    0.0000 </r>
      </set>
      <set comment="kpoint 452">
       <r>   -9.2182    1.0000 </r>
       <r>   -9.2182    1.0000 </r>
       <r>   -8.1760    1.0000 </r>
       <r>   -8.1760    1.0000 </r>
       <r>   -2.4301    1.0000 </r>
       <r>   -2.4301    1.0000 </r>
       <r>    2.7425    1.0000 </r>
       <r>    2.7425    1.0000 </r>
       <r>    6.4063    0.0000 </r>
       <r>    6.4063    0.0000 </r>
       <r>   13.4463    0.0000 </r>
       <r>   13.4463    0.0000 </r>
      </set>
      <set comment="kpoint 453">
       <r>   -9.6267    1.0000 </r>
       <r>   -9.6267    1.0000 </r>
       <r>   -8.0178    1.0000 </r>
       <r>   -8.0178    1.0000 </r>
       <r>   -1.7549    1.0000 </r>
       <r>   -1.7549    1.0000 </r>
       <r>    2.4252    1.0000 </r>
       <r>    2.4252    1.0000 </r>
       <r>    6.6108    0.0000 </r>
       <r>    6.6108    0.0000 </r>
       <r>   12.5562    0.0000 </r>
       <r>   12.5562    0.0000 </r>
      </set>
      <set comment="kpoint 454">
       <r>  -10.1589    1.0000 </r>
       <r>  -10.1589    1.0000 </r>
       <r>   -7.4971    1.0000 </r>
       <r>   -7.4971    1.0000 </r>
       <r>   -1.4588    1.0000 </r>
       <r>   -1.4588    1.0000 </r>
       <r>    2.0510    1.0000 </r>
       <r>    2.0510    1.0000 </r>
       <r>    7.0197    0.0000 </r>
       <r>    7.0197    0.0000 </r>
       <r>   12.2585    0.0000 </r>
       <r>   12.2585    0.0000 </r>
      </set>
      <set comment="kpoint 455">
       <r>   -9.4060    1.0000 </r>
       <r>   -9.4060    1.0000 </r>
       <r>   -8.3584    1.0000 </r>
       <r>   -8.3584    1.0000 </r>
       <r>   -1.5311    1.0000 </r>
       <r>   -1.5311    1.0000 </r>
       <r>    2.4771    1.0000 </r>
       <r>    2.4771    1.0000 </r>
       <r>    6.4797    0.0000 </r>
       <r>    6.4797    0.0000 </r>
       <r>   12.2204    0.0000 </r>
       <r>   12.2204    0.0000 </r>
      </set>
     </set>
    </set>
   </array>
  </eigenvalues>
  <separator name="orbital magnetization" >
   <v name="MAGDIPOLOUT">      0.00000000      0.00000000      0.00000000</v>
  </separator>
  <dos>
   <i name="efermi">      4.81850150 </i>
   <total>
    <array>
     <dimension dim="1">gridpoints</dimension>
     <dimension dim="2">spin</dimension>
     <field>energy</field>
     <field>total</field>
     <field>integrated</field>
     <set>
      <set comment="spin 1">
       <r>   -16.8123     0.0000     0.0000 </r>
       <r>   -16.6938     0.0000     0.0000 </r>
       <r>   -16.5753     0.0000     0.0000 </r>
       <r>   -16.4568     0.0000     0.0000 </r>
       <r>   -16.3383     0.0000     0.0000 </r>
       <r>   -16.2197     0.0000     0.0000 </r>
       <r>   -16.1012     0.0000     0.0000 </r>
       <r>   -15.9827     0.0000     0.0000 </r>
       <r>   -15.8642     0.0000     0.0000 </r>
       <r>   -15.7456     0.0000     0.0000 </r>
       <r>   -15.6271     0.0000     0.0000 </r>
       <r>   -15.5086     0.0000     0.0000 </r>
       <r>   -15.3901     0.0000     0.0000 </r>
       <r>   -15.2716     0.0000     0.0000 </r>
       <r>   -15.1530     0.0000     0.0000 </r>
       <r>   -15.0345     0.0000     0.0000 </r>
       <r>   -14.9160     0.0000     0.0000 </r>
       <r>   -14.7975     0.0151     0.0001 </r>
       <r>   -14.6789     0.2367     0.0181 </r>
       <r>   -14.5604     0.3935     0.0555 </r>
       <r>   -14.4419     0.6005     0.1119 </r>
       <r>   -14.3234     0.6240     0.1847 </r>
       <r>   -14.2048     0.6091     0.2585 </r>
       <r>   -14.0863     0.6170     0.3310 </r>
       <r>   -13.9678     0.6189     0.4046 </r>
       <r>   -13.8493     0.6175     0.4780 </r>
       <r>   -13.7308     0.6211     0.5513 </r>
       <r>   -13.6122     0.6208     0.6250 </r>
       <r>   -13.4937     0.6206     0.6983 </r>
       <r>   -13.3752     0.6257     0.7724 </r>
       <r>   -13.2567     0.6257     0.8465 </r>
       <r>   -13.1381     0.6250     0.9207 </r>
       <r>   -13.0196     0.6221     0.9945 </r>
       <r>   -12.9011     0.6281     1.0685 </r>
       <r>   -12.7826     0.6327     1.1433 </r>
       <r>   -12.6641     0.6325     1.2183 </r>
       <r>   -12.5455     0.6305     1.2932 </r>
       <r>   -12.4270     0.6288     1.3677 </r>
       <r>   -12.3085     0.6323     1.4424 </r>
       <r>   -12.1900     0.6381     1.5177 </r>
       <r>   -12.0714     0.6411     1.5936 </r>
       <r>   -11.9529     0.6409     1.6695 </r>
       <r>   -11.8344     0.6388     1.7454 </r>
       <r>   -11.7159     0.6392     1.8212 </r>
       <r>   -11.5974     0.6427     1.8971 </r>
       <r>   -11.4788     0.6472     1.9735 </r>
       <r>   -11.3603     0.6528     2.0506 </r>
       <r>   -11.2418     0.6544     2.1281 </r>
       <r>   -11.1233     0.6554     2.2057 </r>
       <r>   -11.0047     0.6553     2.2833 </r>
       <r>   -10.8862     0.6589     2.3612 </r>
       <r>   -10.7677     0.6637     2.4396 </r>
       <r>   -10.6492     0.6697     2.5186 </r>
       <r>   -10.5306     0.6769     2.5984 </r>
       <r>   -10.4121     0.6843     2.6791 </r>
       <r>   -10.2936     0.6911     2.7606 </r>
       <r>   -10.1751     0.7007     2.8430 </r>
       <r>   -10.0566     0.7171     2.9269 </r>
       <r>    -9.9380     0.7467     3.0136 </r>
       <r>    -9.8195     0.7862     3.1043 </r>
       <r>    -9.7010     0.9320     3.2020 </r>
       <r>    -9.5825     1.0159     3.3192 </r>
       <r>    -9.4639     0.9024     3.4394 </r>
       <r>    -9.3454     0.6549     3.5294 </r>
       <r>    -9.2269     0.6875     3.6215 </r>
       <r>    -9.1084     0.4598     3.6980 </r>
       <r>    -8.9899     0.4086     3.7494 </r>
       <r>    -8.8713     0.3574     3.7948 </r>
       <r>    -8.7528     0.3061     3.8341 </r>
       <r>    -8.6343     0.3560     3.8709 </r>
       <r>    -8.5158     0.3156     3.9137 </r>
       <r>    -8.3972     0.1731     3.9443 </r>
       <r>    -8.2787     0.2325     3.9671 </r>
       <r>    -8.1602     0.4788     4.0039 </r>
       <r>    -8.0417     0.7095     4.0846 </r>
       <r>    -7.9231     0.5422     4.1651 </r>
       <r>    -7.8046     0.5692     4.2309 </r>
       <r>    -7.6861     0.8408     4.3187 </r>
       <r>    -7.5676     0.8019     4.4251 </r>
       <r>    -7.4491     0.9433     4.5285 </r>
       <r>    -7.3305     1.0946     4.6491 </r>
       <r>    -7.2120     0.9164     4.7713 </r>
       <r>    -7.0935     0.7648     4.8661 </r>
       <r>    -6.9750     0.7333     4.9549 </r>
       <r>    -6.8564     0.7043     5.0400 </r>
       <r>    -6.7379     0.6755     5.1218 </r>
       <r>    -6.6194     0.6472     5.2002 </r>
       <r>    -6.5009     0.6187     5.2752 </r>
       <r>    -6.3824     0.5983     5.3471 </r>
       <r>    -6.2638     0.5910     5.4176 </r>
       <r>    -6.1453     0.5837     5.4872 </r>
       <r>    -6.0268     0.5765     5.5560 </r>
       <r>    -5.9083     0.5689     5.6239 </r>
       <r>    -5.7897     0.5366     5.6897 </r>
       <r>    -5.6712     0.5143     5.7515 </r>
       <r>    -5.5527     0.6004     5.8174 </r>
       <r>    -5.4342     0.6882     5.8938 </r>
       <r>    -5.3157     0.7756     5.9805 </r>
       <r>    -5.1971     0.7633     6.0732 </r>
       <r>    -5.0786     0.7414     6.1618 </r>
       <r>    -4.9601     0.7300     6.2490 </r>
       <r>    -4.8416     0.7186     6.3349 </r>
       <r>    -4.7230     0.7278     6.4202 </r>
       <r>    -4.6045     0.7480     6.5077 </r>
       <r>    -4.4860     0.7668     6.5975 </r>
       <r>    -4.3675     0.7830     6.6894 </r>
       <r>    -4.2489     0.7898     6.7827 </r>
       <r>    -4.1304     0.7918     6.8765 </r>
       <r>    -4.0119     0.7816     6.9701 </r>
       <r>    -3.8934     0.7909     7.0626 </r>
       <r>    -3.7749     0.8077     7.1577 </r>
       <r>    -3.6563     0.8761     7.2557 </r>
       <r>    -3.5378     0.9195     7.3623 </r>
       <r>    -3.4193     0.9685     7.4744 </r>
       <r>    -3.3008     1.0064     7.5911 </r>
       <r>    -3.1822     1.0606     7.7137 </r>
       <r>    -3.0637     1.1009     7.8421 </r>
       <r>    -2.9452     1.1351     7.9746 </r>
       <r>    -2.8267     1.1735     8.1113 </r>
       <r>    -2.7082     1.2100     8.2526 </r>
       <r>    -2.5896     1.2913     8.3985 </r>
       <r>    -2.4711     1.3781     8.5594 </r>
       <r>    -2.3526     1.4173     8.7249 </r>
       <r>    -2.2341     1.4443     8.8944 </r>
       <r>    -2.1155     1.4524     9.0663 </r>
       <r>    -1.9970     1.4420     9.2402 </r>
       <r>    -1.8785     1.4657     9.4065 </r>
       <r>    -1.7600     1.7980     9.5941 </r>
       <r>    -1.6415     2.3074     9.8400 </r>
       <r>    -1.5229     2.4799    10.1302 </r>
       <r>    -1.4044     1.9845    10.3864 </r>
       <r>    -1.2859     1.8163    10.6122 </r>
       <r>    -1.1674     1.7090    10.8187 </r>
       <r>    -1.0488     1.6430    11.0208 </r>
       <r>    -0.9303     1.4082    11.2028 </r>
       <r>    -0.8118     1.1713    11.3406 </r>
       <r>    -0.6933     1.2923    11.4855 </r>
       <r>    -0.5747     1.4630    11.6590 </r>
       <r>    -0.4562     1.5616    11.8340 </r>
       <r>    -0.3377     1.2327    12.0066 </r>
       <r>    -0.2192     1.1884    12.1488 </r>
       <r>    -0.1007     1.2335    12.2911 </r>
       <r>     0.0179     1.3360    12.4440 </r>
       <r>     0.1364     1.4865    12.6100 </r>
       <r>     0.2549     1.2647    12.7736 </r>
       <r>     0.3734     1.2169    12.9204 </r>
       <r>     0.4920     1.1905    13.0629 </r>
       <r>     0.6105     1.1653    13.2026 </r>
       <r>     0.7290     1.1469    13.3393 </r>
       <r>     0.8475     1.1786    13.4763 </r>
       <r>     0.9660     1.1659    13.6156 </r>
       <r>     1.0846     1.1422    13.7525 </r>
       <r>     1.2031     1.1162    13.8863 </r>
       <r>     1.3216     1.1310    14.0182 </r>
       <r>     1.4401     1.1383    14.1542 </r>
       <r>     1.5587     1.1984    14.2885 </r>
       <r>     1.6772     1.1351    14.4242 </r>
       <r>     1.7957     0.9186    14.5543 </r>
       <r>     1.9142     0.8118    14.6490 </r>
       <r>     2.0327     0.8536    14.7513 </r>
       <r>     2.1513     0.8337    14.8511 </r>
       <r>     2.2698     0.8257    14.9497 </r>
       <r>     2.3883     0.8585    15.0485 </r>
       <r>     2.5068     0.8599    15.1511 </r>
       <r>     2.6254     0.8797    15.2536 </r>
       <r>     2.7439     0.9253    15.3600 </r>
       <r>     2.8624     0.7436    15.4604 </r>
       <r>     2.9809     0.6107    15.5423 </r>
       <r>     3.0995     0.5196    15.6080 </r>
       <r>     3.2180     0.4689    15.6665 </r>
       <r>     3.3365     0.4235    15.7194 </r>
       <r>     3.4550     0.3855    15.7674 </r>
       <r>     3.5735     0.3461    15.8109 </r>
       <r>     3.6921     0.2959    15.8491 </r>
       <r>     3.8106     0.2460    15.8810 </r>
       <r>     3.9291     0.2132    15.9082 </r>
       <r>     4.0476     0.1796    15.9315 </r>
       <r>     4.1662     0.1470    15.9508 </r>
       <r>     4.2847     0.1213    15.9666 </r>
       <r>     4.4032     0.1000    15.9799 </r>
       <r>     4.5217     0.0695    15.9900 </r>
       <r>     4.6402     0.0406    15.9965 </r>
       <r>     4.7588     0.0128    15.9996 </r>
       <r>     4.8773     0.0081    16.0002 </r>
       <r>     4.9958     0.0259    16.0022 </r>
       <r>     5.1143     0.0451    16.0064 </r>
       <r>     5.2329     0.0663    16.0130 </r>
       <r>     5.3514     0.0898    16.0222 </r>
       <r>     5.4699     0.1165    16.0344 </r>
       <r>     5.5884     0.1522    16.0501 </r>
       <r>     5.7070     0.2054    16.0713 </r>
       <r>     5.8255     0.2602    16.0989 </r>
       <r>     5.9440     0.3102    16.1329 </r>
       <r>     6.0625     0.3977    16.1733 </r>
       <r>     6.1810     0.4996    16.2255 </r>
       <r>     6.2996     1.1188    16.2984 </r>
       <r>     6.4181     1.1375    16.4175 </r>
       <r>     6.5366     0.9481    16.5349 </r>
       <r>     6.6551     0.8692    16.6424 </r>
       <r>     6.7737     0.8523    16.7445 </r>
       <r>     6.8922     0.8067    16.8455 </r>
       <r>     7.0107     0.8030    16.9409 </r>
       <r>     7.1292     0.8147    17.0368 </r>
       <r>     7.2477     0.6947    17.1255 </r>
       <r>     7.3663     0.6468    17.2049 </r>
       <r>     7.4848     0.6097    17.2792 </r>
       <r>     7.6033     0.5820    17.3498 </r>
       <r>     7.7218     0.5588    17.4174 </r>
       <r>     7.8404     0.5387    17.4824 </r>
       <r>     7.9589     0.5206    17.5451 </r>
       <r>     8.0774     0.5078    17.6061 </r>
       <r>     8.1959     0.4958    17.6655 </r>
       <r>     8.3144     0.4838    17.7236 </r>
       <r>     8.4330     0.4707    17.7802 </r>
       <r>     8.5515     0.4586    17.8352 </r>
       <r>     8.6700     0.4479    17.8889 </r>
       <r>     8.7885     0.4379    17.9414 </r>
       <r>     8.9071     0.4285    17.9928 </r>
       <r>     9.0256     0.4192    18.0430 </r>
       <r>     9.1441     0.4125    18.0923 </r>
       <r>     9.2626     0.4064    18.1408 </r>
       <r>     9.3812     0.4227    18.1893 </r>
       <r>     9.4997     0.4501    18.2409 </r>
       <r>     9.6182     0.4610    18.2952 </r>
       <r>     9.7367     0.4650    18.3501 </r>
       <r>     9.8552     0.4712    18.4055 </r>
       <r>     9.9738     0.4796    18.4619 </r>
       <r>    10.0923     0.4849    18.5190 </r>
       <r>    10.2108     0.4897    18.5768 </r>
       <r>    10.3293     0.4982    18.6353 </r>
       <r>    10.4479     0.5063    18.6948 </r>
       <r>    10.5664     0.5123    18.7552 </r>
       <r>    10.6849     0.5210    18.8163 </r>
       <r>    10.8034     0.5661    18.8805 </r>
       <r>    10.9219     0.6442    18.9514 </r>
       <r>    11.0405     0.6267    19.0288 </r>
       <r>    11.1590     0.5328    19.0978 </r>
       <r>    11.2775     0.4862    19.1577 </r>
       <r>    11.3960     0.4718    19.2145 </r>
       <r>    11.5146     0.4466    19.2690 </r>
       <r>    11.6331     0.4182    19.3203 </r>
       <r>    11.7516     0.4096    19.3686 </r>
       <r>    11.8701     0.4622    19.4199 </r>
       <r>    11.9886     0.5352    19.4790 </r>
       <r>    12.1072     0.7740    19.5551 </r>
       <r>    12.2257     1.0682    19.6635 </r>
       <r>    12.3442     1.3350    19.8069 </r>
       <r>    12.4627     1.5633    19.9764 </r>
       <r>    12.5813     1.7804    20.1763 </r>
       <r>    12.6998     1.8998    20.3943 </r>
       <r>    12.8183     1.7728    20.6140 </r>
       <r>    12.9368     1.5673    20.8085 </r>
       <r>    13.0554     1.5405    20.9930 </r>
       <r>    13.1739     2.5832    21.1970 </r>
       <r>    13.2924     2.9422    21.5181 </r>
       <r>    13.4109     2.0876    21.8452 </r>
       <r>    13.5294     1.5587    22.0635 </r>
       <r>    13.6480     1.2201    22.2245 </r>
       <r>    13.7665     1.0733    22.3590 </r>
       <r>    13.8850     1.0469    22.4840 </r>
       <r>    14.0035     0.8532    22.5984 </r>
       <r>    14.1221     0.8431    22.6988 </r>
       <r>    14.2406     0.8335    22.7982 </r>
       <r>    14.3591     0.8182    22.8963 </r>
       <r>    14.4776     0.5922    22.9800 </r>
       <r>    14.5961     0.5494    23.0460 </r>
       <r>    14.7147     0.5655    23.1122 </r>
       <r>    14.8332     0.6262    23.1821 </r>
       <r>    14.9517     0.5728    23.2581 </r>
       <r>    15.0702     0.6013    23.3262 </r>
       <r>    15.1888     0.7662    23.4075 </r>
       <r>    15.3073     0.9154    23.5066 </r>
       <r>    15.4258     0.9497    23.6190 </r>
       <r>    15.5443     0.6330    23.7090 </r>
       <r>    15.6628     0.5410    23.7779 </r>
       <r>    15.7814     0.4620    23.8374 </r>
       <r>    15.8999     0.3787    23.8879 </r>
       <r>    16.0184     0.3945    23.9329 </r>
       <r>    16.1369     0.2085    23.9690 </r>
       <r>    16.2555     0.0961    23.9867 </r>
       <r>    16.3740     0.0474    23.9948 </r>
       <r>    16.4925     0.0193    23.9986 </r>
       <r>    16.6110     0.0038    23.9999 </r>
       <r>    16.7296     0.0000    24.0000 </r>
       <r>    16.8481     0.0000    24.0000 </r>
       <r>    16.9666     0.0000    24.0000 </r>
       <r>    17.0851     0.0000    24.0000 </r>
       <r>    17.2036     0.0000    24.0000 </r>
       <r>    17.3222     0.0000    24.0000 </r>
       <r>    17.4407     0.0000    24.0000 </r>
       <r>    17.5592     0.0000    24.0000 </r>
       <r>    17.6777     0.0000    24.0000 </r>
       <r>    17.7963     0.0000    24.0000 </r>
       <r>    17.9148     0.0000    24.0000 </r>
       <r>    18.0333     0.0000    24.0000 </r>
       <r>    18.1518     0.0000    24.0000 </r>
       <r>    18.2703     0.0000    24.0000 </r>
       <r>    18.3889     0.0000    24.0000 </r>
       <r>    18.5074     0.0000    24.0000 </r>
       <r>    18.6259     0.0000    24.0000 </r>
       <r>    18.7444     0.0000    24.0000 </r>
      </set>
     </set>
    </array>
   </total>
  </dos>
 </calculation>
 <structure name="finalpos" >
  <crystal>
   <varray name="basis" >
    <v>       2.46715544      -0.00011120       0.00000000 </v>
    <v>      -1.23367402       2.13656369       0.00000000 </v>
    <v>       0.00000000       0.00000000       6.59122747 </v>
   </varray>
   <i name="volume">     34.74300293 </i>
   <varray name="rec_basis" >
    <v>       0.40533564       0.23404500       0.00000000 </v>
    <v>       0.00002110       0.46805346       0.00000000 </v>
    <v>       0.00000000       0.00000000       0.15171681 </v>
   </varray>
  </crystal>
  <varray name="positions" >
   <v>       0.99999970       0.00000035       0.25000000 </v>
   <v>       0.00000035       0.99999970       0.75000000 </v>
   <v>       0.33329893       0.66670105       0.25000000 </v>
   <v>       0.66670105       0.33329893       0.75000000 </v>
  </varray>
 </structure>
</modeling>
