  32  32   0   0
  0.8861552E+01  0.4932875E-09  0.4932875E-09  0.1346245E-08  0.5000000E-15
  1.000000000000000E-004
  CAR 
 graphite                                
     15.30619214    -16.97881017  301      4.64573061      1.00000000
    -16.979  0.0000E+00  0.0000E+00
    -16.871  0.0000E+00  0.0000E+00
    -16.764  0.0000E+00  0.0000E+00
    -16.656  0.0000E+00  0.0000E+00
    -16.548  0.0000E+00  0.0000E+00
    -16.441  0.0000E+00  0.0000E+00
    -16.333  0.0000E+00  0.0000E+00
    -16.225  0.0000E+00  0.0000E+00
    -16.118  0.0000E+00  0.0000E+00
    -16.010  0.0000E+00  0.0000E+00
    -15.903  0.0000E+00  0.0000E+00
    -15.795  0.0000E+00  0.0000E+00
    -15.687  0.0000E+00  0.0000E+00
    -15.580  0.0000E+00  0.0000E+00
    -15.472  0.0000E+00  0.0000E+00
    -15.365  0.0000E+00  0.0000E+00
    -15.257  0.0000E+00  0.0000E+00
    -15.149  0.0000E+00  0.0000E+00
    -15.042  0.0000E+00  0.0000E+00
    -14.934  0.8071E+00  0.1379E-01
    -14.826  0.2296E+01  0.1996E+00
    -14.719  0.3682E+01  0.5202E+00
    -14.611  0.4706E+01  0.1008E+01
    -14.504  0.5022E+01  0.1533E+01
    -14.396  0.4872E+01  0.2067E+01
    -14.288  0.4937E+01  0.2596E+01
    -14.181  0.4903E+01  0.3128E+01
    -14.073  0.4971E+01  0.3660E+01
    -13.966  0.4969E+01  0.4194E+01
    -13.858  0.5009E+01  0.4731E+01
    -13.750  0.5490E+01  0.5288E+01
    -13.643  0.5848E+01  0.5903E+01
    -13.535  0.7265E+01  0.6586E+01
    -13.427  0.4109E+01  0.7241E+01
    -13.320  0.2751E+01  0.7668E+01
    -13.212  0.2626E+01  0.7885E+01
    -13.105  0.4101E+01  0.8286E+01
    -12.997  0.4542E+01  0.8753E+01
    -12.889  0.5962E+01  0.9463E+01
    -12.782  0.6628E+01  0.1011E+02
    -12.674  0.4308E+01  0.1075E+02
    -12.567  0.4483E+01  0.1123E+02
    -12.459  0.4651E+01  0.1172E+02
    -12.351  0.4767E+01  0.1222E+02
    -12.244  0.5037E+01  0.1275E+02
    -12.136  0.5258E+01  0.1331E+02
    -12.028  0.5932E+01  0.1391E+02
    -11.921  0.5428E+01  0.1452E+02
    -11.813  0.5167E+01  0.1510E+02
    -11.706  0.5006E+01  0.1564E+02
    -11.598  0.4896E+01  0.1617E+02
    -11.490  0.5008E+01  0.1671E+02
    -11.383  0.5079E+01  0.1725E+02
    -11.275  0.5150E+01  0.1780E+02
    -11.168  0.5408E+01  0.1837E+02
    -11.060  0.5666E+01  0.1896E+02
    -10.952  0.5848E+01  0.1959E+02
    -10.845  0.5770E+01  0.2022E+02
    -10.737  0.5786E+01  0.2084E+02
    -10.629  0.5748E+01  0.2147E+02
    -10.522  0.4563E+01  0.2202E+02
    -10.414  0.4884E+01  0.2251E+02
    -10.307  0.5285E+01  0.2306E+02
    -10.199  0.5368E+01  0.2364E+02
    -10.091  0.5536E+01  0.2422E+02
     -9.984  0.5770E+01  0.2483E+02
     -9.876  0.6688E+01  0.2547E+02
     -9.768  0.8637E+01  0.2627E+02
     -9.661  0.8824E+01  0.2731E+02
     -9.553  0.5880E+01  0.2809E+02
     -9.446  0.6202E+01  0.2878E+02
     -9.338  0.3811E+01  0.2943E+02
     -9.230  0.3442E+01  0.2982E+02
     -9.123  0.3074E+01  0.3017E+02
     -9.015  0.2705E+01  0.3048E+02
     -8.908  0.2336E+01  0.3075E+02
     -8.800  0.2973E+01  0.3102E+02
     -8.692  0.2547E+01  0.3134E+02
     -8.585  0.1377E+01  0.3155E+02
     -8.477  0.1997E+01  0.3173E+02
     -8.369  0.3364E+01  0.3199E+02
     -8.262  0.7300E+01  0.3266E+02
     -8.154  0.4182E+01  0.3322E+02
     -8.047  0.4042E+01  0.3364E+02
     -7.939  0.4402E+01  0.3410E+02
     -7.831  0.7904E+01  0.3485E+02
     -7.724  0.6643E+01  0.3558E+02
     -7.616  0.7716E+01  0.3635E+02
     -7.509  0.8868E+01  0.3725E+02
     -7.401  0.7380E+01  0.3815E+02
     -7.293  0.6200E+01  0.3884E+02
     -7.186  0.5938E+01  0.3950E+02
     -7.078  0.5686E+01  0.4012E+02
     -6.970  0.5474E+01  0.4072E+02
     -6.863  0.5290E+01  0.4130E+02
     -6.755  0.5110E+01  0.4186E+02
     -6.648  0.4915E+01  0.4240E+02
     -6.540  0.4839E+01  0.4292E+02
     -6.432  0.4813E+01  0.4344E+02
     -6.325  0.4780E+01  0.4396E+02
     -6.217  0.4575E+01  0.4446E+02
     -6.110  0.4415E+01  0.4495E+02
     -6.002  0.3617E+01  0.4540E+02
     -5.894  0.4062E+01  0.4581E+02
     -5.787  0.4488E+01  0.4626E+02
     -5.679  0.5171E+01  0.4678E+02
     -5.571  0.5980E+01  0.4738E+02
     -5.464  0.7575E+01  0.4808E+02
     -5.356  0.1039E+02  0.4908E+02
     -5.249  0.8090E+01  0.5008E+02
     -5.141  0.5786E+01  0.5082E+02
     -5.033  0.3481E+01  0.5132E+02
     -4.926  0.2600E+01  0.5162E+02
     -4.818  0.3264E+01  0.5193E+02
     -4.711  0.4567E+01  0.5235E+02
     -4.603  0.5913E+01  0.5291E+02
     -4.495  0.7668E+01  0.5364E+02
     -4.388  0.7846E+01  0.5450E+02
     -4.280  0.6607E+01  0.5528E+02
     -4.172  0.5647E+01  0.5592E+02
     -4.065  0.7718E+01  0.5659E+02
     -3.957  0.7217E+01  0.5740E+02
     -3.850  0.6697E+01  0.5815E+02
     -3.742  0.6761E+01  0.5886E+02
     -3.634  0.6469E+01  0.5957E+02
     -3.527  0.8487E+01  0.6035E+02
     -3.419  0.1382E+02  0.6157E+02
     -3.311  0.8633E+01  0.6251E+02
     -3.204  0.7938E+01  0.6340E+02
     -3.096  0.7085E+01  0.6422E+02
     -2.989  0.6915E+01  0.6495E+02
     -2.881  0.7804E+01  0.6574E+02
     -2.773  0.8911E+01  0.6664E+02
     -2.666  0.1148E+02  0.6770E+02
     -2.558  0.1406E+02  0.6912E+02
     -2.451  0.1151E+02  0.7057E+02
     -2.343  0.1262E+02  0.7181E+02
     -2.235  0.1231E+02  0.7314E+02
     -2.128  0.1489E+02  0.7452E+02
     -2.020  0.1278E+02  0.7609E+02
     -1.912  0.1833E+02  0.7761E+02
     -1.805  0.1132E+02  0.7931E+02
     -1.697  0.1658E+02  0.8056E+02
     -1.590  0.1746E+02  0.8267E+02
     -1.482  0.1889E+02  0.8464E+02
     -1.374  0.1442E+02  0.8640E+02
     -1.267  0.1212E+02  0.8783E+02
     -1.159  0.1104E+02  0.8905E+02
     -1.052  0.8672E+01  0.9012E+02
     -0.944  0.7698E+01  0.9100E+02
     -0.836  0.1107E+02  0.9199E+02
     -0.729  0.1360E+02  0.9338E+02
     -0.621  0.1730E+02  0.9491E+02
     -0.513  0.8773E+01  0.9626E+02
     -0.406  0.1000E+02  0.9724E+02
     -0.298  0.1079E+02  0.9834E+02
     -0.191  0.1056E+02  0.9947E+02
     -0.083  0.1102E+02  0.1006E+03
      0.025  0.9537E+01  0.1017E+03
      0.132  0.9326E+01  0.1027E+03
      0.240  0.1015E+02  0.1038E+03
      0.347  0.9874E+01  0.1049E+03
      0.455  0.9334E+01  0.1059E+03
      0.563  0.9251E+01  0.1069E+03
      0.670  0.9419E+01  0.1079E+03
      0.778  0.9348E+01  0.1089E+03
      0.886  0.9261E+01  0.1099E+03
      0.993  0.9307E+01  0.1109E+03
      1.101  0.9200E+01  0.1119E+03
      1.208  0.9545E+01  0.1129E+03
      1.316  0.9403E+01  0.1139E+03
      1.424  0.9613E+01  0.1150E+03
      1.531  0.9794E+01  0.1160E+03
      1.639  0.7290E+01  0.1169E+03
      1.746  0.6462E+01  0.1177E+03
      1.854  0.6390E+01  0.1184E+03
      1.962  0.4878E+01  0.1189E+03
      2.069  0.3788E+01  0.1194E+03
      2.177  0.4364E+01  0.1198E+03
      2.285  0.7534E+01  0.1204E+03
      2.392  0.8517E+01  0.1213E+03
      2.500  0.5649E+01  0.1222E+03
      2.607  0.8794E+01  0.1229E+03
      2.715  0.7275E+01  0.1237E+03
      2.823  0.5429E+01  0.1244E+03
      2.930  0.4493E+01  0.1249E+03
      3.038  0.3815E+01  0.1254E+03
      3.146  0.3325E+01  0.1257E+03
      3.253  0.3175E+01  0.1261E+03
      3.361  0.2854E+01  0.1264E+03
      3.468  0.2476E+01  0.1267E+03
      3.576  0.2092E+01  0.1270E+03
      3.684  0.1847E+01  0.1272E+03
      3.791  0.1611E+01  0.1274E+03
      3.899  0.1371E+01  0.1275E+03
      4.006  0.1138E+01  0.1276E+03
      4.114  0.9366E+00  0.1278E+03
      4.222  0.7429E+00  0.1278E+03
      4.329  0.5359E+00  0.1279E+03
      4.437  0.3415E+00  0.1280E+03
      4.545  0.1573E+00  0.1280E+03
      4.652  0.5552E-03  0.1280E+03
      4.760  0.1192E+00  0.1280E+03
      4.867  0.2535E+00  0.1280E+03
      4.975  0.3999E+00  0.1281E+03
      5.083  0.5621E+00  0.1281E+03
      5.190  0.7426E+00  0.1282E+03
      5.298  0.9539E+00  0.1283E+03
      5.405  0.1297E+01  0.1284E+03
      5.513  0.1670E+01  0.1286E+03
      5.621  0.2006E+01  0.1288E+03
      5.728  0.2366E+01  0.1290E+03
      5.836  0.2920E+01  0.1293E+03
      5.944  0.3262E+01  0.1296E+03
      6.051  0.4253E+01  0.1300E+03
      6.159  0.6237E+01  0.1306E+03
      6.266  0.8103E+01  0.1317E+03
      6.374  0.8278E+01  0.1326E+03
      6.482  0.7617E+01  0.1334E+03
      6.589  0.8299E+01  0.1343E+03
      6.697  0.6485E+01  0.1350E+03
      6.804  0.5995E+01  0.1357E+03
      6.912  0.5876E+01  0.1363E+03
      7.020  0.5024E+01  0.1369E+03
      7.127  0.4476E+01  0.1374E+03
      7.235  0.3696E+01  0.1379E+03
      7.343  0.3529E+01  0.1383E+03
      7.450  0.3775E+01  0.1386E+03
      7.558  0.4270E+01  0.1391E+03
      7.665  0.4571E+01  0.1396E+03
      7.773  0.4785E+01  0.1401E+03
      7.881  0.4613E+01  0.1406E+03
      7.988  0.4450E+01  0.1411E+03
      8.096  0.4289E+01  0.1415E+03
      8.203  0.4113E+01  0.1420E+03
      8.311  0.3917E+01  0.1424E+03
      8.419  0.3779E+01  0.1428E+03
      8.526  0.3642E+01  0.1432E+03
      8.634  0.3552E+01  0.1436E+03
      8.742  0.3482E+01  0.1440E+03
      8.849  0.3363E+01  0.1444E+03
      8.957  0.3290E+01  0.1447E+03
      9.064  0.3515E+01  0.1451E+03
      9.172  0.3763E+01  0.1455E+03
      9.280  0.3993E+01  0.1459E+03
      9.387  0.4069E+01  0.1463E+03
      9.495  0.4024E+01  0.1468E+03
      9.603  0.3935E+01  0.1472E+03
      9.710  0.3927E+01  0.1476E+03
      9.818  0.3912E+01  0.1480E+03
      9.925  0.3923E+01  0.1485E+03
     10.033  0.3925E+01  0.1489E+03
     10.141  0.3949E+01  0.1493E+03
     10.248  0.3992E+01  0.1497E+03
     10.356  0.4041E+01  0.1502E+03
     10.463  0.4173E+01  0.1506E+03
     10.571  0.4849E+01  0.1511E+03
     10.679  0.5706E+01  0.1516E+03
     10.786  0.5426E+01  0.1522E+03
     10.894  0.4782E+01  0.1528E+03
     11.002  0.4620E+01  0.1533E+03
     11.109  0.6612E+01  0.1538E+03
     11.217  0.3667E+01  0.1542E+03
     11.324  0.3376E+01  0.1546E+03
     11.432  0.3541E+01  0.1550E+03
     11.540  0.4196E+01  0.1554E+03
     11.647  0.2816E+01  0.1558E+03
     11.755  0.2154E+01  0.1560E+03
     11.862  0.3652E+01  0.1564E+03
     11.970  0.6323E+01  0.1569E+03
     12.078  0.6769E+01  0.1576E+03
     12.185  0.7999E+01  0.1584E+03
     12.293  0.8483E+01  0.1593E+03
     12.401  0.8140E+01  0.1602E+03
     12.508  0.6382E+01  0.1610E+03
     12.616  0.3547E+01  0.1615E+03
     12.723  0.1377E+01  0.1618E+03
     12.831  0.7802E+00  0.1619E+03
     12.939  0.4000E+00  0.1620E+03
     13.046  0.1924E+00  0.1620E+03
     13.154  0.6158E-01  0.1620E+03
     13.261  0.3482E-02  0.1620E+03
     13.369  0.0000E+00  0.1620E+03
     13.477  0.0000E+00  0.1620E+03
     13.584  0.0000E+00  0.1620E+03
     13.692  0.0000E+00  0.1620E+03
     13.800  0.0000E+00  0.1620E+03
     13.907  0.0000E+00  0.1620E+03
     14.015  0.0000E+00  0.1620E+03
     14.122  0.0000E+00  0.1620E+03
     14.230  0.0000E+00  0.1620E+03
     14.338  0.0000E+00  0.1620E+03
     14.445  0.0000E+00  0.1620E+03
     14.553  0.0000E+00  0.1620E+03
     14.660  0.0000E+00  0.1620E+03
     14.768  0.0000E+00  0.1620E+03
     14.876  0.0000E+00  0.1620E+03
     14.983  0.0000E+00  0.1620E+03
     15.091  0.0000E+00  0.1620E+03
     15.199  0.0000E+00  0.1620E+03
     15.306  0.0000E+00  0.1620E+03
