       N       E                     dE             d eps       ncg     rms          rms(c)
DAV:   1     0.622939687399E+03    0.62294E+03   -0.71652E+04 26424   0.166E+03
DAV:   2    -0.257923733168E+03   -0.88086E+03   -0.84008E+03 32922   0.324E+02
DAV:   3    -0.312423788911E+03   -0.54500E+02   -0.53865E+02 31239   0.815E+01
DAV:   4    -0.313633033757E+03   -0.12092E+01   -0.12063E+01 32553   0.130E+01
DAV:   5    -0.313674136261E+03   -0.41103E-01   -0.41088E-01 33444   0.218E+00    0.221E+01
DAV:   6    -0.299208538283E+03    0.14466E+02   -0.15029E+01 29331   0.111E+01    0.116E+01
DAV:   7    -0.294624089246E+03    0.45844E+01   -0.15778E+01 29088   0.113E+01    0.194E+00
DAV:   8    -0.294684488747E+03   -0.60400E-01   -0.34931E-01 29457   0.185E+00    0.287E-01
DAV:   9    -0.294686111200E+03   -0.16225E-02   -0.18088E-02 31185   0.457E-01    0.128E-01
DAV:  10    -0.294686641398E+03   -0.53020E-03   -0.25993E-03 31419   0.180E-01    0.970E-02
DAV:  11    -0.294687311715E+03   -0.67032E-03   -0.20966E-03 29655   0.147E-01    0.742E-02
DAV:  12    -0.294687360212E+03   -0.48497E-04   -0.12267E-03 29664   0.980E-02    0.429E-02
DAV:  13    -0.294687415019E+03   -0.54807E-04   -0.31757E-04 30051   0.592E-02    0.270E-02
DAV:  14    -0.294687433038E+03   -0.18019E-04   -0.39185E-04 30015   0.470E-02    0.241E-02
DAV:  15    -0.294687416236E+03    0.16802E-04   -0.26417E-05 28989   0.227E-02    0.126E-02
DAV:  16    -0.294687416993E+03   -0.75768E-06   -0.41125E-06 26415   0.716E-03
   1 F= -.29967092E+03 E0= -.29967092E+03  d E =0.000000E+00
