  32  32   0   0
  0.7533559E+01  0.4934311E-09  0.4934311E-09  0.1143376E-08  0.5000000E-15
  1.000000000000000E-004
  CAR 
 graphite                                
     17.47493425    -15.20511507  301      6.14266889      1.00000000
    -15.205  0.0000E+00  0.0000E+00
    -15.096  0.0000E+00  0.0000E+00
    -14.987  0.0000E+00  0.0000E+00
    -14.878  0.0000E+00  0.0000E+00
    -14.769  0.0000E+00  0.0000E+00
    -14.660  0.0000E+00  0.0000E+00
    -14.552  0.0000E+00  0.0000E+00
    -14.443  0.0000E+00  0.0000E+00
    -14.334  0.0000E+00  0.0000E+00
    -14.225  0.2816E-13  0.3068E-14
    -14.116  0.7008E-09  0.7634E-10
    -14.007  0.1857E-05  0.2024E-06
    -13.898  0.5954E-03  0.6506E-04
    -13.789  0.3014E-01  0.3349E-02
    -13.680  0.3287E+00  0.3916E-01
    -13.571  0.9733E+00  0.1452E+00
    -13.462  0.1574E+01  0.3166E+00
    -13.353  0.2122E+01  0.5478E+00
    -13.244  0.2166E+01  0.7838E+00
    -13.135  0.2959E+01  0.1106E+01
    -13.026  0.3371E+01  0.1473E+01
    -12.918  0.3328E+01  0.1836E+01
    -12.809  0.3884E+01  0.2259E+01
    -12.700  0.5226E+01  0.2828E+01
    -12.591  0.5142E+01  0.3388E+01
    -12.482  0.4665E+01  0.3897E+01
    -12.373  0.4398E+01  0.4376E+01
    -12.264  0.5159E+01  0.4938E+01
    -12.155  0.5425E+01  0.5529E+01
    -12.046  0.5172E+01  0.6092E+01
    -11.937  0.4817E+01  0.6617E+01
    -11.828  0.4652E+01  0.7123E+01
    -11.719  0.4395E+01  0.7602E+01
    -11.610  0.5241E+01  0.8173E+01
    -11.501  0.5493E+01  0.8772E+01
    -11.392  0.5877E+01  0.9412E+01
    -11.284  0.5166E+01  0.9974E+01
    -11.175  0.3649E+01  0.1037E+02
    -11.066  0.3940E+01  0.1080E+02
    -10.957  0.5546E+01  0.1141E+02
    -10.848  0.6440E+01  0.1211E+02
    -10.739  0.5727E+01  0.1273E+02
    -10.630  0.4751E+01  0.1325E+02
    -10.521  0.4771E+01  0.1377E+02
    -10.412  0.4300E+01  0.1424E+02
    -10.303  0.4279E+01  0.1470E+02
    -10.194  0.5379E+01  0.1529E+02
    -10.085  0.6432E+01  0.1599E+02
     -9.976  0.5602E+01  0.1660E+02
     -9.867  0.5391E+01  0.1719E+02
     -9.758  0.5074E+01  0.1774E+02
     -9.650  0.3979E+01  0.1817E+02
     -9.541  0.4911E+01  0.1871E+02
     -9.432  0.5804E+01  0.1934E+02
     -9.323  0.5327E+01  0.1992E+02
     -9.214  0.5368E+01  0.2050E+02
     -9.105  0.5772E+01  0.2113E+02
     -8.996  0.5256E+01  0.2171E+02
     -8.887  0.5828E+01  0.2234E+02
     -8.778  0.5705E+01  0.2296E+02
     -8.669  0.4764E+01  0.2348E+02
     -8.560  0.5507E+01  0.2408E+02
     -8.451  0.6040E+01  0.2474E+02
     -8.342  0.5508E+01  0.2534E+02
     -8.233  0.6428E+01  0.2604E+02
     -8.124  0.6652E+01  0.2676E+02
     -8.016  0.7227E+01  0.2755E+02
     -7.907  0.6731E+01  0.2828E+02
     -7.798  0.5513E+01  0.2888E+02
     -7.689  0.5755E+01  0.2951E+02
     -7.580  0.3823E+01  0.2993E+02
     -7.471  0.1905E+01  0.3014E+02
     -7.362  0.2605E+01  0.3042E+02
     -7.253  0.3265E+01  0.3078E+02
     -7.144  0.3182E+01  0.3112E+02
     -7.035  0.2689E+01  0.3141E+02
     -6.926  0.3462E+01  0.3179E+02
     -6.817  0.5704E+01  0.3241E+02
     -6.708  0.5092E+01  0.3297E+02
     -6.599  0.3411E+01  0.3334E+02
     -6.490  0.3850E+01  0.3376E+02
     -6.382  0.6428E+01  0.3446E+02
     -6.273  0.7804E+01  0.3531E+02
     -6.164  0.6590E+01  0.3603E+02
     -6.055  0.6455E+01  0.3673E+02
     -5.946  0.6336E+01  0.3742E+02
     -5.837  0.5531E+01  0.3802E+02
     -5.728  0.7036E+01  0.3879E+02
     -5.619  0.7799E+01  0.3964E+02
     -5.510  0.4542E+01  0.4013E+02
     -5.401  0.4235E+01  0.4059E+02
     -5.292  0.5868E+01  0.4123E+02
     -5.183  0.5628E+01  0.4185E+02
     -5.074  0.4843E+01  0.4237E+02
     -4.965  0.4981E+01  0.4292E+02
     -4.856  0.5674E+01  0.4354E+02
     -4.747  0.3727E+01  0.4394E+02
     -4.639  0.3147E+01  0.4428E+02
     -4.530  0.4864E+01  0.4481E+02
     -4.421  0.5079E+01  0.4537E+02
     -4.312  0.5229E+01  0.4594E+02
     -4.203  0.5670E+01  0.4655E+02
     -4.094  0.3797E+01  0.4697E+02
     -3.985  0.5012E+01  0.4751E+02
     -3.876  0.7237E+01  0.4830E+02
     -3.767  0.7004E+01  0.4907E+02
     -3.658  0.5556E+01  0.4967E+02
     -3.549  0.4335E+01  0.5014E+02
     -3.440  0.6404E+01  0.5084E+02
     -3.331  0.6962E+01  0.5160E+02
     -3.222  0.5316E+01  0.5218E+02
     -3.113  0.4997E+01  0.5272E+02
     -3.005  0.5891E+01  0.5336E+02
     -2.896  0.5374E+01  0.5395E+02
     -2.787  0.7161E+01  0.5473E+02
     -2.678  0.9952E+01  0.5581E+02
     -2.569  0.9990E+01  0.5690E+02
     -2.460  0.9391E+01  0.5793E+02
     -2.351  0.7278E+01  0.5872E+02
     -2.242  0.2808E+01  0.5902E+02
     -2.133  0.2372E+01  0.5928E+02
     -2.024  0.7434E+01  0.6009E+02
     -1.915  0.1177E+02  0.6137E+02
     -1.806  0.1313E+02  0.6280E+02
     -1.697  0.1105E+02  0.6401E+02
     -1.588  0.8162E+01  0.6490E+02
     -1.479  0.8188E+01  0.6579E+02
     -1.371  0.7752E+01  0.6663E+02
     -1.262  0.8122E+01  0.6752E+02
     -1.153  0.7319E+01  0.6831E+02
     -1.044  0.9365E+01  0.6934E+02
     -0.935  0.1290E+02  0.7074E+02
     -0.826  0.1296E+02  0.7215E+02
     -0.717  0.1118E+02  0.7337E+02
     -0.608  0.1011E+02  0.7447E+02
     -0.499  0.1148E+02  0.7572E+02
     -0.390  0.1338E+02  0.7718E+02
     -0.281  0.1549E+02  0.7887E+02
     -0.172  0.1621E+02  0.8063E+02
     -0.063  0.1221E+02  0.8196E+02
      0.046  0.1358E+02  0.8344E+02
      0.155  0.1605E+02  0.8519E+02
      0.263  0.1468E+02  0.8679E+02
      0.372  0.1195E+02  0.8809E+02
      0.481  0.1168E+02  0.8936E+02
      0.590  0.1206E+02  0.9068E+02
      0.699  0.9722E+01  0.9174E+02
      0.808  0.9480E+01  0.9277E+02
      0.917  0.1098E+02  0.9396E+02
      1.026  0.1328E+02  0.9541E+02
      1.135  0.1193E+02  0.9671E+02
      1.244  0.7776E+01  0.9756E+02
      1.353  0.5818E+01  0.9819E+02
      1.462  0.1042E+02  0.9933E+02
      1.571  0.1627E+02  0.1011E+03
      1.680  0.1310E+02  0.1025E+03
      1.789  0.8892E+01  0.1035E+03
      1.897  0.4943E+01  0.1040E+03
      2.006  0.5494E+01  0.1046E+03
      2.115  0.9052E+01  0.1056E+03
      2.224  0.1340E+02  0.1071E+03
      2.333  0.1181E+02  0.1084E+03
      2.442  0.9283E+01  0.1094E+03
      2.551  0.8564E+01  0.1103E+03
      2.660  0.8306E+01  0.1112E+03
      2.769  0.8510E+01  0.1121E+03
      2.878  0.8984E+01  0.1131E+03
      2.987  0.8423E+01  0.1140E+03
      3.096  0.1003E+02  0.1151E+03
      3.205  0.9744E+01  0.1162E+03
      3.314  0.7139E+01  0.1170E+03
      3.423  0.5334E+01  0.1175E+03
      3.531  0.6353E+01  0.1182E+03
      3.640  0.5390E+01  0.1188E+03
      3.749  0.4309E+01  0.1193E+03
      3.858  0.5358E+01  0.1199E+03
      3.967  0.5614E+01  0.1205E+03
      4.076  0.4792E+01  0.1210E+03
      4.185  0.6795E+01  0.1218E+03
      4.294  0.6844E+01  0.1225E+03
      4.403  0.8059E+01  0.1234E+03
      4.512  0.7393E+01  0.1242E+03
      4.621  0.4694E+01  0.1247E+03
      4.730  0.3162E+01  0.1250E+03
      4.839  0.3633E+01  0.1254E+03
      4.948  0.5312E+01  0.1260E+03
      5.057  0.2667E+01  0.1263E+03
      5.165  0.2109E+01  0.1265E+03
      5.274  0.2549E+01  0.1268E+03
      5.383  0.2219E+01  0.1271E+03
      5.492  0.1475E+01  0.1272E+03
      5.601  0.9136E+00  0.1273E+03
      5.710  0.1686E+01  0.1275E+03
      5.819  0.2254E+01  0.1277E+03
      5.928  0.1253E+01  0.1279E+03
      6.037  0.3671E+00  0.1279E+03
      6.146  0.7750E+00  0.1280E+03
      6.255  0.7597E+00  0.1281E+03
      6.364  0.2210E+00  0.1281E+03
      6.473  0.1324E-01  0.1281E+03
      6.582  0.7051E-01  0.1281E+03
      6.691  0.9384E+00  0.1282E+03
      6.799  0.2148E+01  0.1285E+03
      6.908  0.1445E+01  0.1286E+03
      7.017  0.7407E+00  0.1287E+03
      7.126  0.8342E+00  0.1288E+03
      7.235  0.7831E+00  0.1289E+03
      7.344  0.1939E+01  0.1291E+03
      7.453  0.3552E+01  0.1295E+03
      7.562  0.3731E+01  0.1299E+03
      7.671  0.4625E+01  0.1304E+03
      7.780  0.6583E+01  0.1311E+03
      7.889  0.6833E+01  0.1318E+03
      7.998  0.9171E+01  0.1328E+03
      8.107  0.8722E+01  0.1338E+03
      8.216  0.5872E+01  0.1344E+03
      8.325  0.6825E+01  0.1352E+03
      8.433  0.6366E+01  0.1359E+03
      8.542  0.4388E+01  0.1363E+03
      8.651  0.5355E+01  0.1369E+03
      8.760  0.6313E+01  0.1376E+03
      8.869  0.4454E+01  0.1381E+03
      8.978  0.4342E+01  0.1386E+03
      9.087  0.4011E+01  0.1390E+03
      9.196  0.3801E+01  0.1394E+03
      9.305  0.4670E+01  0.1399E+03
      9.414  0.5034E+01  0.1405E+03
      9.523  0.5505E+01  0.1411E+03
      9.632  0.5373E+01  0.1417E+03
      9.741  0.3830E+01  0.1421E+03
      9.850  0.2621E+01  0.1424E+03
      9.959  0.2772E+01  0.1427E+03
     10.067  0.2530E+01  0.1429E+03
     10.176  0.3665E+01  0.1433E+03
     10.285  0.4356E+01  0.1438E+03
     10.394  0.3044E+01  0.1442E+03
     10.503  0.3481E+01  0.1445E+03
     10.612  0.4353E+01  0.1450E+03
     10.721  0.4493E+01  0.1455E+03
     10.830  0.3298E+01  0.1459E+03
     10.939  0.2211E+01  0.1461E+03
     11.048  0.2993E+01  0.1464E+03
     11.157  0.2783E+01  0.1467E+03
     11.266  0.2637E+01  0.1470E+03
     11.375  0.2207E+01  0.1473E+03
     11.484  0.3061E+01  0.1476E+03
     11.593  0.2296E+01  0.1478E+03
     11.701  0.3130E+01  0.1482E+03
     11.810  0.4395E+01  0.1487E+03
     11.919  0.3688E+01  0.1491E+03
     12.028  0.2963E+01  0.1494E+03
     12.137  0.2635E+01  0.1497E+03
     12.246  0.1902E+01  0.1499E+03
     12.355  0.1695E+01  0.1501E+03
     12.464  0.1642E+01  0.1502E+03
     12.573  0.2501E+01  0.1505E+03
     12.682  0.3403E+01  0.1509E+03
     12.791  0.3738E+01  0.1513E+03
     12.900  0.3211E+01  0.1516E+03
     13.009  0.3624E+01  0.1520E+03
     13.118  0.4660E+01  0.1525E+03
     13.227  0.5085E+01  0.1531E+03
     13.335  0.4491E+01  0.1536E+03
     13.444  0.6709E+01  0.1543E+03
     13.553  0.7916E+01  0.1552E+03
     13.662  0.7208E+01  0.1560E+03
     13.771  0.8000E+01  0.1568E+03
     13.880  0.7890E+01  0.1577E+03
     13.989  0.8846E+01  0.1587E+03
     14.098  0.9144E+01  0.1597E+03
     14.207  0.1058E+02  0.1608E+03
     14.316  0.1074E+02  0.1620E+03
     14.425  0.1284E+02  0.1634E+03
     14.534  0.1167E+02  0.1646E+03
     14.643  0.9572E+01  0.1657E+03
     14.752  0.7128E+01  0.1665E+03
     14.861  0.3219E+01  0.1668E+03
     14.969  0.2243E+01  0.1671E+03
     15.078  0.3265E+01  0.1674E+03
     15.187  0.3061E+01  0.1677E+03
     15.296  0.1350E+01  0.1679E+03
     15.405  0.1695E+00  0.1679E+03
     15.514  0.4790E-01  0.1679E+03
     15.623  0.2273E+00  0.1679E+03
     15.732  0.1642E+00  0.1680E+03
     15.841  0.2639E-01  0.1680E+03
     15.950  0.1107E+00  0.1680E+03
     16.059  0.1760E+00  0.1680E+03
     16.168  0.4189E-01  0.1680E+03
     16.277  0.1339E-02  0.1680E+03
     16.386  0.5013E-05  0.1680E+03
     16.495  0.2004E-08  0.1680E+03
     16.603  0.8117E-13  0.1680E+03
     16.712  0.0000E+00  0.1680E+03
     16.821  0.0000E+00  0.1680E+03
     16.930  0.0000E+00  0.1680E+03
     17.039  0.0000E+00  0.1680E+03
     17.148  0.0000E+00  0.1680E+03
     17.257  0.0000E+00  0.1680E+03
     17.366  0.0000E+00  0.1680E+03
     17.475  0.0000E+00  0.1680E+03
