    4    4  200    1
  0.9167123E+01  0.2466437E-09  0.2466437E-09  0.6963338E-09  0.5000000E-15
  1.000000000000000E-004
  CAR 
 graphite                                
     16    215     12
 
  0.0000000E+00  0.0000000E+00  0.0000000E+00  0.8680556E-03
    1      -15.242131
    2      -15.018305
    3       -3.998052
    4       -2.377169
    5        1.341292
    6        1.353869
    7        1.357937
    8        1.370130
    9        8.375151
   10       12.685548
   11       12.690462
   12       12.726904
 
  0.8333333E-01 -0.1387779E-16  0.0000000E+00  0.3472222E-02
    1      -15.076837
    2      -14.855330
    3       -3.797523
    4       -2.187985
    5        0.696746
    6        0.719826
    7        1.003367
    8        1.022647
    9        8.578229
   10       12.740055
   11       12.804056
   12       13.398588
 
  0.1666667E+00 -0.2775558E-16  0.0000000E+00  0.3472222E-02
    1      -14.582704
    2      -14.368167
    3       -3.200506
    4       -1.626620
    5       -0.953986
    6       -0.908564
    7        0.206058
    8        0.233868
    9        9.188787
   10       12.643900
   11       12.784710
   12       13.582248
 
  0.2500000E+00 -0.2775558E-16  0.0000000E+00  0.3472222E-02
    1      -13.765657
    2      -13.562543
    3       -3.067236
    4       -2.996168
    5       -2.223151
    6       -0.716520
    7       -0.676666
    8       -0.643517
    9       10.201222
   10       11.363461
   11       11.863308
   12       12.320021
 
  0.3333333E+00 -0.5551115E-16  0.0000000E+00  0.3472222E-02
    1      -12.638003
    2      -12.450540
    3       -5.285200
    4       -5.188611
    5       -1.411671
    6       -1.375366
    7       -0.906235
    8        0.478724
    9        8.944833
   10        9.669254
   11       11.552956
   12       11.977439
 
  0.4166667E+00  0.0000000E+00  0.0000000E+00  0.3472222E-02
    1      -11.230546
    2      -11.064232
    3       -7.397832
    4       -7.279347
    5       -1.885256
    6       -1.847452
    7        0.623522
    8        1.735914
    9        6.788797
   10        7.603416
   11       11.686501
   12       11.967267
 
  0.5000000E+00 -0.5551115E-16  0.0000000E+00  0.1736111E-02
    1       -9.929834
    2       -9.847107
    3       -8.871779
    4       -8.808779
    5       -2.047787
    6       -2.009503
    7        1.683386
    8        2.246809
    9        5.864414
   10        6.451037
   11       11.597910
   12       11.897151
 
  0.8333333E-01  0.8333333E-01  0.0000000E+00  0.1736111E-02
    1      -14.746880
    2      -14.530017
    3       -3.398422
    4       -1.812294
    5       -0.337247
    6       -0.314997
    7        0.326503
    8        0.342749
    9        8.986497
   10       13.019422
   11       13.112584
   12       14.196916
 
  0.1666667E+00  0.8333333E-01  0.0000000E+00  0.3472222E-02
    1      -14.091054
    2      -13.883406
    3       -2.610077
    4       -2.063917
    5       -2.015432
    6       -1.074698
    7       -0.677482
    8       -0.646636
    9        9.802813
   10       12.280412
   11       12.626794
   12       13.114770
 
  0.2500000E+00  0.8333333E-01  0.0000000E+00  0.3472222E-02
    1      -13.118287
    2      -12.924155
    3       -4.154708
    4       -4.075500
    5       -1.569123
    6       -1.527688
    7       -1.457920
    8       -0.012674
    9       10.034916
   10       10.585884
   11       11.014692
   12       12.828800
 
  0.3333333E+00  0.8333333E-01  0.0000000E+00  0.3472222E-02
    1      -11.847567
    2      -11.671358
    3       -6.292458
    4       -6.186796
    5       -2.207026
    6       -2.160722
    7       -0.009489
    8        1.263735
    9        7.746236
   10        8.484471
   11       12.431474
   12       12.607556
 
  0.4166667E+00  0.8333333E-01  0.0000000E+00  0.3472222E-02
    1      -10.352218
    2      -10.207030
    3       -8.239963
    4       -8.122597
    5       -2.537248
    6       -2.488984
    7        1.473951
    8        2.295694
    9        6.071563
   10        6.725305
   11       12.328178
   12       12.643741
 
  0.5000000E+00  0.8333333E-01  0.0000000E+00  0.3472222E-02
    1      -10.354586
    2      -10.209318
    3       -8.237208
    4       -8.119729
    5       -2.538077
    6       -2.489806
    7        1.472491
    8        2.295151
    9        6.071731
   10        6.727044
   11       12.329184
   12       12.644733
 
 -0.4166667E+00  0.8333333E-01  0.0000000E+00  0.3472222E-02
    1      -11.849744
    2      -11.673522
    3       -6.288984
    4       -6.183284
    5       -2.209380
    6       -2.163024
    7       -0.011366
    8        1.262161
    9        7.746848
   10        8.486679
   11       12.432508
   12       12.607731
 
 -0.3333333E+00  0.8333333E-01  0.0000000E+00  0.3472222E-02
    1      -13.119985
    2      -12.925846
    3       -4.151451
    4       -4.072189
    5       -1.572194
    6       -1.530710
    7       -1.459557
    8       -0.014200
    9       10.034303
   10       10.587599
   11       11.012419
   12       12.833365
 
 -0.2500000E+00  0.8333333E-01  0.0000000E+00  0.3472222E-02
    1      -14.092265
    2      -13.884610
    3       -2.611311
    4       -2.063175
    5       -2.014649
    6       -1.075880
    7       -0.678476
    8       -0.647722
    9        9.801160
   10       12.277662
   11       12.627769
   12       13.120700
 
 -0.1666667E+00  0.8333333E-01  0.0000000E+00  0.3472222E-02
    1      -14.747604
    2      -14.530737
    3       -3.399182
    4       -1.813031
    5       -0.345417
    6       -0.322628
    7        0.334278
    8        0.350560
    9        8.985475
   10       13.026720
   11       13.120984
   12       14.146906
 
 -0.8333333E-01  0.8333333E-01  0.0000000E+00  0.1736111E-02
    1      -15.077080
    2      -14.855570
    3       -3.797780
    4       -2.188235
    5        0.683764
    6        0.707104
    7        1.016419
    8        1.035545
    9        8.577876
   10       12.744544
   11       12.808782
   12       13.392998
 
  0.1666667E+00  0.1666667E+00  0.0000000E+00  0.1736111E-02
    1      -13.279479
    2      -13.083130
    3       -3.393161
    4       -3.354820
    5       -2.036746
    6       -2.008765
    7       -1.644038
    8       -0.179790
    9       10.551046
   10       10.823053
   11       10.923721
   12       14.285857
 
  0.2500000E+00  0.1666667E+00  0.0000000E+00  0.3472222E-02
    1      -12.162274
    2      -11.981498
    3       -5.140761
    4       -5.065985
    5       -3.105499
    6       -3.054267
    7       -0.341388
    8        1.001097
    9        8.546608
   10        9.041797
   11       12.226765
   12       14.421586
 
  0.3333333E+00  0.1666667E+00  0.0000000E+00  0.3472222E-02
    1      -10.774268
    2      -10.614737
    3       -7.068251
    4       -6.961490
    5       -3.689899
    6       -3.625121
    7        1.184709
    8        2.277294
    9        6.604033
   10        7.207531
   11       13.933999
   12       14.208689
 
  0.4166667E+00  0.1666667E+00  0.0000000E+00  0.3472222E-02
    1       -9.506023
    2       -9.426844
    3       -8.470293
    4       -8.414843
    5       -3.877872
    6       -3.809831
    7        2.282137
    8        2.834205
    9        5.762466
   10        6.043912
   11       14.076730
   12       14.513537
 
  0.5000000E+00  0.1666667E+00  0.0000000E+00  0.3472222E-02
    1      -10.779000
    2      -10.619450
    3       -7.061938
    4       -6.955004
    5       -3.692297
    6       -3.627445
    7        1.181070
    8        2.274599
    9        6.603934
   10        7.212398
   11       13.928683
   12       14.209839
 
 -0.4166667E+00  0.1666667E+00  0.0000000E+00  0.3472222E-02
    1      -12.166147
    2      -11.985367
    3       -5.135161
    4       -5.060175
    5       -3.108569
    6       -3.057240
    7       -0.344913
    8        0.997825
    9        8.544597
   10        9.046156
   11       12.221538
   12       14.427796
 
 -0.3333333E+00  0.1666667E+00  0.0000000E+00  0.3472222E-02
    1      -13.282385
    2      -13.086025
    3       -3.394753
    4       -3.355494
    5       -2.034236
    6       -2.005737
    7       -1.646897
    8       -0.182559
    9       10.545396
   10       10.819183
   11       10.926346
   12       14.308001
 
 -0.2500000E+00  0.1666667E+00  0.0000000E+00  0.3472222E-02
    1      -14.092985
    2      -13.885328
    3       -2.612062
    4       -2.074168
    5       -2.025145
    6       -1.076643
    7       -0.666270
    8       -0.635247
    9        9.800228
   10       12.273301
   11       12.625860
   12       13.140259
 
 -0.1666667E+00  0.1666667E+00  0.0000000E+00  0.1736111E-02
    1      -14.583667
    2      -14.369126
    3       -3.201518
    4       -1.627617
    5       -0.967591
    6       -0.921938
    7        0.220833
    8        0.248545
    9        9.187477
   10       12.662444
   11       12.802808
   12       13.559393
 
  0.2500000E+00  0.2500000E+00  0.0000000E+00  0.1736111E-02
    1      -10.923239
    2      -10.760567
    3       -6.170481
    4       -6.116473
    5       -4.581713
    6       -4.541492
    7        1.069483
    8        2.246879
    9        6.939192
   10        7.411428
   11       13.780431
   12       16.154449
 
  0.3333333E+00  0.2500000E+00  0.0000000E+00  0.3472222E-02
    1       -9.484880
    2       -9.352657
    3       -7.608418
    4       -7.520271
    5       -5.305635
    6       -5.236974
    7        2.589250
    8        3.413245
    9        5.474275
   10        5.902498
   11       15.531104
   12       15.724772
 
  0.4166667E+00  0.2500000E+00  0.0000000E+00  0.3472222E-02
    1       -9.492066
    2       -9.359711
    3       -7.600923
    4       -7.512050
    5       -5.306489
    6       -5.237719
    7        2.584754
    8        3.410961
    9        5.470700
   10        5.910677
   11       15.519281
   12       15.736981
 
  0.5000000E+00  0.2500000E+00  0.0000000E+00  0.3472222E-02
    1      -10.929771
    2      -10.767111
    3       -6.166752
    4       -6.111463
    5       -4.580089
    6       -4.539026
    7        1.064178
    8        2.241678
    9        6.935435
   10        7.418529
   11       13.771450
   12       16.057492
 
 -0.4166667E+00  0.2500000E+00  0.0000000E+00  0.3472222E-02
    1      -12.167367
    2      -11.986593
    3       -5.145175
    4       -5.069672
    5       -3.096486
    6       -3.044832
    7       -0.346076
    8        0.996331
    9        8.540339
   10        9.044426
   11       12.220117
   12       14.458916
 
 -0.3333333E+00  0.2500000E+00  0.0000000E+00  0.3472222E-02
    1      -13.121912
    2      -12.927770
    3       -4.164234
    4       -4.084731
    5       -1.555407
    6       -1.513929
    7       -1.461498
    8       -0.016317
    9       10.027010
   10       10.583325
   11       11.010138
   12       12.862087
 
 -0.2500000E+00  0.2500000E+00  0.0000000E+00  0.1736111E-02
    1      -13.767824
    2      -13.564701
    3       -3.080112
    4       -3.008845
    5       -2.225374
    6       -0.718779
    7       -0.660213
    8       -0.627138
    9       10.198495
   10       11.355346
   11       11.858706
   12       12.347529
 
  0.3333333E+00  0.3333333E+00  0.0000000E+00  0.1736111E-02
    1       -8.277207
    2       -8.208052
    3       -8.206125
    4       -8.138352
    5       -6.161624
    6       -6.160918
    7        3.849468
    8        4.341819
    9        4.349081
   10        4.928067
   11       15.363655
   12       15.384361
 
  0.4166667E+00  0.3333333E+00  0.0000000E+00  0.3472222E-02
    1       -9.494721
    2       -9.362783
    3       -7.606568
    4       -7.517748
    5       -5.297412
    6       -5.228239
    7        2.583979
    8        3.404291
    9        5.472150
   10        5.910266
   11       15.518017
   12       15.739299
 
  0.5000000E+00  0.3333333E+00  0.0000000E+00  0.3472222E-02
    1      -10.782172
    2      -10.622732
    3       -7.071786
    4       -6.964769
    5       -3.677157
    6       -3.612274
    7        1.178720
    8        2.269536
    9        6.600150
   10        7.208874
   11       13.928978
   12       14.243511
 
 -0.4166667E+00  0.3333333E+00  0.0000000E+00  0.3472222E-02
    1      -11.853434
    2      -11.677261
    3       -6.300104
    4       -6.194262
    5       -2.191311
    6       -2.145014
    7       -0.014713
    8        1.257639
    9        7.739956
   10        8.480507
   11       12.448356
   12       12.630186
 
 -0.3333333E+00  0.3333333E+00  0.0000000E+00  0.1736111E-02
    1      -12.641877
    2      -12.454416
    3       -5.296228
    4       -5.199481
    5       -1.393903
    6       -1.357664
    7       -0.909984
    8        0.474549
    9        8.936710
   10        9.662963
   11       11.552063
   12       12.008558
 
  0.4166667E+00  0.4166667E+00  0.0000000E+00  0.1736111E-02
    1       -9.515769
    2       -9.438399
    3       -8.471547
    4       -8.417312
    5       -3.863171
    6       -3.795129
    7        2.280685
    8        2.819926
    9        5.766119
   10        6.038881
   11       14.113946
   12       14.551511
 
  0.5000000E+00  0.4166667E+00  0.0000000E+00  0.3472222E-02
    1      -10.361357
    2      -10.216576
    3       -8.244318
    4       -8.127109
    5       -2.520047
    6       -2.471829
    7        1.469071
    8        2.284426
    9        6.070742
   10        6.718853
   11       12.363911
   12       12.679578
 
 -0.4166667E+00  0.4166667E+00  0.0000000E+00  0.1736111E-02
    1      -11.236821
    2      -11.070615
    3       -7.406088
    4       -7.287553
    5       -1.866665
    6       -1.828930
    7        0.618575
    8        1.728206
    9        6.783942
   10        7.595861
   11       11.720036
   12       12.000631
 
  0.5000000E+00  0.5000000E+00  0.0000000E+00  0.8680556E-03
    1       -9.940322
    2       -9.859485
    3       -8.874138
    4       -8.812451
    5       -2.028914
    6       -1.990690
    7        1.681316
    8        2.231642
    9        5.866801
   10        6.440025
   11       11.632345
   12       11.931624
 
  0.0000000E+00  0.0000000E+00  0.1250000E+00  0.1736111E-02
    1      -15.234035
    2      -15.027255
    3       -3.945395
    4       -2.451748
    5        1.341757
    6        1.353320
    7        1.358388
    8        1.369590
    9        8.544705
   10       12.689427
   11       12.694872
   12       12.722802
 
  0.8333333E-01 -0.1387779E-16  0.1250000E+00  0.6944444E-02
    1      -15.068801
    2      -14.864187
    3       -3.745244
    4       -2.261917
    5        0.697544
    6        0.718943
    7        1.004109
    8        1.021926
    9        8.746557
   10       12.739254
   11       12.801897
   12       13.394128
 
  0.1666667E+00 -0.2775558E-16  0.1250000E+00  0.6944444E-02
    1      -14.574904
    2      -14.376730
    3       -3.149267
    4       -1.698647
    5       -0.952216
    6       -0.910314
    7        0.207109
    8        0.232797
    9        9.352949
   10       12.643544
   11       12.779093
   12       13.608111
 
  0.2500000E+00 -0.2775558E-16  0.1250000E+00  0.6944444E-02
    1      -13.758251
    2      -13.570614
    3       -3.064515
    4       -2.998897
    5       -2.173704
    6       -0.784786
    7       -0.675434
    8       -0.644765
    9       10.351382
   10       11.387566
   11       11.837412
   12       12.326419
 
  0.3333333E+00 -0.5551115E-16  0.1250000E+00  0.6944444E-02
    1      -12.631137
    2      -12.457968
    3       -5.281592
    4       -5.192346
    5       -1.410251
    6       -1.376774
    7       -0.860178
    8        0.417186
    9        8.964055
   10        9.635099
   11       11.678755
   12       11.991751
 
  0.4166667E+00  0.0000000E+00  0.1250000E+00  0.6944444E-02
    1      -11.224423
    2      -11.070803
    3       -7.393462
    4       -7.283973
    5       -1.883812
    6       -1.848898
    7        0.662747
    8        1.690390
    9        6.807909
   10        7.561724
   11       11.697499
   12       11.956997
 
  0.5000000E+00 -0.5551115E-16  0.1250000E+00  0.3472222E-02
    1       -9.926322
    2       -9.849824
    3       -8.870203
    4       -8.811932
    5       -2.046371
    6       -2.010988
    7        1.709482
    8        2.232440
    9        5.865190
   10        6.409271
   11       11.608882
   12       11.885434
 
  0.8333333E-01  0.8333333E-01  0.1250000E+00  0.3472222E-02
    1      -14.739000
    2      -14.538693
    3       -3.346824
    4       -1.884966
    5       -0.336405
    6       -0.315822
    7        0.327042
    8        0.342117
    9        9.152255
   10       13.014895
   11       13.109548
   12       14.118644
 
  0.1666667E+00  0.8333333E-01  0.1250000E+00  0.6944444E-02
    1      -14.083491
    2      -13.891679
    3       -2.559960
    4       -2.062102
    5       -2.017246
    6       -1.144593
    7       -0.676314
    8       -0.647852
    9        9.962316
   10       12.292190
   11       12.608538
   12       13.117775
 
  0.2500000E+00  0.8333333E-01  0.1250000E+00  0.6944444E-02
    1      -13.111205
    2      -12.931867
    3       -4.151739
    4       -4.078578
    5       -1.567552
    6       -1.529297
    7       -1.410251
    8       -0.077645
    9       10.047746
   10       10.561342
   11       11.171770
   12       12.836091
 
  0.3333333E+00  0.8333333E-01  0.1250000E+00  0.6944444E-02
    1      -11.841109
    2      -11.678330
    3       -6.288518
    4       -6.190919
    5       -2.205269
    6       -2.162509
    7        0.033639
    8        1.208543
    9        7.767117
   10        8.450310
   11       12.474314
   12       12.648477
 
  0.4166667E+00  0.8333333E-01  0.1250000E+00  0.6944444E-02
    1      -10.346804
    2      -10.212680
    3       -8.235737
    4       -8.127267
    5       -2.535392
    6       -2.490837
    7        1.506383
    8        2.267309
    9        6.080339
   10        6.686863
   11       12.339668
   12       12.631197
 
  0.5000000E+00  0.8333333E-01  0.1250000E+00  0.6944444E-02
    1      -10.349172
    2      -10.214973
    3       -8.232970
    4       -8.124400
    5       -2.536229
    6       -2.491658
    7        1.504944
    8        2.266712
    9        6.080588
   10        6.688556
   11       12.340654
   12       12.632180
 
 -0.4166667E+00  0.8333333E-01  0.1250000E+00  0.6944444E-02
    1      -11.843280
    2      -11.680486
    3       -6.285048
    4       -6.187408
    5       -2.207616
    6       -2.164811
    7        0.031769
    8        1.206948
    9        7.767802
   10        8.452460
   11       12.476340
   12       12.648751
 
 -0.3333333E+00  0.8333333E-01  0.1250000E+00  0.6944444E-02
    1      -13.112902
    2      -12.933559
    3       -4.148481
    4       -4.075270
    5       -1.570623
    6       -1.532319
    7       -1.411887
    8       -0.079178
    9       10.047269
   10       10.562981
   11       11.169419
   12       12.840622
 
 -0.2500000E+00  0.8333333E-01  0.1250000E+00  0.6944444E-02
    1      -14.084702
    2      -13.892883
    3       -2.561189
    4       -2.061329
    5       -2.016463
    6       -1.145777
    7       -0.677307
    8       -0.648932
    9        9.960677
   10       12.289583
   11       12.609456
   12       13.123559
 
 -0.1666667E+00  0.8333333E-01  0.1250000E+00  0.6944444E-02
    1      -14.739724
    2      -14.539413
    3       -3.347586
    4       -1.885704
    5       -0.344558
    6       -0.323475
    7        0.334818
    8        0.349928
    9        9.151235
   10       13.022107
   11       13.117913
   12       14.177759
 
 -0.8333333E-01  0.8333333E-01  0.1250000E+00  0.3472222E-02
    1      -15.069043
    2      -14.864427
    3       -3.745501
    4       -2.262167
    5        0.684576
    6        0.706205
    7        1.017139
    8        1.034829
    9        8.746206
   10       12.743712
   11       12.806620
   12       13.391247
 
  0.1666667E+00  0.1666667E+00  0.1250000E+00  0.3472222E-02
    1      -13.272311
    2      -13.090934
    3       -3.391636
    4       -3.356220
    5       -2.035779
    6       -2.009924
    7       -1.595867
    8       -0.245770
    9       10.564913
   10       10.899427
   11       10.983828
   12       14.281848
 
  0.2500000E+00  0.1666667E+00  0.1250000E+00  0.6944444E-02
    1      -12.155643
    2      -11.988638
    3       -5.137927
    4       -5.068838
    5       -3.103617
    6       -3.056276
    7       -0.296570
    8        0.941749
    9        8.564111
   10        9.021914
   11       12.361098
   12       14.428115
 
  0.3333333E+00  0.1666667E+00  0.1250000E+00  0.6944444E-02
    1      -10.768381
    2      -10.621024
    3       -7.064297
    4       -6.965655
    5       -3.687524
    6       -3.627659
    7        1.223142
    8        2.232289
    9        6.621236
   10        7.180171
   11       14.017415
   12       14.222855
 
  0.4166667E+00  0.1666667E+00  0.1250000E+00  0.6944444E-02
    1       -9.502656
    2       -9.429455
    3       -8.468899
    4       -8.417599
    5       -3.875353
    6       -3.812463
    7        2.308254
    8        2.821003
    9        5.756223
   10        6.020301
   11       14.089181
   12       14.491417
 
  0.5000000E+00  0.1666667E+00  0.1250000E+00  0.6944444E-02
    1      -10.773110
    2      -10.625726
    3       -7.057970
    4       -6.959174
    5       -3.689911
    6       -3.629983
    7        1.219525
    8        2.229536
    9        6.621357
   10        7.184848
   11       14.012581
   12       14.223438
 
 -0.4166667E+00  0.1666667E+00  0.1250000E+00  0.6944444E-02
    1      -12.159519
    2      -11.992507
    3       -5.132310
    4       -5.063045
    5       -3.106682
    6       -3.059247
    7       -0.300088
    8        0.938459
    9        8.562344
   10        9.026040
   11       12.355809
   12       14.434190
 
 -0.3333333E+00  0.1666667E+00  0.1250000E+00  0.6944444E-02
    1      -13.275217
    2      -13.093830
    3       -3.393209
    4       -3.356936
    5       -2.033252
    6       -2.006914
    7       -1.598729
    8       -0.248546
    9       10.559552
   10       10.901093
   11       10.980581
   12       14.301240
 
 -0.2500000E+00  0.1666667E+00  0.1250000E+00  0.6944444E-02
    1      -14.085422
    2      -13.893597
    3       -2.561940
    4       -2.072327
    5       -2.026980
    6       -1.146538
    7       -0.665082
    8       -0.636443
    9        9.959724
   10       12.285447
   11       12.607440
   12       13.142970
 
 -0.1666667E+00  0.1666667E+00  0.1250000E+00  0.3472222E-02
    1      -14.575866
    2      -14.377688
    3       -3.150277
    4       -1.699644
    5       -0.965813
    6       -0.923695
    7        0.221885
    8        0.247480
    9        9.351638
   10       12.661963
   11       12.797164
   12       13.572921
 
  0.2500000E+00  0.2500000E+00  0.1250000E+00  0.3472222E-02
    1      -10.917231
    2      -10.766976
    3       -6.168339
    4       -6.118424
    5       -4.580437
    6       -4.543254
    7        1.109781
    8        2.196425
    9        6.957249
   10        7.393009
   11       13.865534
   12       15.784036
 
  0.3333333E+00  0.2500000E+00  0.1250000E+00  0.6944444E-02
    1       -9.479948
    2       -9.357798
    3       -7.605172
    4       -7.523702
    5       -5.303202
    6       -5.239771
    7        2.621216
    8        3.384263
    9        5.485158
   10        5.880994
   11       15.318627
   12       15.535771
 
  0.4166667E+00  0.2500000E+00  0.1250000E+00  0.6944444E-02
    1       -9.487130
    2       -9.364865
    3       -7.597645
    4       -7.515519
    5       -5.304052
    6       -5.240520
    7        2.616746
    8        3.381798
    9        5.482100
   10        5.888812
   11       15.306329
   12       15.545237
 
  0.5000000E+00  0.2500000E+00  0.1250000E+00  0.6944444E-02
    1      -10.923763
    2      -10.773520
    3       -6.164564
    4       -6.113465
    5       -4.578782
    6       -4.540818
    7        1.104476
    8        2.191215
    9        6.953848
   10        7.399646
   11       13.856531
   12       15.791827
 
 -0.4166667E+00  0.2500000E+00  0.1250000E+00  0.6944444E-02
    1      -12.160742
    2      -11.993735
    3       -5.142314
    4       -5.072565
    5       -3.094582
    6       -3.046848
    7       -0.301248
    8        0.936987
    9        8.558093
   10        9.024121
   11       12.354556
   12       14.465105
 
 -0.3333333E+00  0.2500000E+00  0.1250000E+00  0.6944444E-02
    1      -13.114830
    2      -12.935483
    3       -4.161258
    4       -4.087828
    5       -1.553837
    6       -1.515539
    7       -1.413830
    8       -0.081284
    9       10.039875
   10       10.558515
   11       11.167480
   12       12.869249
 
 -0.2500000E+00  0.2500000E+00  0.1250000E+00  0.3472222E-02
    1      -13.760418
    2      -13.572773
    3       -3.077387
    4       -3.011589
    5       -2.175931
    6       -0.787043
    7       -0.658984
    8       -0.628384
    9       10.348501
   10       11.379902
   11       11.832713
   12       12.353779
 
  0.3333333E+00  0.3333333E+00  0.1250000E+00  0.3472222E-02
    1       -8.272138
    2       -8.207880
    3       -8.205961
    4       -8.143720
    5       -6.161974
    6       -6.161322
    7        3.886222
    8        4.345191
    9        4.351915
   10        4.881599
   11       15.184176
   12       15.201759
 
  0.4166667E+00  0.3333333E+00  0.1250000E+00  0.6944444E-02
    1       -9.489800
    2       -9.367921
    3       -7.603296
    4       -7.521220
    5       -5.294961
    6       -5.231054
    7        2.615855
    8        3.375513
    9        5.483261
   10        5.888307
   11       15.306025
   12       15.551334
 
  0.5000000E+00  0.3333333E+00  0.1250000E+00  0.6944444E-02
    1      -10.776287
    2      -10.629007
    3       -7.067828
    4       -6.968937
    5       -3.674774
    6       -3.614821
    7        1.217114
    8        2.224642
    9        6.617413
   10        7.181179
   11       14.015471
   12       14.255800
 
 -0.4166667E+00  0.3333333E+00  0.1250000E+00  0.6944444E-02
    1      -11.846973
    2      -11.684205
    3       -6.296149
    4       -6.198389
    5       -2.189542
    6       -2.146796
    7        0.028398
    8        1.202504
    9        7.760800
   10        8.446158
   11       12.499837
   12       12.670698
 
 -0.3333333E+00  0.3333333E+00  0.1250000E+00  0.3472222E-02
    1      -12.635014
    2      -12.461845
    3       -5.292621
    4       -5.203226
    5       -1.392484
    6       -1.359070
    7       -0.863935
    8        0.413042
    9        8.955872
   10        9.628664
   11       11.680786
   12       12.022217
 
  0.4166667E+00  0.4166667E+00  0.1250000E+00  0.3472222E-02
    1       -9.512465
    2       -9.440939
    3       -8.470206
    4       -8.420033
    5       -3.860654
    6       -3.797758
    7        2.306483
    8        2.807358
    9        5.759308
   10        6.015328
   11       14.126429
   12       14.529105
 
  0.5000000E+00  0.4166667E+00  0.1250000E+00  0.6944444E-02
    1      -10.355956
    2      -10.222207
    3       -8.240102
    4       -8.131774
    5       -2.518191
    6       -2.473679
    7        1.501360
    8        2.256413
    9        6.079088
   10        6.680437
   11       12.375412
   12       12.667012
 
 -0.4166667E+00  0.4166667E+00  0.1250000E+00  0.3472222E-02
    1      -11.230703
    2      -11.077185
    3       -7.401718
    4       -7.292183
    5       -1.865224
    6       -1.830374
    7        0.657741
    8        1.682843
    9        6.802780
   10        7.554149
   11       11.731056
   12       11.990409
 
  0.5000000E+00  0.5000000E+00  0.1250000E+00  0.1736111E-02
    1       -9.936883
    2       -9.862128
    3       -8.872599
    4       -8.815560
    5       -2.027506
    6       -1.992185
    7        1.707075
    8        2.217918
    9        5.866830
   10        6.398521
   11       11.643317
   12       11.919891
 
  0.0000000E+00  0.0000000E+00  0.2500000E+00  0.1736111E-02
    1      -15.210764
    2      -15.052564
    3       -3.792749
    4       -2.656366
    5        1.343130
    6        1.351933
    7        1.359718
    8        1.368252
    9        9.032502
   10       12.692153
   11       12.703398
   12       12.721253
 
  0.8333333E-01 -0.1387779E-16  0.2500000E+00  0.6944444E-02
    1      -15.045765
    2      -14.889213
    3       -3.593557
    4       -2.464925
    5        0.700062
    6        0.716444
    7        1.006208
    8        1.019818
    9        9.230734
   10       12.714143
   11       12.795835
   12       13.069165
 
  0.1666667E+00 -0.2775558E-16  0.2500000E+00  0.6944444E-02
    1      -14.552564
    2      -14.400930
    3       -3.000586
    4       -1.896590
    5       -0.947304
    6       -0.915243
    7        0.210126
    8        0.229739
    9        9.824826
   10       12.632268
   11       12.763582
   12       13.500675
 
  0.2500000E+00 -0.2775558E-16  0.2500000E+00  0.6944444E-02
    1      -13.737038
    2      -13.593469
    3       -3.056947
    4       -3.006740
    5       -2.030498
    6       -0.972953
    7       -0.671846
    8       -0.648367
    9       10.769427
   10       11.468006
   11       11.765974
   12       12.341816
 
  0.3333333E+00 -0.5551115E-16  0.2500000E+00  0.6944444E-02
    1      -12.611497
    2      -12.478986
    3       -5.271301
    4       -5.203003
    5       -1.406318
    6       -1.380709
    7       -0.726752
    8        0.246865
    9        9.024251
   10        9.540933
   11       11.915488
   12       12.045660
 