32   
4    

1    
  0.0033387780453679  -0.0000012990538961   0.0094261635608676
  -0.2112636900    0.0095215300   -0.1326417400
   0.0321162800    0.0086377800   -0.0037480900
  -0.0031805100   -0.0117763900   -0.0036756700
  -0.0032897500    0.0291433600   -0.0039071000
  -0.0187478600    0.0079311100    0.0034718900
  -0.0187250300    0.0079330600    0.0034872900
  -0.0187348900    0.0079273400    0.0034872900
  -0.0187324800    0.0079366900    0.0034876000
   0.0156722000   -0.0110381000   -0.0035280100
   0.0155338700   -0.0111173100   -0.0035725700
   0.0156707500   -0.0109574300   -0.0035477800
   0.0155353500   -0.0110501400   -0.0032367800
   0.0148745200   -0.0061303600   -0.0036138800
   0.0149871400   -0.0061996800   -0.0035723700
   0.0149869900   -0.0062685900   -0.0035934800
   0.0148525500   -0.0062048800   -0.0031316700
   0.0026193600   -0.0075200300    0.0118722500
   0.0290510200   -0.0082083200    0.0475251100
   0.0732242200    0.0178849500    0.0479014200
   0.0732946700   -0.0330827800    0.0470729000
   0.0170167800   -0.0070746600   -0.0004866300
   0.0170170200   -0.0070754900   -0.0004774900
   0.0170197500   -0.0070743800   -0.0004793400
   0.0170172600   -0.0070767400   -0.0004726300
  -0.0145485600    0.0101968100    0.0007942500
  -0.0141393200    0.0102701100    0.0008088700
  -0.0144080700    0.0098909900    0.0008126800
  -0.0142729900    0.0101163200    0.0002887500
  -0.0124606000    0.0049902200    0.0008096100
  -0.0127542800    0.0050699100    0.0007829100
  -0.0126800500    0.0052870900    0.0007855800
  -0.0125516300    0.0051180000    0.0002968300

1    
 -0.0033387780453679   0.0000012990538961  -0.0094261635608676
   0.1829260400    0.0087739800    0.1328034400
  -0.0604624300    0.0079076600    0.0039348400
  -0.0250588500    0.0283501800    0.0040046700
  -0.0251670700   -0.0125677000    0.0039519000
  -0.0107989800    0.0087781400   -0.0033028500
  -0.0108213100    0.0087781900   -0.0033201700
  -0.0108130300    0.0087822700   -0.0033201700
  -0.0108127700    0.0087727600   -0.0033203600
   0.0152923000   -0.0117614400    0.0034104900
   0.0154105000   -0.0116860800    0.0034505500
   0.0152887100   -0.0118272600    0.0034282000
   0.0154155200   -0.0117471800    0.0029683600
   0.0142021500   -0.0057105700    0.0033805900
   0.0140772300   -0.0056435400    0.0033342100
   0.0140825200   -0.0055574500    0.0033587300
   0.0141976000   -0.0056166600    0.0030378400
   0.0222102100   -0.0070729800   -0.0118992400
  -0.0042252600   -0.0075487000   -0.0475528100
  -0.0486432600   -0.0326668900   -0.0471634700
  -0.0482224100    0.0182992000   -0.0478631600
   0.0088959700   -0.0075725700    0.0004770200
   0.0088958900   -0.0075732300    0.0004681200
   0.0088949300   -0.0075733300    0.0004663700
   0.0088937200   -0.0075712700    0.0004662900
  -0.0139978600    0.0107478000   -0.0007594500
  -0.0142993300    0.0106765700   -0.0007826500
  -0.0140844000    0.0109621100   -0.0007798500
  -0.0142173000    0.0107986800   -0.0002724500
  -0.0119595800    0.0046708500   -0.0008143500
  -0.0115699200    0.0045950300   -0.0007616500
  -0.0116990400    0.0042853600   -0.0007580900
  -0.0118305100    0.0045180800   -0.0002709100

17   
  0.0033387780453679  -0.0000012990538961   0.0094261635608676
  -0.0254256800    0.0081885500    0.0092238400
   0.0010112400    0.0086705800    0.0448786600
   0.0454209800    0.0337648800    0.0444916700
   0.0450183400   -0.0171921400    0.0451820700
  -0.0103645700    0.0088475500   -0.0031472600
  -0.0103645500    0.0088483800   -0.0031381400
  -0.0103632100    0.0088489000   -0.0031431800
  -0.0103626300    0.0088464000   -0.0031298800
   0.0166237400   -0.0126647400    0.0034201400
   0.0167156600   -0.0126260900    0.0035200700
   0.0166405700   -0.0126713900    0.0034701900
   0.0167329100   -0.0126498200    0.0029616200
   0.0136800000   -0.0051573500    0.0034995100
   0.0136015500   -0.0050353700    0.0033639600
   0.0135394100   -0.0050819700    0.0034208600
   0.0137063300   -0.0051014700    0.0029258200
  -0.1829453000   -0.0080408100   -0.1354348000
   0.0602990400   -0.0071968900   -0.0071268600
   0.0252918500   -0.0274058500   -0.0071953100
   0.0254025600    0.0130708400   -0.0071528900
   0.0082328900   -0.0075662700    0.0005338100
   0.0082318200   -0.0075657500    0.0004032100
   0.0082332200   -0.0075657500    0.0004032300
   0.0082330500   -0.0075677600    0.0004043500
  -0.0156912000    0.0117047000   -0.0002919800
  -0.0153952900    0.0117056600   -0.0002471100
  -0.0155407600    0.0114631300   -0.0003022000
  -0.0155185000    0.0116108500   -0.0004667900
  -0.0110088000    0.0037906500   -0.0001902800
  -0.0113038000    0.0037920800   -0.0003494500
  -0.0111541200    0.0040441700   -0.0003078100
  -0.0111767700    0.0038920900   -0.0004790800

17   
 -0.0033387780453679   0.0000012990538961  -0.0094261635608676
  -0.0027152100    0.0086120900   -0.0091153600
  -0.0291511900    0.0092920700   -0.0447646200
  -0.0733319500   -0.0167909900   -0.0451396200
  -0.0733797100    0.0341658000   -0.0443211200
  -0.0205887700    0.0080902200    0.0032455000
  -0.0205887900    0.0080903800    0.0032365300
  -0.0205903200    0.0080892300    0.0032311700
  -0.0205911100    0.0080919100    0.0032386600
   0.0173706900   -0.0122456400   -0.0035026000
   0.0172878100   -0.0122760500   -0.0036049000
   0.0173517000   -0.0122281900   -0.0035440800
   0.0172620000   -0.0122540900   -0.0030502600
   0.0148988100   -0.0058992800   -0.0036162600
   0.0149784700   -0.0060441500   -0.0035109600
   0.0150595000   -0.0059869800   -0.0035617200
   0.0148878300   -0.0059701700   -0.0030510900
   0.2074839900   -0.0082893400    0.1353842500
  -0.0357401700   -0.0074126300    0.0071112200
  -0.0008463500    0.0127730300    0.0070404100
  -0.0007404400   -0.0276944100    0.0072817300
   0.0190305200   -0.0072731400   -0.0005364400
   0.0190308400   -0.0072726000   -0.0004036800
   0.0190296900   -0.0072741800   -0.0004037700
   0.0190295300   -0.0072724000   -0.0004045600
  -0.0159208900    0.0112706800    0.0003073600
  -0.0162092800    0.0112761800    0.0002683100
  -0.0160730600    0.0115216100    0.0003103000
  -0.0160936800    0.0113693300    0.0004743500
  -0.0126999000    0.0049861500    0.0001982100
  -0.0123967900    0.0049575300    0.0003775400
  -0.0125271100    0.0047240900    0.0003232200
  -0.0125166500    0.0048739500    0.0005022800
