mesh: [     9,     9,     4 ]
nqpoint: 50     
reciprocal_lattice:
- [   0.40553429,   0.23434576,   0.00000000 ] # a*
- [   0.00018224,   0.46837588,   0.00000000 ] # b*
- [   0.00000000,   0.00000000,   0.14360928 ] # c*
natom:   4      
lattice:
- [     2.466437248995937,    -0.000959642981403,     0.000000000000000 ] # a
- [    -1.234049699648306,     2.135517492938035,     0.000000000000000 ] # b
- [     0.000000000000000,     0.000000000000000,     6.963338265000000 ] # c
points:
- symbol: C  # 1
  coordinates: [  0.999346608899160,  0.000653437440448,  0.250000000000000 ]
  mass: 12.010700
- symbol: C  # 2
  coordinates: [  0.000653437440448,  0.999346608899160,  0.750000000000000 ]
  mass: 12.010700
- symbol: C  # 3
  coordinates: [  0.332584924946424,  0.667415057713967,  0.250000000000000 ]
  mass: 12.010700
- symbol: C  # 4
  coordinates: [  0.667415057713967,  0.332584924946424,  0.750000000000000 ]
  mass: 12.010700
phonon:
- q-position: [    0.0000000,    0.0000000,    0.1250000 ]
  weight: 2    
  band:
  - # 1
    frequency:    -2.2555982016
  - # 2
    frequency:    -0.9971698950
  - # 3
    frequency:    -0.7202996664
  - # 4
    frequency:    -0.3134481304
  - # 5
    frequency:     0.6499388732
  - # 6
    frequency:     1.2372039573
  - # 7
    frequency:    23.7876064209
  - # 8
    frequency:    26.1868093975
  - # 9
    frequency:    40.6201801733
  - # 10
    frequency:    40.7467063889
  - # 11
    frequency:    41.3276242491
  - # 12
    frequency:    41.5123775939

- q-position: [    0.1111111,    0.0000000,    0.1250000 ]
  weight: 8    
  band:
  - # 1
    frequency:     3.6201753370
  - # 2
    frequency:     4.7079739433
  - # 3
    frequency:     6.0037743595
  - # 4
    frequency:     6.1744373922
  - # 5
    frequency:    11.3210446878
  - # 6
    frequency:    11.4866345418
  - # 7
    frequency:    23.3791516304
  - # 8
    frequency:    25.5891867254
  - # 9
    frequency:    40.8245831930
  - # 10
    frequency:    41.3789211384
  - # 11
    frequency:    41.5532534920
  - # 12
    frequency:    41.9749130491

- q-position: [    0.2222222,    0.0000000,    0.1250000 ]
  weight: 8    
  band:
  - # 1
    frequency:     7.4348427120
  - # 2
    frequency:     8.4491132254
  - # 3
    frequency:    11.6555698641
  - # 4
    frequency:    11.7935174529
  - # 5
    frequency:    22.0749251970
  - # 6
    frequency:    22.1934163787
  - # 7
    frequency:    22.2429042739
  - # 8
    frequency:    23.9269997605
  - # 9
    frequency:    41.2358664427
  - # 10
    frequency:    41.7676328671
  - # 11
    frequency:    42.7077130481
  - # 12
    frequency:    43.1294852817

- q-position: [    0.3333333,    0.0000000,    0.1250000 ]
  weight: 8    
  band:
  - # 1
    frequency:    10.8557799926
  - # 2
    frequency:    11.6601369952
  - # 3
    frequency:    16.0436025261
  - # 4
    frequency:    16.1242418804
  - # 5
    frequency:    20.6327242627
  - # 6
    frequency:    21.5813248291
  - # 7
    frequency:    31.1592690942
  - # 8
    frequency:    31.2562560446
  - # 9
    frequency:    41.6214812574
  - # 10
    frequency:    41.9039387884
  - # 11
    frequency:    43.3244325964
  - # 12
    frequency:    43.5611062096

- q-position: [    0.4444444,    0.0000000,    0.1250000 ]
  weight: 8    
  band:
  - # 1
    frequency:    13.5287403086
  - # 2
    frequency:    13.9034666407
  - # 3
    frequency:    18.4991786503
  - # 4
    frequency:    18.5204408156
  - # 5
    frequency:    19.0786009373
  - # 6
    frequency:    19.3184532102
  - # 7
    frequency:    37.9224621510
  - # 8
    frequency:    37.9820713879
  - # 9
    frequency:    41.8324755506
  - # 10
    frequency:    41.9126454261
  - # 11
    frequency:    41.9829158214
  - # 12
    frequency:    42.0755053022

- q-position: [    0.1111111,    0.1111111,    0.1250000 ]
  weight: 4    
  band:
  - # 1
    frequency:     7.1153132112
  - # 2
    frequency:     7.3036344031
  - # 3
    frequency:    10.4351591954
  - # 4
    frequency:    10.6633296897
  - # 5
    frequency:    18.8600306139
  - # 6
    frequency:    18.9780116238
  - # 7
    frequency:    22.5647574155
  - # 8
    frequency:    24.3629384240
  - # 9
    frequency:    41.2949124444
  - # 10
    frequency:    41.9524178804
  - # 11
    frequency:    42.3642723868
  - # 12
    frequency:    42.7594571127

- q-position: [    0.2222222,    0.1111111,    0.1250000 ]
  weight: 8    
  band:
  - # 1
    frequency:    10.2589379120
  - # 2
    frequency:    10.6184152027
  - # 3
    frequency:    15.7270390094
  - # 4
    frequency:    15.9367676067
  - # 5
    frequency:    21.1393810967
  - # 6
    frequency:    22.2731261711
  - # 7
    frequency:    27.1984558705
  - # 8
    frequency:    27.2868285190
  - # 9
    frequency:    41.9250903677
  - # 10
    frequency:    42.3245308540
  - # 11
    frequency:    43.2034771012
  - # 12
    frequency:    43.4617351051

- q-position: [    0.3333333,    0.1111111,    0.1250000 ]
  weight: 8    
  band:
  - # 1
    frequency:    13.0746617307
  - # 2
    frequency:    13.3181351013
  - # 3
    frequency:    19.4524363626
  - # 4
    frequency:    19.5959154096
  - # 5
    frequency:    19.7566042260
  - # 6
    frequency:    19.8534309670
  - # 7
    frequency:    34.3627411615
  - # 8
    frequency:    34.4329465165
  - # 9
    frequency:    42.1013932914
  - # 10
    frequency:    42.2283340115
  - # 11
    frequency:    42.9493728038
  - # 12
    frequency:    43.1213296693

- q-position: [   -0.5555556,    0.1111111,    0.1250000 ]
  weight: 8    
  band:
  - # 1
    frequency:    14.2407485970
  - # 2
    frequency:    14.6320431418
  - # 3
    frequency:    18.5240006354
  - # 4
    frequency:    18.5779844364
  - # 5
    frequency:    21.1754760666
  - # 6
    frequency:    21.3408548025
  - # 7
    frequency:    39.4159423229
  - # 8
    frequency:    39.4401877489
  - # 9
    frequency:    39.8329173754
  - # 10
    frequency:    39.8957717086
  - # 11
    frequency:    42.6890122137
  - # 12
    frequency:    42.7184623638

- q-position: [   -0.4444444,    0.1111111,    0.1250000 ]
  weight: 8    
  band:
  - # 1
    frequency:    12.2484280682
  - # 2
    frequency:    13.1751200137
  - # 3
    frequency:    19.6647958746
  - # 4
    frequency:    20.1129736243
  - # 5
    frequency:    20.2702555015
  - # 6
    frequency:    20.3085332125
  - # 7
    frequency:    34.6789059430
  - # 8
    frequency:    34.7809538665
  - # 9
    frequency:    41.8113991845
  - # 10
    frequency:    41.9640869031
  - # 11
    frequency:    42.7169828650
  - # 12
    frequency:    42.8466809470

- q-position: [   -0.3333333,    0.1111111,    0.1250000 ]
  weight: 8    
  band:
  - # 1
    frequency:     9.1496879403
  - # 2
    frequency:    10.4814024581
  - # 3
    frequency:    16.5593200076
  - # 4
    frequency:    16.7907725431
  - # 5
    frequency:    21.3113870413
  - # 6
    frequency:    22.6660988766
  - # 7
    frequency:    27.5397467929
  - # 8
    frequency:    27.6796328980
  - # 9
    frequency:    41.6326587617
  - # 10
    frequency:    41.9755035037
  - # 11
    frequency:    42.9114946153
  - # 12
    frequency:    43.2483408115

- q-position: [   -0.2222222,    0.1111111,    0.1250000 ]
  weight: 8    
  band:
  - # 1
    frequency:     5.6396365599
  - # 2
    frequency:     7.4186182424
  - # 3
    frequency:    11.1636502776
  - # 4
    frequency:    11.4491736302
  - # 5
    frequency:    19.2980249244
  - # 6
    frequency:    19.4819634105
  - # 7
    frequency:    22.6666019688
  - # 8
    frequency:    24.6283504663
  - # 9
    frequency:    41.1461839255
  - # 10
    frequency:    41.6486995172
  - # 11
    frequency:    42.0721786301
  - # 12
    frequency:    42.6539077774

- q-position: [   -0.1111111,    0.1111111,    0.1250000 ]
  weight: 4    
  band:
  - # 1
    frequency:     2.4465355271
  - # 2
    frequency:     4.8097840479
  - # 3
    frequency:     5.9055663060
  - # 4
    frequency:     6.3638444182
  - # 5
    frequency:    11.7981354077
  - # 6
    frequency:    12.0235223818
  - # 7
    frequency:    23.4124078312
  - # 8
    frequency:    25.6825082231
  - # 9
    frequency:    40.8831294594
  - # 10
    frequency:    41.1588611460
  - # 11
    frequency:    41.4200472876
  - # 12
    frequency:    41.9598463864

- q-position: [    0.2222222,    0.2222222,    0.1250000 ]
  weight: 4    
  band:
  - # 1
    frequency:    12.9448419454
  - # 2
    frequency:    13.0738615398
  - # 3
    frequency:    19.5835782452
  - # 4
    frequency:    20.0438141334
  - # 5
    frequency:    21.4964198382
  - # 6
    frequency:    21.7387208591
  - # 7
    frequency:    31.9380717607
  - # 8
    frequency:    32.0018187104
  - # 9
    frequency:    42.5661308765
  - # 10
    frequency:    42.6661635090
  - # 11
    frequency:    42.9526670591
  - # 12
    frequency:    43.1701122395

- q-position: [    0.3333333,    0.2222222,    0.1250000 ]
  weight: 8    
  band:
  - # 1
    frequency:    14.9638261210
  - # 2
    frequency:    15.1638547861
  - # 3
    frequency:    17.9128580821
  - # 4
    frequency:    18.0276216840
  - # 5
    frequency:    25.4949549892
  - # 6
    frequency:    25.6945047620
  - # 7
    frequency:    36.1709813812
  - # 8
    frequency:    36.2129976408
  - # 9
    frequency:    40.2939998127
  - # 10
    frequency:    40.3093131717
  - # 11
    frequency:    43.6253686304
  - # 12
    frequency:    43.6929930790

- q-position: [   -0.5555556,    0.2222222,    0.1250000 ]
  weight: 8    
  band:
  - # 1
    frequency:    14.1638405596
  - # 2
    frequency:    14.8957901084
  - # 3
    frequency:    18.3215319803
  - # 4
    frequency:    18.4905839569
  - # 5
    frequency:    25.9153618184
  - # 6
    frequency:    26.1060808109
  - # 7
    frequency:    36.4695610707
  - # 8
    frequency:    36.5523455306
  - # 9
    frequency:    39.8632901085
  - # 10
    frequency:    39.9008786515
  - # 11
    frequency:    43.5033284465
  - # 12
    frequency:    43.5442928967

- q-position: [   -0.4444444,    0.2222222,    0.1250000 ]
  weight: 8    
  band:
  - # 1
    frequency:    11.6830603635
  - # 2
    frequency:    12.7624307270
  - # 3
    frequency:    19.8854585879
  - # 4
    frequency:    20.7330899512
  - # 5
    frequency:    22.3961452020
  - # 6
    frequency:    22.5805642243
  - # 7
    frequency:    32.3202087061
  - # 8
    frequency:    32.4864791160
  - # 9
    frequency:    42.0405041867
  - # 10
    frequency:    42.2321234158
  - # 11
    frequency:    42.6629172734
  - # 12
    frequency:    42.8156957820

- q-position: [   -0.3333333,    0.2222222,    0.1250000 ]
  weight: 8    
  band:
  - # 1
    frequency:     8.9065317284
  - # 2
    frequency:    10.3500363741
  - # 3
    frequency:    16.4591407244
  - # 4
    frequency:    16.6656105272
  - # 5
    frequency:    21.3308731107
  - # 6
    frequency:    22.8149981006
  - # 7
    frequency:    27.8063103438
  - # 8
    frequency:    28.0209128316
  - # 9
    frequency:    41.7059692322
  - # 10
    frequency:    42.0123622156
  - # 11
    frequency:    42.6640709324
  - # 12
    frequency:    43.0580886946

- q-position: [   -0.2222222,    0.2222222,    0.1250000 ]
  weight: 4    
  band:
  - # 1
    frequency:     6.4061451210
  - # 2
    frequency:     8.2466662749
  - # 3
    frequency:    11.7606534409
  - # 4
    frequency:    12.0347754062
  - # 5
    frequency:    22.3319268367
  - # 6
    frequency:    22.6885310589
  - # 7
    frequency:    22.9253745017
  - # 8
    frequency:    24.2237202174
  - # 9
    frequency:    41.2144413791
  - # 10
    frequency:    41.6324286444
  - # 11
    frequency:    42.2890514508
  - # 12
    frequency:    42.8619516009

- q-position: [   -0.6666667,    0.3333333,    0.1250000 ]
  weight: 4    
  band:
  - # 1
    frequency:    16.0034719518
  - # 2
    frequency:    16.2857174153
  - # 3
    frequency:    16.8201938471
  - # 4
    frequency:    16.9550560406
  - # 5
    frequency:    29.3202029536
  - # 6
    frequency:    29.4367628534
  - # 7
    frequency:    37.4048262050
  - # 8
    frequency:    37.4274655703
  - # 9
    frequency:    37.4533478418
  - # 10
    frequency:    37.5313413713
  - # 11
    frequency:    44.0678677508
  - # 12
    frequency:    44.0748173370

- q-position: [   -0.5555556,    0.3333333,    0.1250000 ]
  weight: 8    
  band:
  - # 1
    frequency:    14.2345227813
  - # 2
    frequency:    14.7936665865
  - # 3
    frequency:    18.3006801299
  - # 4
    frequency:    18.5535305839
  - # 5
    frequency:    26.0862061502
  - # 6
    frequency:    26.1664904502
  - # 7
    frequency:    36.3162675593
  - # 8
    frequency:    36.4454724703
  - # 9
    frequency:    39.9006606934
  - # 10
    frequency:    39.9419775946
  - # 11
    frequency:    43.4934020568
  - # 12
    frequency:    43.5340124737

- q-position: [   -0.4444444,    0.3333333,    0.1250000 ]
  weight: 8    
  band:
  - # 1
    frequency:    12.2538784602
  - # 2
    frequency:    13.0343761370
  - # 3
    frequency:    19.6156369181
  - # 4
    frequency:    20.0767681091
  - # 5
    frequency:    20.1810030799
  - # 6
    frequency:    20.4308310179
  - # 7
    frequency:    34.7921061788
  - # 8
    frequency:    34.9705614589
  - # 9
    frequency:    41.8389852366
  - # 10
    frequency:    42.0027302106
  - # 11
    frequency:    42.5696710692
  - # 12
    frequency:    42.7061407262

- q-position: [   -0.3333333,    0.3333333,    0.1250000 ]
  weight: 4    
  band:
  - # 1
    frequency:    10.2379109200
  - # 2
    frequency:    11.3695202805
  - # 3
    frequency:    16.1179737517
  - # 4
    frequency:    16.2803404066
  - # 5
    frequency:    20.7057623856
  - # 6
    frequency:    21.9924421708
  - # 7
    frequency:    31.6439839793
  - # 8
    frequency:    31.8564847329
  - # 9
    frequency:    41.5697316496
  - # 10
    frequency:    41.8260460881
  - # 11
    frequency:    42.8857128714
  - # 12
    frequency:    43.1864972600

- q-position: [   -0.5555556,    0.4444444,    0.1250000 ]
  weight: 4    
  band:
  - # 1
    frequency:    14.2413062432
  - # 2
    frequency:    14.4986266306
  - # 3
    frequency:    18.5906945208
  - # 4
    frequency:    18.6524089413
  - # 5
    frequency:    21.3741938517
  - # 6
    frequency:    21.3944422324
  - # 7
    frequency:    39.4250538537
  - # 8
    frequency:    39.4677268949
  - # 9
    frequency:    39.7613198432
  - # 10
    frequency:    39.8137829523
  - # 11
    frequency:    42.6545202534
  - # 12
    frequency:    42.6649361614

- q-position: [   -0.4444444,    0.4444444,    0.1250000 ]
  weight: 4    
  band:
  - # 1
    frequency:    13.4358763127
  - # 2
    frequency:    13.8022858537
  - # 3
    frequency:    18.4966739831
  - # 4
    frequency:    18.5505098350
  - # 5
    frequency:    19.0447232644
  - # 6
    frequency:    19.5285278075
  - # 7
    frequency:    38.0812801089
  - # 8
    frequency:    38.2018070027
  - # 9
    frequency:    41.7943469682
  - # 10
    frequency:    41.8117072028
  - # 11
    frequency:    41.8622071065
  - # 12
    frequency:    41.8966405866

- q-position: [    0.0000000,    0.0000000,    0.3750000 ]
  weight: 2    
  band:
  - # 1
    frequency:    -2.3976750788
  - # 2
    frequency:    -2.3830480741
  - # 3
    frequency:    -2.2377692954
  - # 4
    frequency:    -1.9434521038
  - # 5
    frequency:     1.7064066696
  - # 6
    frequency:     2.1698228906
  - # 7
    frequency:    25.3827168683
  - # 8
    frequency:    26.3682016021
  - # 9
    frequency:    36.3209795376
  - # 10
    frequency:    36.5929222084
  - # 11
    frequency:    36.9476979439
  - # 12
    frequency:    37.3521939458

- q-position: [    0.1111111,    0.0000000,    0.3750000 ]
  weight: 8    
  band:
  - # 1
    frequency:     4.2098742444
  - # 2
    frequency:     4.6688577039
  - # 3
    frequency:     5.9030936916
  - # 4
    frequency:     5.9631383718
  - # 5
    frequency:    11.1896137982
  - # 6
    frequency:    11.2616756308
  - # 7
    frequency:    24.8391553189
  - # 8
    frequency:    25.7472301848
  - # 9
    frequency:    37.3186018251
  - # 10
    frequency:    37.5856925995
  - # 11
    frequency:    37.8725474060
  - # 12
    frequency:    38.2015478390

- q-position: [    0.2222222,    0.0000000,    0.3750000 ]
  weight: 8    
  band:
  - # 1
    frequency:     7.7712678766
  - # 2
    frequency:     8.1914381529
  - # 3
    frequency:    11.7884113564
  - # 4
    frequency:    11.8356482928
  - # 5
    frequency:    22.0705902399
  - # 6
    frequency:    22.1214828390
  - # 7
    frequency:    23.3329701516
  - # 8
    frequency:    24.0257233991
  - # 9
    frequency:    39.0006246053
  - # 10
    frequency:    39.2217232253
  - # 11
    frequency:    40.4273281748
  - # 12
    frequency:    40.6201920738

- q-position: [    0.3333333,    0.0000000,    0.3750000 ]
  weight: 8    
  band:
  - # 1
    frequency:    11.0514422638
  - # 2
    frequency:    11.3815954045
  - # 3
    frequency:    16.1588080381
  - # 4
    frequency:    16.1868926483
  - # 5
    frequency:    21.2223161595
  - # 6
    frequency:    21.6135682220
  - # 7
    frequency:    31.3113948000
  - # 8
    frequency:    31.3521991330
  - # 9
    frequency:    40.6897986671
  - # 10
    frequency:    40.8057683024
  - # 11
    frequency:    42.2943185428
  - # 12
    frequency:    42.3963907934

- q-position: [    0.4444444,    0.0000000,    0.3750000 ]
  weight: 8    
  band:
  - # 1
    frequency:    13.6249062062
  - # 2
    frequency:    13.7795938921
  - # 3
    frequency:    18.5199939915
  - # 4
    frequency:    18.5283909464
  - # 5
    frequency:    19.2050308478
  - # 6
    frequency:    19.3049303061
  - # 7
    frequency:    38.0636413484
  - # 8
    frequency:    38.0882846235
  - # 9
    frequency:    41.7343280644
  - # 10
    frequency:    41.7653080501
  - # 11
    frequency:    41.7701122940
  - # 12
    frequency:    41.8083361112

- q-position: [    0.1111111,    0.1111111,    0.3750000 ]
  weight: 4    
  band:
  - # 1
    frequency:     7.2656905510
  - # 2
    frequency:     7.3908365133
  - # 3
    frequency:    10.1674881496
  - # 4
    frequency:    10.2709132379
  - # 5
    frequency:    18.7185005444
  - # 6
    frequency:    18.7725679556
  - # 7
    frequency:    23.7400836609
  - # 8
    frequency:    24.4796663519
  - # 9
    frequency:    38.9760344776
  - # 10
    frequency:    39.2619987367
  - # 11
    frequency:    39.6002711719
  - # 12
    frequency:    39.7757976821

- q-position: [    0.2222222,    0.1111111,    0.3750000 ]
  weight: 8    
  band:
  - # 1
    frequency:    10.3934242288
  - # 2
    frequency:    10.5452856238
  - # 3
    frequency:    15.6281783571
  - # 4
    frequency:    15.7160132901
  - # 5
    frequency:    21.8547535261
  - # 6
    frequency:    22.3216482420
  - # 7
    frequency:    27.1044046118
  - # 8
    frequency:    27.1443914319
  - # 9
    frequency:    40.7600258991
  - # 10
    frequency:    40.9240560674
  - # 11
    frequency:    41.8350156537
  - # 12
    frequency:    41.9491744284

- q-position: [    0.3333333,    0.1111111,    0.3750000 ]
  weight: 8    
  band:
  - # 1
    frequency:    13.1496971176
  - # 2
    frequency:    13.2498002034
  - # 3
    frequency:    19.5768856221
  - # 4
    frequency:    19.6442290550
  - # 5
    frequency:    19.6780489228
  - # 6
    frequency:    19.8408293830
  - # 7
    frequency:    34.3817062786
  - # 8
    frequency:    34.4116880209
  - # 9
    frequency:    41.8340389291
  - # 10
    frequency:    41.8839809820
  - # 11
    frequency:    42.6898272429
  - # 12
    frequency:    42.7622469182

- q-position: [   -0.5555556,    0.1111111,    0.3750000 ]
  weight: 8    
  band:
  - # 1
    frequency:    14.3355171910
  - # 2
    frequency:    14.4989823284
  - # 3
    frequency:    18.5286225659
  - # 4
    frequency:    18.5523144866
  - # 5
    frequency:    21.3222557205
  - # 6
    frequency:    21.3904511321
  - # 7
    frequency:    39.3636456721
  - # 8
    frequency:    39.3734435134
  - # 9
    frequency:    40.0325072731
  - # 10
    frequency:    40.0569330212
  - # 11
    frequency:    42.7528683690
  - # 12
    frequency:    42.7652462653

- q-position: [   -0.4444444,    0.1111111,    0.3750000 ]
  weight: 8    
  band:
  - # 1
    frequency:    12.3967216339
  - # 2
    frequency:    12.7805039186
  - # 3
    frequency:    20.0291462392
  - # 4
    frequency:    20.2800881207
  - # 5
    frequency:    20.5629734050
  - # 6
    frequency:    20.6426404451
  - # 7
    frequency:    34.9790409192
  - # 8
    frequency:    35.0195385755
  - # 9
    frequency:    41.3630107296
  - # 10
    frequency:    41.4276448950
  - # 11
    frequency:    42.1842133416
  - # 12
    frequency:    42.2370073783

- q-position: [   -0.3333333,    0.1111111,    0.3750000 ]
  weight: 8    
  band:
  - # 1
    frequency:     9.4255558600
  - # 2
    frequency:     9.9801487778
  - # 3
    frequency:    17.2486085726
  - # 4
    frequency:    17.3388370332
  - # 5
    frequency:    22.1608428450
  - # 6
    frequency:    22.7180157421
  - # 7
    frequency:    27.7050352696
  - # 8
    frequency:    27.7614822718
  - # 9
    frequency:    40.1004852634
  - # 10
    frequency:    40.2435012662
  - # 11
    frequency:    41.4142383371
  - # 12
    frequency:    41.5597538601

- q-position: [   -0.2222222,    0.1111111,    0.3750000 ]
  weight: 8    
  band:
  - # 1
    frequency:     6.1708672536
  - # 2
    frequency:     6.9111453430
  - # 3
    frequency:    11.6746705170
  - # 4
    frequency:    11.7836988838
  - # 5
    frequency:    19.4829489637
  - # 6
    frequency:    19.5552774920
  - # 7
    frequency:    23.9342071904
  - # 8
    frequency:    24.7400486605
  - # 9
    frequency:    38.2794825746
  - # 10
    frequency:    38.4950003735
  - # 11
    frequency:    39.4674757544
  - # 12
    frequency:    39.7296684980

- q-position: [   -0.1111111,    0.1111111,    0.3750000 ]
  weight: 4    
  band:
  - # 1
    frequency:     3.5007765558
  - # 2
    frequency:     4.4182881727
  - # 3
    frequency:     6.0036363283
  - # 4
    frequency:     6.1970105799
  - # 5
    frequency:    12.0517314286
  - # 6
    frequency:    12.1379288354
  - # 7
    frequency:    24.9052054613
  - # 8
    frequency:    25.8375280534
  - # 9
    frequency:    37.0083087590
  - # 10
    frequency:    37.2549051771
  - # 11
    frequency:    37.8731897444
  - # 12
    frequency:    38.2322269917

- q-position: [    0.2222222,    0.2222222,    0.3750000 ]
  weight: 4    
  band:
  - # 1
    frequency:    12.9945296836
  - # 2
    frequency:    13.0481178277
  - # 3
    frequency:    19.8397741342
  - # 4
    frequency:    20.0293758981
  - # 5
    frequency:    21.5124934551
  - # 6
    frequency:    21.6132235914
  - # 7
    frequency:    31.8703446277
  - # 8
    frequency:    31.8979135981
  - # 9
    frequency:    42.1942856374
  - # 10
    frequency:    42.2368406818
  - # 11
    frequency:    42.7072274855
  - # 12
    frequency:    42.7977963907

- q-position: [    0.3333333,    0.2222222,    0.3750000 ]
  weight: 8    
  band:
  - # 1
    frequency:    15.0237999724
  - # 2
    frequency:    15.1099776286
  - # 3
    frequency:    17.8683099546
  - # 4
    frequency:    17.9141607568
  - # 5
    frequency:    25.6353449042
  - # 6
    frequency:    25.7177786736
  - # 7
    frequency:    36.2444798668
  - # 8
    frequency:    36.2611041191
  - # 9
    frequency:    40.5636507638
  - # 10
    frequency:    40.5692539979
  - # 11
    frequency:    43.8064856937
  - # 12
    frequency:    43.8348681811

- q-position: [   -0.5555556,    0.2222222,    0.3750000 ]
  weight: 8    
  band:
  - # 1
    frequency:    14.2264134624
  - # 2
    frequency:    14.5341202906
  - # 3
    frequency:    18.4159983575
  - # 4
    frequency:    18.4878491247
  - # 5
    frequency:    26.4076701191
  - # 6
    frequency:    26.4863316669
  - # 7
    frequency:    36.8298475216
  - # 8
    frequency:    36.8601764149
  - # 9
    frequency:    39.7708886823
  - # 10
    frequency:    39.7876753614
  - # 11
    frequency:    43.5716313729
  - # 12
    frequency:    43.5894315868

- q-position: [   -0.4444444,    0.2222222,    0.3750000 ]
  weight: 8    
  band:
  - # 1
    frequency:    11.8035169759
  - # 2
    frequency:    12.2573163723
  - # 3
    frequency:    20.3832315788
  - # 4
    frequency:    20.7313493074
  - # 5
    frequency:    23.1776563537
  - # 6
    frequency:    23.2505015785
  - # 7
    frequency:    32.5622277984
  - # 8
    frequency:    32.6298755134
  - # 9
    frequency:    41.3391216966
  - # 10
    frequency:    41.4194977468
  - # 11
    frequency:    42.1088136711
  - # 12
    frequency:    42.1727293650

- q-position: [   -0.3333333,    0.2222222,    0.3750000 ]
  weight: 8    
  band:
  - # 1
    frequency:     9.1579211170
  - # 2
    frequency:     9.7705520101
  - # 3
    frequency:    16.9474222643
  - # 4
    frequency:    17.0269485417
  - # 5
    frequency:    22.2410161711
  - # 6
    frequency:    22.8502622345
  - # 7
    frequency:    28.2668180765
  - # 8
    frequency:    28.3536665219
  - # 9
    frequency:    40.1485371850
  - # 10
    frequency:    40.2789125890
  - # 11
    frequency:    41.0857552753
  - # 12
    frequency:    41.2533942173

- q-position: [   -0.2222222,    0.2222222,    0.3750000 ]
  weight: 4    
  band:
  - # 1
    frequency:     6.8525857202
  - # 2
    frequency:     7.6317179998
  - # 3
    frequency:    11.9256547686
  - # 4
    frequency:    12.0372608868
  - # 5
    frequency:    23.2870836369
  - # 6
    frequency:    23.3820814422
  - # 7
    frequency:    23.5361398509
  - # 8
    frequency:    24.3091788938
  - # 9
    frequency:    38.6952589939
  - # 10
    frequency:    38.8790384263
  - # 11
    frequency:    39.9436175738
  - # 12
    frequency:    40.1938916823

- q-position: [   -0.6666667,    0.3333333,    0.3750000 ]
  weight: 4    
  band:
  - # 1
    frequency:    15.9529598993
  - # 2
    frequency:    16.1116314700
  - # 3
    frequency:    16.8246287748
  - # 4
    frequency:    16.8416754093
  - # 5
    frequency:    29.6868945877
  - # 6
    frequency:    29.7363679313
  - # 7
    frequency:    37.6288473805
  - # 8
    frequency:    37.6363464908
  - # 9
    frequency:    37.8223229563
  - # 10
    frequency:    37.8512829581
  - # 11
    frequency:    44.3112840177
  - # 12
    frequency:    44.3140403365

- q-position: [   -0.5555556,    0.3333333,    0.3750000 ]
  weight: 8    
  band:
  - # 1
    frequency:    14.2447448403
  - # 2
    frequency:    14.4821923859
  - # 3
    frequency:    18.4214864555
  - # 4
    frequency:    18.5238791951
  - # 5
    frequency:    26.6850307865
  - # 6
    frequency:    26.7172536064
  - # 7
    frequency:    36.5463156218
  - # 8
    frequency:    36.5981415457
  - # 9
    frequency:    39.8543446319
  - # 10
    frequency:    39.8713544667
  - # 11
    frequency:    43.5562436556
  - # 12
    frequency:    43.5740926387

- q-position: [   -0.4444444,    0.3333333,    0.3750000 ]
  weight: 8    
  band:
  - # 1
    frequency:    12.3286759346
  - # 2
    frequency:    12.6617790211
  - # 3
    frequency:    20.0588075683
  - # 4
    frequency:    20.3925351860
  - # 5
    frequency:    20.4077223903
  - # 6
    frequency:    20.4485635139
  - # 7
    frequency:    35.2223758452
  - # 8
    frequency:    35.2953591081
  - # 9
    frequency:    41.3540359413
  - # 10
    frequency:    41.4229264834
  - # 11
    frequency:    42.0308380512
  - # 12
    frequency:    42.0870935466

- q-position: [   -0.3333333,    0.3333333,    0.3750000 ]
  weight: 4    
  band:
  - # 1
    frequency:    10.3952637634
  - # 2
    frequency:    10.8804635312
  - # 3
    frequency:    16.2308522358
  - # 4
    frequency:    16.2969632779
  - # 5
    frequency:    21.4597000687
  - # 6
    frequency:    21.9875937561
  - # 7
    frequency:    32.2813972661
  - # 8
    frequency:    32.3667812136
  - # 9
    frequency:    40.5331535219
  - # 10
    frequency:    40.6414451516
  - # 11
    frequency:    41.6180510989
  - # 12
    frequency:    41.7458895084

- q-position: [   -0.5555556,    0.4444444,    0.3750000 ]
  weight: 4    
  band:
  - # 1
    frequency:    14.2793647487
  - # 2
    frequency:    14.3868289914
  - # 3
    frequency:    18.6113887930
  - # 4
    frequency:    18.6374133549
  - # 5
    frequency:    21.6118891479
  - # 6
    frequency:    21.6202014919
  - # 7
    frequency:    39.4399024205
  - # 8
    frequency:    39.4569640592
  - # 9
    frequency:    39.8533134407
  - # 10
    frequency:    39.8739839879
  - # 11
    frequency:    42.6860958557
  - # 12
    frequency:    42.6907999741

- q-position: [   -0.4444444,    0.4444444,    0.3750000 ]
  weight: 4    
  band:
  - # 1
    frequency:    13.4937196082
  - # 2
    frequency:    13.6507811407
  - # 3
    frequency:    18.5222762799
  - # 4
    frequency:    18.5444529053
  - # 5
    frequency:    19.2677997803
  - # 6
    frequency:    19.4660467885
  - # 7
    frequency:    38.3959905214
  - # 8
    frequency:    38.4454343080
  - # 9
    frequency:    41.4424991175
  - # 10
    frequency:    41.4705979345
  - # 11
    frequency:    41.7025151654
  - # 12
    frequency:    41.7377494566

