# Thermal properties / unit cell (natom)

unit:
  temperature:   K
  free_energy:   kJ/mol
  entropy:       J/K/mol
  heat_capacity: J/K/mol

natom:     4
num_modes: 3888
num_integrated_modes: 3872

zero_point_energy:      65.0424793
high_T_entropy:        230.2113974

thermal_properties:
- temperature:         0.0000000
  free_energy:        65.0424793
  entropy:             0.0000000
  heat_capacity:       0.0000000
  energy:             65.0424793

- temperature:        10.0000000
  free_energy:        65.0424546
  entropy:             0.0108224
  heat_capacity:       0.0301934
  energy:             65.0425628

- temperature:        20.0000000
  free_energy:        65.0421527
  entropy:             0.0533165
  heat_capacity:       0.1068819
  energy:             65.0432190

- temperature:        30.0000000
  free_energy:        65.0413116
  entropy:             0.1194712
  heat_capacity:       0.2430348
  energy:             65.0448958

- temperature:        40.0000000
  free_energy:        65.0396488
  entropy:             0.2199308
  heat_capacity:       0.4876153
  energy:             65.0484460

- temperature:        50.0000000
  free_energy:        65.0367595
  entropy:             0.3662516
  heat_capacity:       0.8588701
  energy:             65.0550721

- temperature:        60.0000000
  free_energy:        65.0321487
  entropy:             0.5649863
  heat_capacity:       1.3575968
  energy:             65.0660479

- temperature:        70.0000000
  free_energy:        65.0252729
  entropy:             0.8197407
  heat_capacity:       1.9855854
  energy:             65.0826548

- temperature:        80.0000000
  free_energy:        65.0155588
  entropy:             1.1330066
  heat_capacity:       2.7453578
  energy:             65.1061993

- temperature:        90.0000000
  free_energy:        65.0024119
  entropy:             1.5065206
  heat_capacity:       3.6359966
  energy:             65.1379987

- temperature:       100.0000000
  free_energy:        64.9852247
  entropy:             1.9411198
  heat_capacity:       4.6517018
  energy:             65.1793366

- temperature:       110.0000000
  free_energy:        64.9633863
  entropy:             2.4366368
  heat_capacity:       5.7823850
  energy:             65.2314164

- temperature:       120.0000000
  free_energy:        64.9362926
  entropy:             2.9919294
  heat_capacity:       7.0149416
  energy:             65.2953241

- temperature:       130.0000000
  free_energy:        64.9033551
  entropy:             3.6050039
  heat_capacity:       8.3345903
  energy:             65.3720056

- temperature:       140.0000000
  free_energy:        64.8640088
  entropy:             4.2731898
  heat_capacity:       9.7260772
  energy:             65.4622553

- temperature:       150.0000000
  free_energy:        64.8177180
  entropy:             4.9933282
  heat_capacity:      11.1746562
  energy:             65.5667173

- temperature:       160.0000000
  free_energy:        64.7639805
  entropy:             5.7619557
  heat_capacity:      12.6667952
  energy:             65.6858935

- temperature:       170.0000000
  free_energy:        64.7023293
  entropy:             6.5754659
  heat_capacity:      14.1906016
  energy:             65.8201585

- temperature:       180.0000000
  free_energy:        64.6323337
  entropy:             7.4302420
  heat_capacity:      15.7359930
  energy:             65.9697772

- temperature:       190.0000000
  free_energy:        64.5535987
  entropy:             8.3227568
  heat_capacity:      17.2946720
  energy:             66.1349225

- temperature:       200.0000000
  free_energy:        64.4657640
  entropy:             9.2496429
  heat_capacity:      18.8599677
  energy:             66.3156926

- temperature:       210.0000000
  free_energy:        64.3685019
  entropy:            10.2077350
  heat_capacity:      20.4266043
  energy:             66.5121262

- temperature:       220.0000000
  free_energy:        64.2615151
  entropy:            11.1940915
  heat_capacity:      21.9904438
  energy:             66.7242152

- temperature:       230.0000000
  free_energy:        64.1445349
  entropy:            12.2059999
  heat_capacity:      23.5482380
  energy:             66.9519149

- temperature:       240.0000000
  free_energy:        64.0173183
  entropy:            13.2409706
  heat_capacity:      25.0974066
  energy:             67.1951512

- temperature:       250.0000000
  free_energy:        63.8796462
  entropy:            14.2967240
  heat_capacity:      26.6358543
  energy:             67.4538272

- temperature:       260.0000000
  free_energy:        63.7313215
  entropy:            15.3711738
  heat_capacity:      28.1618270
  energy:             67.7278267

- temperature:       270.0000000
  free_energy:        63.5721668
  entropy:            16.4624084
  heat_capacity:      29.6738045
  energy:             68.0170171

- temperature:       280.0000000
  free_energy:        63.4020232
  entropy:            17.5686726
  heat_capacity:      31.1704259
  energy:             68.3212516

- temperature:       290.0000000
  free_energy:        63.2207486
  entropy:            18.6883503
  heat_capacity:      32.6504401
  energy:             68.6403702

- temperature:       300.0000000
  free_energy:        63.0282165
  entropy:            19.8199487
  heat_capacity:      34.1126767
  energy:             68.9742011

- temperature:       310.0000000
  free_energy:        62.8243146
  entropy:            20.9620847
  heat_capacity:      35.5560310
  energy:             69.3225608

- temperature:       320.0000000
  free_energy:        62.6089440
  entropy:            22.1134729
  heat_capacity:      36.9794588
  energy:             69.6852553

- temperature:       330.0000000
  free_energy:        62.3820183
  entropy:            23.2729152
  heat_capacity:      38.3819778
  energy:             70.0620803

- temperature:       340.0000000
  free_energy:        62.1434626
  entropy:            24.4392927
  heat_capacity:      39.7626717
  energy:             70.4528221

- temperature:       350.0000000
  free_energy:        61.8932128
  entropy:            25.6115582
  heat_capacity:      41.1206968
  energy:             70.8572582

- temperature:       360.0000000
  free_energy:        61.6312150
  entropy:            26.7887302
  heat_capacity:      42.4552874
  energy:             71.2751579

- temperature:       370.0000000
  free_energy:        61.3574249
  entropy:            27.9698881
  heat_capacity:      43.7657612
  energy:             71.7062835

- temperature:       380.0000000
  free_energy:        61.0718069
  entropy:            29.1541681
  heat_capacity:      45.0515234
  energy:             72.1503907

- temperature:       390.0000000
  free_energy:        60.7743338
  entropy:            30.3407591
  heat_capacity:      46.3120690
  energy:             72.6072299

- temperature:       400.0000000
  free_energy:        60.4649865
  entropy:            31.5289003
  heat_capacity:      47.5469830
  energy:             73.0765467

- temperature:       410.0000000
  free_energy:        60.1437531
  entropy:            32.7178780
  heat_capacity:      48.7559405
  energy:             73.5580830

- temperature:       420.0000000
  free_energy:        59.8106284
  entropy:            33.9070232
  heat_capacity:      49.9387039
  energy:             74.0515782

- temperature:       430.0000000
  free_energy:        59.4656141
  entropy:            35.0957097
  heat_capacity:      51.0951202
  energy:             74.5567693

- temperature:       440.0000000
  free_energy:        59.1087177
  entropy:            36.2833518
  heat_capacity:      52.2251167
  energy:             75.0733925

- temperature:       450.0000000
  free_energy:        58.7399524
  entropy:            37.4694026
  heat_capacity:      53.3286962
  energy:             75.6011835

- temperature:       460.0000000
  free_energy:        58.3593367
  entropy:            38.6533520
  heat_capacity:      54.4059320
  energy:             76.1398786

- temperature:       470.0000000
  free_energy:        57.9668940
  entropy:            39.8347253
  heat_capacity:      55.4569620
  energy:             76.6892148

- temperature:       480.0000000
  free_energy:        57.5626522
  entropy:            41.0130810
  heat_capacity:      56.4819832
  energy:             77.2489311

- temperature:       490.0000000
  free_energy:        57.1466438
  entropy:            42.1880099
  heat_capacity:      57.4812458
  energy:             77.8187686

- temperature:       500.0000000
  free_energy:        56.7189047
  entropy:            43.3591329
  heat_capacity:      58.4550480
  energy:             78.3984712

- temperature:       510.0000000
  free_energy:        56.2794750
  entropy:            44.5260998
  heat_capacity:      59.4037296
  energy:             78.9877858

- temperature:       520.0000000
  free_energy:        55.8283977
  entropy:            45.6885877
  heat_capacity:      60.3276676
  energy:             79.5864633

- temperature:       530.0000000
  free_energy:        55.3657191
  entropy:            46.8462999
  heat_capacity:      61.2272708
  energy:             80.1942581

- temperature:       540.0000000
  free_energy:        54.8914885
  entropy:            47.9989640
  heat_capacity:      62.1029749
  energy:             80.8109290

- temperature:       550.0000000
  free_energy:        54.4057575
  entropy:            49.1463308
  heat_capacity:      62.9552387
  energy:             81.4362394

- temperature:       560.0000000
  free_energy:        53.9085803
  entropy:            50.2881732
  heat_capacity:      63.7845392
  energy:             82.0699573

- temperature:       570.0000000
  free_energy:        53.4000131
  entropy:            51.4242845
  heat_capacity:      64.5913687
  energy:             82.7118553

- temperature:       580.0000000
  free_energy:        52.8801143
  entropy:            52.5544777
  heat_capacity:      65.3762309
  energy:             83.3617114

- temperature:       590.0000000
  free_energy:        52.3489439
  entropy:            53.6785840
  heat_capacity:      66.1396379
  energy:             84.0193084

- temperature:       600.0000000
  free_energy:        51.8065634
  entropy:            54.7964516
  heat_capacity:      66.8821076
  energy:             84.6844344

- temperature:       610.0000000
  free_energy:        51.2530361
  entropy:            55.9079449
  heat_capacity:      67.6041609
  energy:             85.3568825

- temperature:       620.0000000
  free_energy:        50.6884262
  entropy:            57.0129437
  heat_capacity:      68.3063197
  energy:             86.0364513

- temperature:       630.0000000
  free_energy:        50.1127992
  entropy:            58.1113414
  heat_capacity:      68.9891052
  energy:             86.7229443

- temperature:       640.0000000
  free_energy:        49.5262217
  entropy:            59.2030451
  heat_capacity:      69.6530354
  energy:             87.4161705

- temperature:       650.0000000
  free_energy:        48.9287609
  entropy:            60.2879738
  heat_capacity:      70.2986243
  energy:             88.1159439

- temperature:       660.0000000
  free_energy:        48.3204850
  entropy:            61.3660584
  heat_capacity:      70.9263806
  energy:             88.8220836

- temperature:       670.0000000
  free_energy:        47.7014628
  entropy:            62.4372403
  heat_capacity:      71.5368058
  energy:             89.5344137

- temperature:       680.0000000
  free_energy:        47.0717634
  entropy:            63.5014709
  heat_capacity:      72.1303942
  energy:             90.2527636

- temperature:       690.0000000
  free_energy:        46.4314566
  entropy:            64.5587108
  heat_capacity:      72.7076315
  energy:             90.9769671

- temperature:       700.0000000
  free_energy:        45.7806126
  entropy:            65.6089296
  heat_capacity:      73.2689944
  energy:             91.7068633

- temperature:       710.0000000
  free_energy:        45.1193015
  entropy:            66.6521044
  heat_capacity:      73.8149499
  energy:             92.4422957

- temperature:       720.0000000
  free_energy:        44.4475940
  entropy:            67.6882200
  heat_capacity:      74.3459547
  energy:             93.1831125

- temperature:       730.0000000
  free_energy:        43.7655607
  entropy:            68.7172681
  heat_capacity:      74.8624554
  energy:             93.9291664

- temperature:       740.0000000
  free_energy:        43.0732722
  entropy:            69.7392465
  heat_capacity:      75.3648877
  energy:             94.6803147

- temperature:       750.0000000
  free_energy:        42.3707993
  entropy:            70.7541592
  heat_capacity:      75.8536764
  energy:             95.4364187

- temperature:       760.0000000
  free_energy:        41.6582126
  entropy:            71.7620152
  heat_capacity:      76.3292355
  energy:             96.1973441

- temperature:       770.0000000
  free_energy:        40.9355825
  entropy:            72.7628288
  heat_capacity:      76.7919676
  energy:             96.9629606

- temperature:       780.0000000
  free_energy:        40.2029794
  entropy:            73.7566187
  heat_capacity:      77.2422646
  energy:             97.7331420

- temperature:       790.0000000
  free_energy:        39.4604734
  entropy:            74.7434080
  heat_capacity:      77.6805071
  energy:             98.5077658

- temperature:       800.0000000
  free_energy:        38.7081345
  entropy:            75.7232234
  heat_capacity:      78.1070650
  energy:             99.2867132

- temperature:       810.0000000
  free_energy:        37.9460321
  entropy:            76.6960953
  heat_capacity:      78.5222971
  energy:            100.0698693

- temperature:       820.0000000
  free_energy:        37.1742356
  entropy:            77.6620572
  heat_capacity:      78.9265518
  energy:            100.8571225

- temperature:       830.0000000
  free_energy:        36.3928139
  entropy:            78.6211458
  heat_capacity:      79.3201666
  energy:            101.6483649

- temperature:       840.0000000
  free_energy:        35.6018355
  entropy:            79.5734000
  heat_capacity:      79.7034689
  energy:            102.4434915

- temperature:       850.0000000
  free_energy:        34.8013685
  entropy:            80.5188616
  heat_capacity:      80.0767761
  energy:            103.2424009

- temperature:       860.0000000
  free_energy:        33.9914807
  entropy:            81.4575744
  heat_capacity:      80.4403952
  energy:            104.0449947

- temperature:       870.0000000
  free_energy:        33.1722394
  entropy:            82.3895841
  heat_capacity:      80.7946238
  energy:            104.8511775

- temperature:       880.0000000
  free_energy:        32.3437113
  entropy:            83.3149382
  heat_capacity:      81.1397500
  energy:            105.6608569

- temperature:       890.0000000
  free_energy:        31.5059626
  entropy:            84.2336859
  heat_capacity:      81.4760525
  energy:            106.4739431

- temperature:       900.0000000
  free_energy:        30.6590594
  entropy:            85.1458778
  heat_capacity:      81.8038012
  energy:            107.2903494

- temperature:       910.0000000
  free_energy:        29.8030668
  entropy:            86.0515656
  heat_capacity:      82.1232570
  energy:            108.1099915

- temperature:       920.0000000
  free_energy:        28.9380496
  entropy:            86.9508024
  heat_capacity:      82.4346724
  energy:            108.9327877

- temperature:       930.0000000
  free_energy:        28.0640720
  entropy:            87.8436419
  heat_capacity:      82.7382917
  energy:            109.7586590

- temperature:       940.0000000
  free_energy:        27.1811979
  entropy:            88.7301388
  heat_capacity:      83.0343509
  energy:            110.5875284

- temperature:       950.0000000
  free_energy:        26.2894902
  entropy:            89.6103488
  heat_capacity:      83.3230785
  energy:            111.4193215

- temperature:       960.0000000
  free_energy:        25.3890117
  entropy:            90.4843277
  heat_capacity:      83.6046954
  energy:            112.2539663

- temperature:       970.0000000
  free_energy:        24.4798243
  entropy:            91.3521322
  heat_capacity:      83.8794149
  energy:            113.0913925

- temperature:       980.0000000
  free_energy:        23.5619894
  entropy:            92.2138192
  heat_capacity:      84.1474435
  energy:            113.9315322

- temperature:       990.0000000
  free_energy:        22.6355681
  entropy:            93.0694461
  heat_capacity:      84.4089808
  energy:            114.7743197

- temperature:      1000.0000000
  free_energy:        21.7006205
  entropy:            93.9190704
  heat_capacity:      84.6642198
  energy:            115.6196909
