  32  32   0   0
  0.7976710E+01  0.4934311E-09  0.4934311E-09  0.1210634E-08  0.5000000E-15
  1.000000000000000E-004
  CAR 
 graphite                                
     17.45708401    -16.15213951  301      5.59483483      1.00000000
    -16.152  0.0000E+00  0.0000E+00
    -16.040  0.0000E+00  0.0000E+00
    -15.928  0.0000E+00  0.0000E+00
    -15.816  0.0000E+00  0.0000E+00
    -15.704  0.0000E+00  0.0000E+00
    -15.592  0.0000E+00  0.0000E+00
    -15.480  0.0000E+00  0.0000E+00
    -15.368  0.0000E+00  0.0000E+00
    -15.256  0.0000E+00  0.0000E+00
    -15.144  0.0000E+00  0.0000E+00
    -15.032  0.0000E+00  0.0000E+00
    -14.920  0.0000E+00  0.0000E+00
    -14.808  0.0000E+00  0.0000E+00
    -14.696  0.0000E+00  0.0000E+00
    -14.584  0.0000E+00  0.0000E+00
    -14.472  0.0000E+00  0.0000E+00
    -14.360  0.0000E+00  0.0000E+00
    -14.248  0.0000E+00  0.0000E+00
    -14.136  0.8584E-01  0.4737E-03
    -14.024  0.1345E+01  0.9776E-01
    -13.912  0.2101E+01  0.2900E+00
    -13.799  0.2578E+01  0.5517E+00
    -13.687  0.3198E+01  0.8739E+00
    -13.575  0.3886E+01  0.1271E+01
    -13.463  0.5020E+01  0.1772E+01
    -13.351  0.4963E+01  0.2321E+01
    -13.239  0.4927E+01  0.2876E+01
    -13.127  0.4962E+01  0.3430E+01
    -13.015  0.4928E+01  0.3986E+01
    -12.903  0.5310E+01  0.4556E+01
    -12.791  0.5506E+01  0.5163E+01
    -12.679  0.6150E+01  0.5823E+01
    -12.567  0.5519E+01  0.6476E+01
    -12.455  0.4812E+01  0.7063E+01
    -12.343  0.2679E+01  0.7525E+01
    -12.231  0.3472E+01  0.7876E+01
    -12.119  0.3690E+01  0.8302E+01
    -12.007  0.5418E+01  0.8904E+01
    -11.895  0.4991E+01  0.9482E+01
    -11.783  0.5105E+01  0.1005E+02
    -11.671  0.5567E+01  0.1063E+02
    -11.559  0.5267E+01  0.1125E+02
    -11.447  0.5346E+01  0.1182E+02
    -11.335  0.5196E+01  0.1242E+02
    -11.223  0.4977E+01  0.1298E+02
    -11.111  0.4968E+01  0.1354E+02
    -10.999  0.5041E+01  0.1411E+02
    -10.887  0.5374E+01  0.1469E+02
    -10.775  0.4992E+01  0.1526E+02
    -10.663  0.5102E+01  0.1583E+02
    -10.551  0.5260E+01  0.1641E+02
    -10.439  0.5330E+01  0.1700E+02
    -10.327  0.5364E+01  0.1760E+02
    -10.215  0.5515E+01  0.1821E+02
    -10.102  0.5791E+01  0.1885E+02
     -9.990  0.5896E+01  0.1950E+02
     -9.878  0.6259E+01  0.2018E+02
     -9.766  0.6230E+01  0.2088E+02
     -9.654  0.5330E+01  0.2153E+02
     -9.542  0.4194E+01  0.2207E+02
     -9.430  0.3961E+01  0.2251E+02
     -9.318  0.4444E+01  0.2298E+02
     -9.206  0.5191E+01  0.2353E+02
     -9.094  0.5569E+01  0.2413E+02
     -8.982  0.6133E+01  0.2478E+02
     -8.870  0.6753E+01  0.2550E+02
     -8.758  0.7783E+01  0.2631E+02
     -8.646  0.9078E+01  0.2725E+02
     -8.534  0.6883E+01  0.2829E+02
     -8.422  0.5098E+01  0.2894E+02
     -8.310  0.4907E+01  0.2948E+02
     -8.198  0.3389E+01  0.2993E+02
     -8.086  0.2983E+01  0.3029E+02
     -7.974  0.2628E+01  0.3060E+02
     -7.862  0.2827E+01  0.3092E+02
     -7.750  0.2276E+01  0.3120E+02
     -7.638  0.1971E+01  0.3144E+02
     -7.526  0.2013E+01  0.3166E+02
     -7.414  0.2946E+01  0.3193E+02
     -7.302  0.5781E+01  0.3252E+02
     -7.190  0.4171E+01  0.3308E+02
     -7.078  0.4348E+01  0.3356E+02
     -6.966  0.5697E+01  0.3408E+02
     -6.854  0.5973E+01  0.3473E+02
     -6.742  0.7637E+01  0.3549E+02
     -6.630  0.7643E+01  0.3631E+02
     -6.517  0.8096E+01  0.3723E+02
     -6.405  0.7583E+01  0.3811E+02
     -6.293  0.6188E+01  0.3889E+02
     -6.181  0.5866E+01  0.3956E+02
     -6.069  0.5618E+01  0.4021E+02
     -5.957  0.5417E+01  0.4082E+02
     -5.845  0.5223E+01  0.4142E+02
     -5.733  0.5039E+01  0.4199E+02
     -5.621  0.4900E+01  0.4255E+02
     -5.509  0.4843E+01  0.4309E+02
     -5.397  0.4810E+01  0.4364E+02
     -5.285  0.4649E+01  0.4416E+02
     -5.173  0.4553E+01  0.4468E+02
     -5.061  0.3863E+01  0.4516E+02
     -4.949  0.3688E+01  0.4557E+02
     -4.837  0.4360E+01  0.4602E+02
     -4.725  0.5083E+01  0.4655E+02
     -4.613  0.5836E+01  0.4716E+02
     -4.501  0.7718E+01  0.4789E+02
     -4.389  0.8766E+01  0.4883E+02
     -4.277  0.9251E+01  0.4988E+02
     -4.165  0.6293E+01  0.5075E+02
     -4.053  0.3389E+01  0.5129E+02
     -3.941  0.2243E+01  0.5158E+02
     -3.829  0.3085E+01  0.5187E+02
     -3.717  0.4464E+01  0.5228E+02
     -3.605  0.6288E+01  0.5288E+02
     -3.493  0.7778E+01  0.5369E+02
     -3.381  0.8003E+01  0.5458E+02
     -3.269  0.7109E+01  0.5544E+02
     -3.157  0.6009E+01  0.5617E+02
     -3.045  0.7941E+01  0.5691E+02
     -2.933  0.8542E+01  0.5788E+02
     -2.820  0.8127E+01  0.5881E+02
     -2.708  0.7614E+01  0.5970E+02
     -2.596  0.6949E+01  0.6054E+02
     -2.484  0.7562E+01  0.6144E+02
     -2.372  0.1127E+02  0.6235E+02
     -2.260  0.9698E+01  0.6347E+02
     -2.148  0.7891E+01  0.6445E+02
     -2.036  0.7245E+01  0.6528E+02
     -1.924  0.8345E+01  0.6614E+02
     -1.812  0.9859E+01  0.6717E+02
     -1.700  0.1094E+02  0.6833E+02
     -1.588  0.1128E+02  0.6957E+02
     -1.476  0.1015E+02  0.7081E+02
     -1.364  0.1146E+02  0.7197E+02
     -1.252  0.1324E+02  0.7335E+02
     -1.140  0.1455E+02  0.7493E+02
     -1.028  0.1256E+02  0.7649E+02
     -0.916  0.1352E+02  0.7788E+02
     -0.804  0.1022E+02  0.7946E+02
     -0.692  0.1630E+02  0.8083E+02
     -0.580  0.1920E+02  0.8294E+02
     -0.468  0.1478E+02  0.8481E+02
     -0.356  0.1338E+02  0.8637E+02
     -0.244  0.1191E+02  0.8780E+02
     -0.132  0.1043E+02  0.8903E+02
     -0.020  0.1013E+02  0.9017E+02
      0.092  0.1076E+02  0.9134E+02
      0.204  0.1241E+02  0.9260E+02
      0.316  0.1239E+02  0.9407E+02
      0.428  0.1085E+02  0.9552E+02
      0.540  0.9341E+01  0.9661E+02
      0.652  0.9351E+01  0.9766E+02
      0.765  0.9547E+01  0.9870E+02
      0.877  0.1105E+02  0.9985E+02
      0.989  0.1154E+02  0.1011E+03
      1.101  0.9968E+01  0.1023E+03
      1.213  0.9510E+01  0.1034E+03
      1.325  0.9127E+01  0.1045E+03
      1.437  0.9203E+01  0.1055E+03
      1.549  0.9479E+01  0.1065E+03
      1.661  0.9860E+01  0.1076E+03
      1.773  0.9539E+01  0.1087E+03
      1.885  0.1024E+02  0.1098E+03
      1.997  0.9440E+01  0.1109E+03
      2.109  0.8631E+01  0.1119E+03
      2.221  0.8638E+01  0.1129E+03
      2.333  0.8991E+01  0.1139E+03
      2.445  0.9452E+01  0.1149E+03
      2.557  0.8510E+01  0.1160E+03
      2.669  0.6760E+01  0.1168E+03
      2.781  0.7178E+01  0.1176E+03
      2.893  0.8388E+01  0.1185E+03
      3.005  0.3337E+01  0.1191E+03
      3.117  0.2866E+01  0.1194E+03
      3.229  0.4892E+01  0.1198E+03
      3.341  0.7494E+01  0.1205E+03
      3.453  0.9141E+01  0.1215E+03
      3.565  0.5882E+01  0.1224E+03
      3.677  0.5617E+01  0.1230E+03
      3.789  0.4896E+01  0.1236E+03
      3.901  0.5030E+01  0.1242E+03
      4.013  0.5468E+01  0.1248E+03
      4.125  0.5017E+01  0.1254E+03
      4.237  0.3451E+01  0.1259E+03
      4.349  0.3017E+01  0.1262E+03
      4.462  0.2632E+01  0.1265E+03
      4.574  0.2246E+01  0.1268E+03
      4.686  0.1836E+01  0.1270E+03
      4.798  0.1668E+01  0.1272E+03
      4.910  0.1484E+01  0.1274E+03
      5.022  0.1287E+01  0.1276E+03
      5.134  0.1112E+01  0.1277E+03
      5.246  0.1039E+01  0.1278E+03
      5.358  0.6789E+00  0.1279E+03
      5.470  0.3230E+00  0.1280E+03
      5.582  0.5722E-02  0.1280E+03
      5.694  0.1097E+00  0.1280E+03
      5.806  0.2745E+00  0.1280E+03
      5.918  0.4464E+00  0.1281E+03
      6.030  0.6255E+00  0.1281E+03
      6.142  0.8139E+00  0.1282E+03
      6.254  0.9636E+00  0.1283E+03
      6.366  0.1158E+01  0.1284E+03
      6.478  0.1401E+01  0.1286E+03
      6.590  0.1634E+01  0.1287E+03
      6.702  0.1911E+01  0.1289E+03
      6.814  0.2289E+01  0.1292E+03
      6.926  0.3491E+01  0.1295E+03
      7.038  0.4468E+01  0.1299E+03
      7.150  0.7070E+01  0.1306E+03
      7.262  0.1106E+02  0.1318E+03
      7.374  0.8102E+01  0.1328E+03
      7.486  0.7250E+01  0.1336E+03
      7.598  0.6810E+01  0.1344E+03
      7.710  0.6761E+01  0.1352E+03
      7.822  0.5879E+01  0.1360E+03
      7.934  0.4965E+01  0.1366E+03
      8.047  0.4079E+01  0.1371E+03
      8.159  0.3770E+01  0.1375E+03
      8.271  0.3892E+01  0.1379E+03
      8.383  0.3606E+01  0.1384E+03
      8.495  0.3954E+01  0.1388E+03
      8.607  0.4311E+01  0.1392E+03
      8.719  0.4751E+01  0.1397E+03
      8.831  0.4965E+01  0.1403E+03
      8.943  0.5005E+01  0.1409E+03
      9.055  0.4484E+01  0.1414E+03
      9.167  0.4139E+01  0.1419E+03
      9.279  0.4028E+01  0.1423E+03
      9.391  0.3938E+01  0.1428E+03
      9.503  0.3748E+01  0.1432E+03
      9.615  0.3609E+01  0.1436E+03
      9.727  0.3535E+01  0.1440E+03
      9.839  0.3440E+01  0.1444E+03
      9.951  0.3320E+01  0.1448E+03
     10.063  0.3240E+01  0.1451E+03
     10.175  0.3232E+01  0.1455E+03
     10.287  0.3024E+01  0.1459E+03
     10.399  0.2949E+01  0.1462E+03
     10.511  0.2918E+01  0.1465E+03
     10.623  0.3004E+01  0.1469E+03
     10.735  0.2994E+01  0.1472E+03
     10.847  0.2951E+01  0.1475E+03
     10.959  0.2894E+01  0.1478E+03
     11.071  0.2903E+01  0.1482E+03
     11.183  0.3156E+01  0.1485E+03
     11.295  0.3518E+01  0.1489E+03
     11.407  0.3718E+01  0.1493E+03
     11.519  0.3802E+01  0.1497E+03
     11.631  0.3723E+01  0.1501E+03
     11.744  0.3569E+01  0.1505E+03
     11.856  0.3503E+01  0.1509E+03
     11.968  0.3548E+01  0.1513E+03
     12.080  0.3677E+01  0.1517E+03
     12.192  0.4241E+01  0.1522E+03
     12.304  0.3385E+01  0.1526E+03
     12.416  0.3159E+01  0.1530E+03
     12.528  0.3302E+01  0.1533E+03
     12.640  0.3336E+01  0.1537E+03
     12.752  0.4639E+01  0.1542E+03
     12.864  0.5592E+01  0.1547E+03
     12.976  0.7764E+01  0.1554E+03
     13.088  0.9064E+01  0.1564E+03
     13.200  0.9494E+01  0.1575E+03
     13.312  0.9329E+01  0.1585E+03
     13.424  0.1064E+02  0.1597E+03
     13.536  0.1126E+02  0.1609E+03
     13.648  0.1290E+02  0.1623E+03
     13.760  0.1162E+02  0.1637E+03
     13.872  0.1018E+02  0.1649E+03
     13.984  0.9184E+01  0.1660E+03
     14.096  0.5017E+01  0.1668E+03
     14.208  0.3707E+01  0.1673E+03
     14.320  0.2555E+01  0.1676E+03
     14.432  0.1003E+01  0.1678E+03
     14.544  0.3157E+00  0.1679E+03
     14.656  0.2290E+00  0.1679E+03
     14.768  0.1577E+00  0.1680E+03
     14.880  0.1017E+00  0.1680E+03
     14.992  0.6112E-01  0.1680E+03
     15.104  0.3469E-01  0.1680E+03
     15.216  0.1615E-01  0.1680E+03
     15.328  0.4612E-02  0.1680E+03
     15.441  0.7643E-04  0.1680E+03
     15.553  0.0000E+00  0.1680E+03
     15.665  0.0000E+00  0.1680E+03
     15.777  0.0000E+00  0.1680E+03
     15.889  0.0000E+00  0.1680E+03
     16.001  0.0000E+00  0.1680E+03
     16.113  0.0000E+00  0.1680E+03
     16.225  0.0000E+00  0.1680E+03
     16.337  0.0000E+00  0.1680E+03
     16.449  0.0000E+00  0.1680E+03
     16.561  0.0000E+00  0.1680E+03
     16.673  0.0000E+00  0.1680E+03
     16.785  0.0000E+00  0.1680E+03
     16.897  0.0000E+00  0.1680E+03
     17.009  0.0000E+00  0.1680E+03
     17.121  0.0000E+00  0.1680E+03
     17.233  0.0000E+00  0.1680E+03
     17.345  0.0000E+00  0.1680E+03
     17.457  0.0000E+00  0.1680E+03
