  32  32   0   0
  0.8206758E+01  0.4932875E-09  0.4932875E-09  0.1246769E-08  0.5000000E-15
  1.000000000000000E-004
  CAR 
 graphite                                
     17.13365076    -16.38143071  301      5.33027621      1.00000000
    -16.381  0.0000E+00  0.0000E+00
    -16.270  0.0000E+00  0.0000E+00
    -16.158  0.0000E+00  0.0000E+00
    -16.046  0.0000E+00  0.0000E+00
    -15.935  0.0000E+00  0.0000E+00
    -15.823  0.0000E+00  0.0000E+00
    -15.711  0.0000E+00  0.0000E+00
    -15.599  0.0000E+00  0.0000E+00
    -15.488  0.0000E+00  0.0000E+00
    -15.376  0.0000E+00  0.0000E+00
    -15.264  0.0000E+00  0.0000E+00
    -15.153  0.0000E+00  0.0000E+00
    -15.041  0.0000E+00  0.0000E+00
    -14.929  0.0000E+00  0.0000E+00
    -14.817  0.0000E+00  0.0000E+00
    -14.706  0.0000E+00  0.0000E+00
    -14.594  0.0000E+00  0.0000E+00
    -14.482  0.0000E+00  0.0000E+00
    -14.371  0.4510E-01  0.1639E-03
    -14.259  0.1446E+01  0.1003E+00
    -14.147  0.2310E+01  0.3089E+00
    -14.035  0.2904E+01  0.6003E+00
    -13.924  0.3733E+01  0.9685E+00
    -13.812  0.5112E+01  0.1464E+01
    -13.700  0.4938E+01  0.2011E+01
    -13.589  0.4871E+01  0.2561E+01
    -13.477  0.5002E+01  0.3113E+01
    -13.365  0.4926E+01  0.3669E+01
    -13.253  0.4931E+01  0.4219E+01
    -13.142  0.5381E+01  0.4790E+01
    -13.030  0.5580E+01  0.5403E+01
    -12.918  0.6378E+01  0.6068E+01
    -12.806  0.5652E+01  0.6766E+01
    -12.695  0.4112E+01  0.7321E+01
    -12.583  0.2627E+01  0.7668E+01
    -12.471  0.3685E+01  0.8043E+01
    -12.360  0.3759E+01  0.8427E+01
    -12.248  0.5828E+01  0.9107E+01
    -12.136  0.5315E+01  0.9716E+01
    -12.024  0.5538E+01  0.1030E+02
    -11.913  0.5320E+01  0.1093E+02
    -11.801  0.4835E+01  0.1147E+02
    -11.689  0.5184E+01  0.1203E+02
    -11.578  0.5008E+01  0.1260E+02
    -11.466  0.5001E+01  0.1316E+02
    -11.354  0.5152E+01  0.1372E+02
    -11.242  0.5780E+01  0.1433E+02
    -11.131  0.5005E+01  0.1493E+02
    -11.019  0.5018E+01  0.1549E+02
    -10.907  0.5092E+01  0.1605E+02
    -10.796  0.5180E+01  0.1662E+02
    -10.684  0.5253E+01  0.1721E+02
    -10.572  0.5331E+01  0.1780E+02
    -10.460  0.5580E+01  0.1840E+02
    -10.349  0.5711E+01  0.1904E+02
    -10.237  0.5953E+01  0.1968E+02
    -10.125  0.6079E+01  0.2036E+02
    -10.014  0.6130E+01  0.2104E+02
     -9.902  0.5128E+01  0.2167E+02
     -9.790  0.4140E+01  0.2219E+02
     -9.678  0.4230E+01  0.2264E+02
     -9.567  0.5006E+01  0.2316E+02
     -9.455  0.5388E+01  0.2375E+02
     -9.343  0.5599E+01  0.2436E+02
     -9.232  0.6274E+01  0.2501E+02
     -9.120  0.7021E+01  0.2575E+02
     -9.008  0.8545E+01  0.2661E+02
     -8.896  0.8602E+01  0.2764E+02
     -8.785  0.6116E+01  0.2850E+02
     -8.673  0.4933E+01  0.2911E+02
     -8.561  0.3634E+01  0.2966E+02
     -8.450  0.3240E+01  0.3004E+02
     -8.338  0.2846E+01  0.3038E+02
     -8.226  0.2494E+01  0.3068E+02
     -8.114  0.2981E+01  0.3099E+02
     -8.003  0.2330E+01  0.3127E+02
     -7.891  0.1874E+01  0.3151E+02
     -7.779  0.2068E+01  0.3171E+02
     -7.668  0.4103E+01  0.3201E+02
     -7.556  0.6290E+01  0.3268E+02
     -7.444  0.4232E+01  0.3321E+02
     -7.332  0.4112E+01  0.3368E+02
     -7.221  0.6213E+01  0.3422E+02
     -7.109  0.6623E+01  0.3490E+02
     -6.997  0.6733E+01  0.3570E+02
     -6.885  0.7904E+01  0.3651E+02
     -6.774  0.8214E+01  0.3745E+02
     -6.662  0.7280E+01  0.3832E+02
     -6.550  0.6108E+01  0.3904E+02
     -6.439  0.5815E+01  0.3971E+02
     -6.327  0.5579E+01  0.4035E+02
     -6.215  0.5378E+01  0.4096E+02
     -6.103  0.5191E+01  0.4155E+02
     -5.992  0.5000E+01  0.4212E+02
     -5.880  0.4865E+01  0.4267E+02
     -5.768  0.4828E+01  0.4321E+02
     -5.657  0.4795E+01  0.4375E+02
     -5.545  0.4624E+01  0.4427E+02
     -5.433  0.4514E+01  0.4478E+02
     -5.321  0.3785E+01  0.4526E+02
     -5.210  0.3829E+01  0.4566E+02
     -5.098  0.4462E+01  0.4613E+02
     -4.986  0.5180E+01  0.4667E+02
     -4.875  0.5931E+01  0.4729E+02
     -4.763  0.7971E+01  0.4803E+02
     -4.651  0.9293E+01  0.4900E+02
     -4.539  0.8439E+01  0.5007E+02
     -4.428  0.5731E+01  0.5086E+02
     -4.316  0.3082E+01  0.5135E+02
     -4.204  0.2380E+01  0.5163E+02
     -4.093  0.3328E+01  0.5194E+02
     -3.981  0.4764E+01  0.5239E+02
     -3.869  0.6466E+01  0.5301E+02
     -3.757  0.7873E+01  0.5383E+02
     -3.646  0.7799E+01  0.5472E+02
     -3.534  0.6293E+01  0.5551E+02
     -3.422  0.5598E+01  0.5616E+02
     -3.311  0.8416E+01  0.5694E+02
     -3.199  0.8119E+01  0.5786E+02
     -3.087  0.7798E+01  0.5875E+02
     -2.975  0.7617E+01  0.5961E+02
     -2.864  0.7741E+01  0.6046E+02
     -2.752  0.8232E+01  0.6142E+02
     -2.640  0.8735E+01  0.6240E+02
     -2.529  0.9220E+01  0.6343E+02
     -2.417  0.7822E+01  0.6439E+02
     -2.305  0.7107E+01  0.6520E+02
     -2.193  0.8092E+01  0.6604E+02
     -2.082  0.9641E+01  0.6702E+02
     -1.970  0.1099E+02  0.6821E+02
     -1.858  0.1252E+02  0.6951E+02
     -1.747  0.1064E+02  0.7085E+02
     -1.635  0.1147E+02  0.7201E+02
     -1.523  0.1258E+02  0.7335E+02
     -1.411  0.1455E+02  0.7486E+02
     -1.300  0.1273E+02  0.7644E+02
     -1.188  0.1538E+02  0.7791E+02
     -1.076  0.1099E+02  0.7946E+02
     -0.964  0.1846E+02  0.8087E+02
     -0.853  0.1842E+02  0.8302E+02
     -0.741  0.1579E+02  0.8497E+02
     -0.629  0.1394E+02  0.8663E+02
     -0.518  0.1201E+02  0.8809E+02
     -0.406  0.1027E+02  0.8932E+02
     -0.294  0.9625E+01  0.9043E+02
     -0.182  0.9373E+01  0.9145E+02
     -0.071  0.1308E+02  0.9268E+02
      0.041  0.1331E+02  0.9418E+02
      0.153  0.1062E+02  0.9573E+02
      0.264  0.8952E+01  0.9679E+02
      0.376  0.9125E+01  0.9774E+02
      0.488  0.9899E+01  0.9883E+02
      0.600  0.1066E+02  0.9997E+02
      0.711  0.1187E+02  0.1012E+03
      0.823  0.1074E+02  0.1024E+03
      0.935  0.9434E+01  0.1036E+03
      1.046  0.9298E+01  0.1046E+03
      1.158  0.9364E+01  0.1057E+03
      1.270  0.9369E+01  0.1067E+03
      1.382  0.9514E+01  0.1077E+03
      1.493  0.9475E+01  0.1088E+03
      1.605  0.9470E+01  0.1099E+03
      1.717  0.9971E+01  0.1110E+03
      1.828  0.9184E+01  0.1120E+03
      1.940  0.8702E+01  0.1130E+03
      2.052  0.8717E+01  0.1140E+03
      2.164  0.9488E+01  0.1150E+03
      2.275  0.9400E+01  0.1161E+03
      2.387  0.6207E+01  0.1170E+03
      2.499  0.6325E+01  0.1177E+03
      2.610  0.6319E+01  0.1184E+03
      2.722  0.5607E+01  0.1190E+03
      2.834  0.3581E+01  0.1195E+03
      2.946  0.5709E+01  0.1200E+03
      3.057  0.8417E+01  0.1208E+03
      3.169  0.8794E+01  0.1218E+03
      3.281  0.5037E+01  0.1225E+03
      3.392  0.5202E+01  0.1231E+03
      3.504  0.5397E+01  0.1237E+03
      3.616  0.6228E+01  0.1243E+03
      3.728  0.5413E+01  0.1250E+03
      3.839  0.4031E+01  0.1255E+03
      3.951  0.3290E+01  0.1259E+03
      4.063  0.2943E+01  0.1263E+03
      4.174  0.2607E+01  0.1266E+03
      4.286  0.2248E+01  0.1269E+03
      4.398  0.1835E+01  0.1271E+03
      4.510  0.1618E+01  0.1273E+03
      4.621  0.1399E+01  0.1275E+03
      4.733  0.1204E+01  0.1276E+03
      4.845  0.1026E+01  0.1277E+03
      4.957  0.9376E+00  0.1278E+03
      5.068  0.6391E+00  0.1279E+03
      5.180  0.3464E+00  0.1280E+03
      5.292  0.5921E-01  0.1280E+03
      5.403  0.7296E-01  0.1280E+03
      5.515  0.2262E+00  0.1280E+03
      5.627  0.3876E+00  0.1281E+03
      5.739  0.5570E+00  0.1281E+03
      5.850  0.7386E+00  0.1282E+03
      5.962  0.9269E+00  0.1283E+03
      6.074  0.1112E+01  0.1284E+03
      6.185  0.1372E+01  0.1285E+03
      6.297  0.1647E+01  0.1287E+03
      6.409  0.1964E+01  0.1289E+03
      6.521  0.2396E+01  0.1291E+03
      6.632  0.3532E+01  0.1295E+03
      6.744  0.4765E+01  0.1299E+03
      6.856  0.6110E+01  0.1305E+03
      6.967  0.1037E+02  0.1317E+03
      7.079  0.8086E+01  0.1326E+03
      7.191  0.7237E+01  0.1335E+03
      7.303  0.7032E+01  0.1343E+03
      7.414  0.7000E+01  0.1351E+03
      7.526  0.6016E+01  0.1359E+03
      7.638  0.5142E+01  0.1365E+03
      7.749  0.4351E+01  0.1370E+03
      7.861  0.4239E+01  0.1375E+03
      7.973  0.3538E+01  0.1379E+03
      8.085  0.3591E+01  0.1383E+03
      8.196  0.3853E+01  0.1387E+03
      8.308  0.4229E+01  0.1392E+03
      8.420  0.4665E+01  0.1397E+03
      8.531  0.4915E+01  0.1402E+03
      8.643  0.4934E+01  0.1408E+03
      8.755  0.4562E+01  0.1413E+03
      8.867  0.4199E+01  0.1418E+03
      8.978  0.4034E+01  0.1422E+03
      9.090  0.3926E+01  0.1427E+03
      9.202  0.3743E+01  0.1431E+03
      9.313  0.3613E+01  0.1435E+03
      9.425  0.3536E+01  0.1439E+03
      9.537  0.3415E+01  0.1443E+03
      9.649  0.3290E+01  0.1447E+03
      9.760  0.3209E+01  0.1450E+03
      9.872  0.3193E+01  0.1454E+03
      9.984  0.3201E+01  0.1458E+03
     10.095  0.3032E+01  0.1461E+03
     10.207  0.3016E+01  0.1464E+03
     10.319  0.2952E+01  0.1468E+03
     10.431  0.2967E+01  0.1471E+03
     10.542  0.3189E+01  0.1474E+03
     10.654  0.3391E+01  0.1478E+03
     10.766  0.3471E+01  0.1482E+03
     10.878  0.3542E+01  0.1486E+03
     10.989  0.3531E+01  0.1490E+03
     11.101  0.3780E+01  0.1494E+03
     11.213  0.4039E+01  0.1498E+03
     11.324  0.4161E+01  0.1503E+03
     11.436  0.4085E+01  0.1507E+03
     11.548  0.3949E+01  0.1512E+03
     11.660  0.3915E+01  0.1516E+03
     11.771  0.4056E+01  0.1521E+03
     11.883  0.5019E+01  0.1526E+03
     11.995  0.3773E+01  0.1531E+03
     12.106  0.3331E+01  0.1535E+03
     12.218  0.2459E+01  0.1538E+03
     12.330  0.2397E+01  0.1541E+03
     12.442  0.3602E+01  0.1544E+03
     12.553  0.5858E+01  0.1550E+03
     12.665  0.6030E+01  0.1556E+03
     12.777  0.8949E+01  0.1564E+03
     12.888  0.1006E+02  0.1575E+03
     13.000  0.1137E+02  0.1586E+03
     13.112  0.1227E+02  0.1600E+03
     13.224  0.1174E+02  0.1613E+03
     13.335  0.1016E+02  0.1625E+03
     13.447  0.9876E+01  0.1637E+03
     13.559  0.1037E+02  0.1647E+03
     13.670  0.1035E+02  0.1659E+03
     13.782  0.6733E+01  0.1669E+03
     13.894  0.3603E+01  0.1675E+03
     14.006  0.1893E+01  0.1678E+03
     14.117  0.5176E+00  0.1679E+03
     14.229  0.2368E+00  0.1680E+03
     14.341  0.1009E+00  0.1680E+03
     14.452  0.7266E-01  0.1680E+03
     14.564  0.5078E-01  0.1680E+03
     14.676  0.3281E-01  0.1680E+03
     14.788  0.1875E-01  0.1680E+03
     14.899  0.8599E-02  0.1680E+03
     15.011  0.2355E-02  0.1680E+03
     15.123  0.1862E-04  0.1680E+03
     15.234  0.0000E+00  0.1680E+03
     15.346  0.0000E+00  0.1680E+03
     15.458  0.0000E+00  0.1680E+03
     15.570  0.0000E+00  0.1680E+03
     15.681  0.0000E+00  0.1680E+03
     15.793  0.0000E+00  0.1680E+03
     15.905  0.0000E+00  0.1680E+03
     16.016  0.0000E+00  0.1680E+03
     16.128  0.0000E+00  0.1680E+03
     16.240  0.0000E+00  0.1680E+03
     16.352  0.0000E+00  0.1680E+03
     16.463  0.0000E+00  0.1680E+03
     16.575  0.0000E+00  0.1680E+03
     16.687  0.0000E+00  0.1680E+03
     16.798  0.0000E+00  0.1680E+03
     16.910  0.0000E+00  0.1680E+03
     17.022  0.0000E+00  0.1680E+03
     17.134  0.0000E+00  0.1680E+03
