   32   32    1    1
  0.8206758E+01  0.4932875E-09  0.4932875E-09  0.1246769E-08  0.5000000E-15
  1.000000000000000E-004
  CAR 
 graphite                                
    128    163     84
 
  0.0000000E+00  0.0000000E+00  0.0000000E+00  0.3086420E-02
    1      -14.381431
    2      -14.136815
    3      -14.135894
    4      -13.863404
    5       -9.006044
    6       -8.996441
    7       -8.993152
    8       -8.892766
    9       -8.891158
   10       -8.880635
   11       -8.879374
   12       -8.879334
   13       -8.874810
   14       -8.811592
   15       -8.797435
   16       -8.795220
   17       -7.883997
   18       -7.882253
   19       -7.881407
   20       -7.842728
   21       -7.841900
   22       -7.839446
   23       -7.839216
   24       -7.839166
   25       -7.836146
   26       -7.738911
   27       -7.737805
   28       -7.735023
   29       -3.501429
   30       -2.253997
   31       -2.251677
   32       -1.064398
   33       -1.061874
   34       -1.046322
   35       -1.010362
   36       -1.009532
   37       -1.009515
   38       -1.004978
   39       -0.992629
   40       -0.990878
   41       -0.954206
   42       -0.951344
   43       -0.936179
   44       -0.692202
   45        2.348277
   46        2.351391
   47        2.355039
   48        2.357122
   49        2.364857
   50        2.368998
   51        2.375742
   52        2.381753
   53        2.385050
   54        2.395213
   55        2.403084
   56        2.988535
   57        2.991194
   58        2.998423
   59        2.998760
   60        2.999002
   61        3.003244
   62        3.321688
   63        3.344532
   64        3.345896
   65        6.939373
   66        6.941464
   67        6.951906
   68        6.988370
   69        6.992166
   70        6.994460
   71        6.996522
   72        6.997032
   73        7.001798
   74        7.771566
   75        7.778328
   76        7.781880
   77       10.387354
   78       12.421613
   79       12.425790
   80       12.457277
   81       12.742074
   82       12.745186
   83       12.751247
   84       12.771317
 
  0.1111111E+00  0.2081668E-16  0.0000000E+00  0.6172840E-02
    1      -14.307324
    2      -14.063642
    3      -14.062725
    4      -13.791430
    5       -9.817354
    6       -9.637050
    7       -9.636100
    8       -9.443364
    9       -9.270276
   10       -9.261641
   11       -9.112590
   12       -9.111731
   13       -9.103028
   14       -9.101755
   15       -8.953575
   16       -8.942773
   17       -7.619935
   18       -7.616524
   19       -7.500931
   20       -7.498362
   21       -7.495530
   22       -7.494123
   23       -7.353574
   24       -7.348576
   25       -7.116653
   26       -6.974728
   27       -6.973271
   28       -6.817706
   29       -3.411543
   30       -2.167194
   31       -2.164877
   32       -1.293498
   33       -1.276366
   34       -1.233702
   35       -1.233299
   36       -1.217105
   37       -1.215366
   38       -1.172032
   39       -1.154974
   40       -0.989751
   41       -0.937078
   42       -0.933676
   43       -0.880036
   44       -0.610049
   45        1.725870
   46        2.052852
   47        2.077681
   48        2.082365
   49        2.106956
   50        2.194253
   51        2.216578
   52        2.217556
   53        2.223087
   54        2.228677
   55        2.246896
   56        2.572228
   57        2.575153
   58        2.936876
   59        2.939515
   60        2.946356
   61        2.947480
   62        3.351626
   63        3.426682
   64        3.446606
   65        6.969368
   66        6.977438
   67        7.121423
   68        7.125751
   69        7.126982
   70        7.132213
   71        7.162228
   72        7.532965
   73        7.537896
   74        7.909342
   75        7.917175
   76        8.405760
   77       10.472373
   78       12.467055
   79       12.758845
   80       12.782283
   81       12.784414
   82       12.793200
   83       13.079514
   84       13.103462
 
  0.2222222E+00  0.4163336E-16  0.0000000E+00  0.6172840E-02
    1      -14.085346
    2      -13.844495
    3      -13.843592
    4      -13.575830
    5      -10.837284
    6      -10.638313
    7      -10.637520
    8      -10.421554
    9       -9.624740
   10       -9.618870
   11       -9.447774
   12       -9.447193
   13       -9.441680
   14       -9.440321
   15       -9.258164
   16       -9.251512
   17       -6.949330
   18       -6.942267
   19       -6.812370
   20       -6.809899
   21       -6.804187
   22       -6.802965
   23       -6.659741
   24       -6.652298
   25       -5.787809
   26       -5.652454
   27       -5.651096
   28       -5.507198
   29       -3.142459
   30       -1.907916
   31       -1.907166
   32       -1.905470
   33       -1.891070
   34       -1.835015
   35       -1.834665
   36       -1.819417
   37       -1.817692
   38       -1.759802
   39       -1.743782
   40       -0.774271
   41       -0.722498
   42       -0.719007
   43       -0.666453
   44       -0.364806
   45        0.670571
   46        1.218503
   47        1.259054
   48        1.263200
   49        1.303965
   50        1.683802
   51        1.686261
   52        1.769354
   53        1.800176
   54        1.805588
   55        1.837121
   56        1.976300
   57        1.980096
   58        2.815910
   59        2.818597
   60        2.823755
   61        2.824780
   62        2.839434
   63        3.590118
   64        3.604578
   65        7.120436
   66        7.124114
   67        7.456524
   68        7.460227
   69        7.462216
   70        7.466821
   71        8.179232
   72        8.204232
   73        8.209059
   74        8.755136
   75        8.759234
   76        9.613717
   77       10.728453
   78       12.591597
   79       12.896702
   80       12.898694
   81       13.197102
   82       13.644823
   83       13.676858
   84       13.699772
 
  0.3333333E+00  0.8326673E-16  0.0000000E+00  0.6172840E-02
    1      -13.716648
    2      -13.480442
    3      -13.479562
    4      -13.217658
    5      -11.756259
    6      -11.544886
    7      -11.544086
    8      -11.312761
    9       -9.884091
   10       -9.880391
   11       -9.699843
   12       -9.699243
   13       -9.696146
   14       -9.694561
   15       -9.500415
   16       -9.496415
   17       -6.136955
   18       -6.128033
   19       -6.009032
   20       -6.006452
   21       -5.999411
   22       -5.997872
   23       -5.870056
   24       -5.861304
   25       -4.345868
   26       -4.227248
   27       -4.225655
   28       -4.100310
   29       -2.728529
   30       -2.714572
   31       -2.696634
   32       -2.645900
   33       -2.645579
   34       -2.632509
   35       -2.630648
   36       -2.557706
   37       -2.543649
   38       -1.479106
   39       -1.476789
   40       -0.424310
   41       -0.374082
   42       -0.370411
   43       -0.369709
   44       -0.319658
   45        0.023346
   46        0.039083
   47        0.083523
   48        0.086773
   49        0.147381
   50        0.731961
   51        0.734233
   52        1.201846
   53        1.240180
   54        1.245170
   55        1.284204
   56        1.767121
   57        1.770228
   58        2.058885
   59        2.692259
   60        2.695101
   61        2.698208
   62        2.699428
   63        3.685765
   64        3.694528
   65        7.401769
   66        7.404049
   67        7.848930
   68        7.851600
   69        7.853643
   70        7.857867
   71        8.473367
   72        8.476284
   73        9.666358
   74       10.231558
   75       10.235226
   76       10.990342
   77       11.155928
   78       12.772815
   79       13.076235
   80       13.078456
   81       13.217620
   82       13.578837
   83       13.579711
   84       13.585675
 
  0.4444444E+00  0.8326673E-16  0.0000000E+00  0.6172840E-02
    1      -13.203110
    2      -12.973383
    3      -12.972543
    4      -12.718721
    5      -12.548000
    6      -12.326460
    7      -12.325616
    8      -12.082024
    9      -10.017227
   10      -10.015125
   11       -9.830415
   12       -9.829518
   13       -9.828499
   14       -9.826427
   15       -9.627279
   16       -9.625082
   17       -5.371149
   18       -5.364095
   19       -5.276144
   20       -5.273338
   21       -5.269364
   22       -5.266318
   23       -5.179074
   24       -5.173233
   25       -3.467920
   26       -3.460575
   27       -3.404151
   28       -3.402529
   29       -3.396260
   30       -3.394014
   31       -3.324421
   32       -3.315683
   33       -2.855798
   34       -2.755951
   35       -2.753966
   36       -2.649546
   37       -2.078857
   38       -1.373448
   39       -1.300626
   40       -1.292768
   41       -1.292271
   42       -1.207996
   43       -0.884239
   44       -0.882161
   45       -0.141578
   46       -0.139359
   47        0.043643
   48        0.091286
   49        0.095227
   50        0.143464
   51        0.592607
   52        0.601396
   53        0.645307
   54        0.649852
   55        0.694156
   56        1.278285
   57        1.652816
   58        1.655138
   59        2.617929
   60        2.621217
   61        2.622351
   62        2.623742
   63        3.719154
   64        3.722874
   65        7.651095
   66        7.653944
   67        8.117603
   68        8.118657
   69        8.119547
   70        8.124262
   71        8.606232
   72        8.608918
   73       11.306408
   74       11.745413
   75       11.768759
   76       11.772197
   77       12.404894
   78       12.477457
   79       12.930592
   80       13.094599
   81       13.145124
   82       13.150664
   83       13.305344
   84       13.313594
 
 -0.1355253E-19  0.1111111E+00  0.0000000E+00  0.6172840E-02
    1      -14.307322
    2      -14.063641
    3      -14.062722
    4      -13.791428
    5       -9.817462
    6       -9.637081
    7       -9.636341
    8       -9.443545
    9       -9.270252
   10       -9.261305
   11       -9.112521
   12       -9.111728
   13       -9.103016
   14       -9.101023
   15       -8.953544
   16       -8.942331
   17       -7.620366
   18       -7.617560
   19       -7.500966
   20       -7.500113
   21       -7.495561
   22       -7.494939
   23       -7.353940
   24       -7.349413
   25       -7.115552
   26       -6.973368
   27       -6.972546
   28       -6.816703
   29       -3.411548
   30       -2.167198
   31       -2.164884
   32       -1.292187
   33       -1.276362
   34       -1.233677
   35       -1.230521
   36       -1.217316
   37       -1.215366
   38       -1.170639
   39       -1.155059
   40       -0.990966
   41       -0.937086
   42       -0.936306
   43       -0.881475
   44       -0.610056
   45        1.724983
   46        2.056368
   47        2.082362
   48        2.082909
   49        2.109053
   50        2.191979
   51        2.213730
   52        2.216579
   53        2.224205
   54        2.228110
   55        2.242720
   56        2.572037
   57        2.573269
   58        2.937275
   59        2.939513
   60        2.946382
   61        2.949744
   62        3.350465
   63        3.426717
   64        3.447647
   65        6.967527
   66        6.977415
   67        7.120614
   68        7.124130
   69        7.126968
   70        7.130233
   71        7.164173
   72        7.535500
   73        7.539145
   74        7.909108
   75        7.915050
   76        8.407608
   77       10.472364
   78       12.466371
   79       12.759528
   80       12.781870
   81       12.782759
   82       12.794001
   83       13.081825
   84       13.098353
 
  0.1111111E+00  0.1111111E+00  0.0000000E+00  0.6172840E-02
    1      -14.159158
    2      -13.917359
    3      -13.916451
    4      -13.647520
    5      -10.287467
    6      -10.284308
    7      -10.098037
    8      -10.095442
    9      -10.095411
   10      -10.091607
   11       -9.890695
   12       -9.887460
   13       -8.815579
   14       -8.703922
   15       -8.702909
   16       -8.624382
   17       -7.696322
   18       -7.658542
   19       -7.654442
   20       -7.559270
   21       -6.432690
   22       -6.429251
   23       -6.293748
   24       -6.290029
   25       -6.290006
   26       -6.286858
   27       -6.140955
   28       -6.137504
   29       -3.231891
   30       -1.994006
   31       -1.991694
   32       -1.966916
   33       -1.894567
   34       -1.892707
   35       -1.818217
   36       -1.148315
   37       -1.145651
   38       -1.089629
   39       -1.088722
   40       -1.088705
   41       -1.083949
   42       -1.028677
   43       -1.025627
   44       -0.446187
   45        1.269532
   46        1.272090
   47        1.522850
   48        1.548350
   49        1.552981
   50        1.574882
   51        1.883486
   52        1.900558
   53        1.906548
   54        1.928155
   55        2.212436
   56        2.213907
   57        2.214062
   58        2.218032
   59        2.621111
   60        3.216049
   61        3.218466
   62        3.254376
   63        3.256585
   64        3.578346
   65        6.918691
   66        6.924368
   67        6.955355
   68        7.545487
   69        7.571644
   70        7.574310
   71        8.074370
   72        8.079578
   73        8.080316
   74        8.082395
   75        8.924706
   76        8.927709
   77       10.643400
   78       12.842717
   79       12.846982
   80       13.153174
   81       13.156544
   82       13.156592
   83       13.161832
   84       13.481415
 
  0.2222222E+00  0.1111111E+00  0.0000000E+00  0.6172840E-02
    1      -13.863753
    2      -13.625661
    3      -13.624773
    4      -13.360515
    5      -11.259611
    6      -11.054931
    7      -11.054143
    8      -10.831064
    9      -10.630854
   10      -10.435032
   11      -10.434141
   12      -10.221560
   13       -8.881553
   14       -8.729267
   15       -8.728767
   16       -8.576294
   17       -7.269146
   18       -7.157883
   19       -7.154429
   20       -7.020438
   21       -5.641227
   22       -5.511408
   23       -5.510416
   24       -5.372611
   25       -5.042471
   26       -4.916536
   27       -4.915189
   28       -4.781682
   29       -2.882189
   30       -2.874212
   31       -2.796600
   32       -2.794799
   33       -2.704340
   34       -1.680905
   35       -1.649714
   36       -1.647406
   37       -1.611076
   38       -1.610740
   39       -1.538233
   40       -0.859043
   41       -0.803258
   42       -0.799847
   43       -0.742723
   44       -0.121397
   45        0.203160
   46        0.559687
   47        0.601337
   48        0.606016
   49        0.645652
   50        0.921782
   51        1.264063
   52        1.266273
   53        1.332817
   54        1.360603
   55        1.366905
   56        1.397737
   57        1.925850
   58        1.927413
   59        2.517110
   60        2.740825
   61        3.071941
   62        3.456142
   63        3.458369
   64        3.941221
   65        6.868378
   66        6.928519
   67        6.934078
   68        7.471083
   69        8.113150
   70        8.648882
   71        8.651878
   72        8.870714
   73        9.374436
   74        9.446081
   75        9.449562
   76       10.224529
   77       10.986823
   78       13.002559
   79       13.304343
   80       13.306243
   81       13.548315
   82       13.780919
   83       13.796034
   84       13.830419
 
  0.3333333E+00  0.1111111E+00  0.0000000E+00  0.6172840E-02
    1      -13.422511
    2      -13.190010
    3      -13.189153
    4      -12.931842
    5      -12.115555
    6      -11.899565
    7      -11.898740
    8      -11.661898
    9      -10.841285
   10      -10.642265
   11      -10.641362
   12      -10.425101
   13       -9.031666
   14       -8.863367
   15       -8.862797
   16       -8.684216
   17       -6.507666
   18       -6.390427
   19       -6.387153
   20       -6.262012
   21       -4.831041
   22       -4.722466
   23       -4.720728
   24       -4.608384
   25       -3.821227
   26       -3.735128
   27       -3.733115
   28       -3.636900
   29       -3.583581
   30       -3.475949
   31       -3.474373
   32       -3.361734
   33       -2.381844
   34       -2.342111
   35       -2.309328
   36       -2.308666
   37       -2.229532
   38       -1.139828
   39       -1.137427
   40       -0.786816
   41       -0.698170
   42       -0.632287
   43       -0.628788
   44       -0.564794
   45       -0.441047
   46       -0.388145
   47       -0.384606
   48       -0.330329
   49        0.342350
   50        0.344381
   51        0.358292
   52        0.699679
   53        0.705257
   54        0.740851
   55        0.746634
   56        0.788230
   57        1.717484
   58        1.741891
   59        1.743537
   60        2.717037
   61        2.963704
   62        3.546311
   63        3.548187
   64        4.329324
   65        6.712224
   66        7.049094
   67        7.053371
   68        7.576708
   69        8.616729
   70        9.104005
   71        9.106532
   72        9.645461
   73       10.440422
   74       10.950041
   75       10.953246
   76       11.500610
   77       11.607858
   78       12.949242
   79       13.311152
   80       13.504031
   81       13.506105
   82       13.585378
   83       13.619424
   84       13.628689
 
  0.4444444E+00  0.1111111E+00  0.0000000E+00  0.6172840E-02
    1      -12.840134
    2      -12.837031
    3      -12.615788
    4      -12.613717
    5      -12.612774
    6      -12.609668
    7      -12.365968
    8      -12.362783
    9      -10.912167
   10      -10.712549
   11      -10.711636
   12      -10.494062
   13       -9.087864
   14       -8.916431
   15       -8.915727
   16       -8.732510
   17       -5.980955
   18       -5.902127
   19       -5.899044
   20       -5.827832
   21       -4.338203
   22       -4.320042
   23       -4.280383
   24       -4.278405
   25       -4.271592
   26       -4.267843
   27       -4.214714
   28       -4.207965
   29       -2.780597
   30       -2.742123
   31       -2.739417
   32       -2.683904
   33       -2.114889
   34       -2.110741
   35       -2.029621
   36       -2.024874
   37       -2.022891
   38       -2.022640
   39       -1.935439
   40       -1.931563
   41       -1.643754
   42       -1.641120
   43       -0.470799
   44       -0.468454
   45       -0.467603
   46       -0.463991
   47        0.087561
   48        0.092566
   49        0.137308
   50        0.137396
   51        0.139564
   52        0.147675
   53        0.189035
   54        0.195746
   55        0.630407
   56        0.977611
   57        0.980574
   58        1.678109
   59        1.679809
   60        2.697266
   61        2.923230
   62        3.569912
   63        3.571333
   64        4.495308
   65        6.644459
   66        7.117237
   67        7.120194
   68        7.630577
   69        8.839911
   70        9.281170
   71        9.283817
   72        9.717978
   73       12.056885
   74       12.061268
   75       12.175120
   76       12.176914
   77       12.436077
   78       12.441717
   79       12.443190
   80       12.445898
   81       12.979210
   82       12.983628
   83       13.526248
   84       13.530631
 
 -0.4444444E+00  0.1111111E+00  0.0000000E+00  0.6172840E-02
    1      -13.423255
    2      -13.190749
    3      -13.189878
    4      -12.932580
    5      -12.114378
    6      -11.898383
    7      -11.897573
    8      -11.660726
    9      -10.843041
   10      -10.644121
   11      -10.643215
   12      -10.426911
   13       -9.028834
   14       -8.860349
   15       -8.859594
   16       -8.680672
   17       -6.501315
   18       -6.383011
   19       -6.381597
   20       -6.255630
   21       -4.840974
   22       -4.732886
   23       -4.729532
   24       -4.617451
   25       -3.831536
   26       -3.744923
   27       -3.744594
   28       -3.647747
   29       -3.586110
   30       -3.478725
   31       -3.476771
   32       -3.364384
   33       -2.369352
   34       -2.342903
   35       -2.297519
   36       -2.294938
   37       -2.216547
   38       -1.140607
   39       -1.138232
   40       -0.785619
   41       -0.696733
   42       -0.630133
   43       -0.628134
   44       -0.563421
   45       -0.438459
   46       -0.385842
   47       -0.381803
   48       -0.327817
   49        0.343478
   50        0.345541
   51        0.357527
   52        0.697947
   53        0.703744
   54        0.739873
   55        0.744007
   56        0.786085
   57        1.718716
   58        1.739694
   59        1.741412
   60        2.717960
   61        2.960341
   62        3.550409
   63        3.551388
   64        4.340302
   65        6.707908
   66        7.050969
   67        7.053474
   68        7.576228
   69        8.612922
   70        9.099975
   71        9.103509
   72        9.645097
   73       10.440903
   74       10.948839
   75       10.952371
   76       11.499441
   77       11.605386
   78       12.950230
   79       13.309153
   80       13.501461
   81       13.504309
   82       13.586014
   83       13.621616
   84       13.632474
 
 -0.3333333E+00  0.1111111E+00  0.0000000E+00  0.6172840E-02
    1      -13.864273
    2      -13.626194
    3      -13.625296
    4      -13.361036
    5      -11.258216
    6      -11.053534
    7      -11.052750
    8      -10.829661
    9      -10.634414
   10      -10.438569
   11      -10.437694
   12      -10.225248
   13       -8.875432
   14       -8.722264
   15       -8.721522
   16       -8.567696
   17       -7.265713
   18       -7.151985
   19       -7.151124
   20       -7.015181
   21       -5.651035
   22       -5.522017
   23       -5.519181
   24       -5.382109
   25       -5.044938
   26       -4.919151
   27       -4.917595
   28       -4.784243
   29       -2.895886
   30       -2.874810
   31       -2.809722
   32       -2.809158
   33       -2.718078
   34       -1.664901
   35       -1.650288
   36       -1.647988
   37       -1.595992
   38       -1.593770
   39       -1.522265
   40       -0.857038
   41       -0.801404
   42       -0.797768
   43       -0.740800
   44       -0.121992
   45        0.204489
   46        0.558637
   47        0.601490
   48        0.603138
   49        0.644034
   50        0.918739
   51        1.265283
   52        1.267567
   53        1.334623
   54        1.363195
   55        1.366373
   56        1.397803
   57        1.921619
   58        1.923336
   59        2.518188
   60        2.741563
   61        3.064995
   62        3.463711
   63        3.464363
   64        3.959984
   65        6.860155
   66        6.931238
   67        6.934265
   68        7.473357
   69        8.109457
   70        8.642764
   71        8.647186
   72        8.870699
   73        9.371874
   74        9.444600
   75        9.448429
   76       10.222024
   77       10.985957
   78       13.000574
   79       13.302292
   80       13.304701
   81       13.546743
   82       13.783392
   83       13.786084
   84       13.853479
 
 -0.2222222E+00  0.1111111E+00  0.0000000E+00  0.6172840E-02
    1      -14.159479
    2      -13.917678
    3      -13.916763
    4      -13.647846
    5      -10.291257
    6      -10.284282
    7      -10.101072
    8      -10.100277
    9      -10.093964
   10      -10.093135
   11       -9.894847
   12       -9.887544
   13       -8.805376
   14       -8.691589
   15       -8.690921
   16       -8.609939
   17       -7.697402
   18       -7.656488
   19       -7.655829
   20       -7.557637
   21       -6.438447
   22       -6.433635
   23       -6.298990
   24       -6.296319
   25       -6.293559
   26       -6.292153
   27       -6.146735
   28       -6.142059
   29       -3.232245
   30       -1.994360
   31       -1.992057
   32       -1.982351
   33       -1.909504
   34       -1.908803
   35       -1.833572
   36       -1.145013
   37       -1.130461
   38       -1.087518
   39       -1.084094
   40       -1.072399
   41       -1.070273
   42       -1.025275
   43       -1.010931
   44       -0.446547
   45        1.266346
   46        1.272503
   47        1.515913
   48        1.543149
   49        1.543941
   50        1.567920
   51        1.891343
   52        1.910324
   53        1.910857
   54        1.933642
   55        2.207171
   56        2.208901
   57        2.214930
   58        2.217596
   59        2.621411
   60        3.205806
   61        3.218501
   62        3.263724
   63        3.264455
   64        3.600864
   65        6.921934
   66        6.925486
   67        6.944382
   68        7.551508
   69        7.572227
   70        7.573066
   71        8.071377
   72        8.075379
   73        8.076396
   74        8.079925
   75        8.922477
   76        8.923047
   77       10.642852
   78       12.843997
   79       12.877113
   80       13.155237
   81       13.157354
   82       13.188538
   83       13.189821
   84       13.484336
 
 -0.1111111E+00  0.1111111E+00  0.0000000E+00  0.6172840E-02
    1      -14.307428
    2      -14.063747
    3      -14.062826
    4      -13.791533
    5       -9.824885
    6       -9.644759
    7       -9.644139
    8       -9.451712
    9       -9.261393
   10       -9.258966
   11       -9.103077
   12       -9.101605
   13       -9.101549
   14       -9.098146
   15       -8.942647
   16       -8.940238
   17       -7.619809
   18       -7.617781
   19       -7.499814
   20       -7.497139
   21       -7.497102
   22       -7.495759
   23       -7.352076
   24       -7.350105
   25       -7.121211
   26       -6.980030
   27       -6.977239
   28       -6.822429
   29       -3.411666
   30       -2.167316
   31       -2.165003
   32       -1.293575
   33       -1.291177
   34       -1.233878
   35       -1.233280
   36       -1.233261
   37       -1.228719
   38       -1.172245
   39       -1.169464
   40       -0.973808
   41       -0.920576
   42       -0.918530
   43       -0.864363
   44       -0.610177
   45        1.720603
   46        2.046031
   47        2.070299
   48        2.076127
   49        2.101035
   50        2.199955
   51        2.219542
   52        2.227651
   53        2.228672
   54        2.230907
   55        2.251617
   56        2.563982
   57        2.565806
   58        2.946311
   59        2.946872
   60        2.947133
   61        2.951368
   62        3.335184
   63        3.446110
   64        3.447825
   65        6.967992
   66        6.970248
   67        7.121307
   68        7.127527
   69        7.127975
   70        7.130241
   71        7.167296
   72        7.529964
   73        7.535528
   74        7.912645
   75        7.915933
   76        8.402129
   77       10.472176
   78       12.499705
   79       12.757131
   80       12.761057
   81       12.815243
   82       12.816307
   83       13.077291
   84       13.082779
 
 -0.4065758E-19  0.2222222E+00  0.0000000E+00  0.6172840E-02
    1      -14.085339
    2      -13.844492
    3      -13.843579
    4      -13.575822
    5      -10.837264
    6      -10.638308
    7      -10.637494
    8      -10.421544
    9       -9.624923
   10       -9.618615
   11       -9.448183
   12       -9.447276
   13       -9.441666
   14       -9.439593
   15       -9.258290
   16       -9.251203
   17       -6.949727
   18       -6.943146
   19       -6.812398
   20       -6.811380
   21       -6.804251
   22       -6.803721
   23       -6.660106
   24       -6.653010
   25       -5.786816
   26       -5.651188
   27       -5.650410
   28       -5.506232
   29       -3.142478
   30       -1.907871
   31       -1.906031
   32       -1.905438
   33       -1.890976
   34       -1.834969
   35       -1.832101
   36       -1.819299
   37       -1.817690
   38       -1.758449
   39       -1.743733
   40       -0.775559
   41       -0.722507
   42       -0.721789
   43       -0.667976
   44       -0.364837
   45        0.670079
   46        1.221237
   47        1.263193
   48        1.263806
   49        1.306077
   50        1.683564
   51        1.685275
   52        1.767268
   53        1.800171
   54        1.800664
   55        1.834058
   56        1.976471
   57        1.980989
   58        2.816189
   59        2.818565
   60        2.823787
   61        2.826801
   62        2.838767
   63        3.590247
   64        3.605751
   65        7.118480
   66        7.123895
   67        7.455524
   68        7.458473
   69        7.462202
   70        7.465135
   71        8.180922
   72        8.203137
   73        8.207952
   74        8.756958
   75        8.760257
   76        9.615052
   77       10.728425
   78       12.590876
   79       12.896555
   80       12.897358
   81       13.196335
   82       13.642388
   83       13.649864
   84       13.691872
 
  0.1111111E+00  0.2222222E+00  0.0000000E+00  0.6172840E-02
    1      -13.863748
    2      -13.625659
    3      -13.624763
    4      -13.360508
    5      -11.259570
    6      -11.054917
    7      -11.054074
    8      -10.831023
    9      -10.630884
   10      -10.435039
   11      -10.434188
   12      -10.221584
   13       -8.881541
   14       -8.729248
   15       -8.728759
   16       -8.576281
   17       -7.269217
   18       -7.157883
   19       -7.154608
   20       -7.020548
   21       -5.642312
   22       -5.512643
   23       -5.511334
   24       -5.373687
   25       -5.041392
   26       -4.915260
   27       -4.914321
   28       -4.780610
   29       -2.882089
   30       -2.874227
   31       -2.796431
   32       -2.794798
   33       -2.704267
   34       -1.679548
   35       -1.649727
   36       -1.647428
   37       -1.611037
   38       -1.607961
   39       -1.536757
   40       -0.860433
   41       -0.803275
   42       -0.802790
   43       -0.744311
   44       -0.121419
   45        0.202757
   46        0.561242
   47        0.603601
   48        0.606017
   49        0.646457