 running on    6 total cores
 distrk:  each k-point on    6 cores,    1 groups
 distr:  one band on    1 cores,    6 groups
 using from now: INCAR     
 vasp.5.3.5 31Mar14 (build Nov 02 2014 15:17:37) complex                        
  
 POSCAR found :  1 types and      32 ions
 scaLAPACK will be used

 ----------------------------------------------------------------------------- 
|                                                                             |
|           W    W    AA    RRRRR   N    N  II  N    N   GGGG   !!!           |
|           W    W   A  A   R    R  NN   N  II  NN   N  G    G  !!!           |
|           W    W  A    A  R    R  N N  N  II  N N  N  G       !!!           |
|           W WW W  AAAAAA  RRRRR   N  N N  II  N  N N  G  GGG   !            |
|           WW  WW  A    A  R   R   N   NN  II  N   NN  G    G                |
|           W    W  A    A  R    R  N    N  II  N    N   GGGG   !!!           |
|                                                                             |
|      For optimal performance we recommend to set                            |
|        NCORE= 4 - approx SQRT( number of cores)                             |
|      NCORE specifies how many cores store one orbital (NPAR=cpu/NCORE).     |
|      This setting can  greatly improve the performance of VASP for DFT.     |
|      The default, NPAR=number of cores might be grossly inefficient         |
|      on modern multi-core architectures or massively parallel machines.     |
|      Do your own testing !!!!                                               |
|      Unfortunately you need to use the default for GW and RPA calculations. |
|      (for HF NCORE is supported but not extensively tested yet)             |
|                                                                             |
 ----------------------------------------------------------------------------- 


 ----------------------------------------------------------------------------- 
|                                                                             |
|  ADVICE TO THIS USER RUNNING 'VASP/VAMP'   (HEAR YOUR MASTER'S VOICE ...):  |
|                                                                             |
|      You have a (more or less) 'large supercell' and for larger cells       |
|      it might be more efficient to use real space projection operators      |
|      So try LREAL= Auto  in the INCAR   file.                               |
|      Mind: If you want to do a very accurate calculations keep the          |
|      reciprocal projection scheme          (i.e. LREAL=.FALSE.)             |
|                                                                             |
 ----------------------------------------------------------------------------- 

 LDA part: xc-table for Pade appr. of Perdew
 POSCAR, INCAR and KPOINTS ok, starting setup
 WARNING: small aliasing (wrap around) errors must be expected
 FFT: planning ...
 WAVECAR not read
 WARNING: random wavefunctions but no delay for mixing, default for NELMDL
 entering main loop
       N       E                     dE             d eps       ncg     rms          rms(c)
DAV:   1     0.547940586304E+03    0.54794E+03   -0.72898E+04 27384   0.162E+03
DAV:   2    -0.266427240622E+03   -0.81437E+03   -0.78401E+03 34032   0.309E+02
DAV:   3    -0.310836024848E+03   -0.44409E+02   -0.43961E+02 33360   0.718E+01
DAV:   4    -0.311623027328E+03   -0.78700E+00   -0.78545E+00 33888   0.103E+01
DAV:   5    -0.311645583576E+03   -0.22556E-01   -0.22546E-01 33792   0.167E+00    0.220E+01
DAV:   6    -0.297802899953E+03    0.13843E+02   -0.14234E+01 31284   0.106E+01    0.115E+01
DAV:   7    -0.293498402294E+03    0.43045E+01   -0.14428E+01 31152   0.107E+01    0.186E+00
DAV:   8    -0.293542184641E+03   -0.43782E-01   -0.33206E-01 31200   0.171E+00    0.340E-01
DAV:   9    -0.293543844875E+03   -0.16602E-02   -0.17575E-02 33012   0.442E-01    0.133E-01
DAV:  10    -0.293544119362E+03   -0.27449E-03   -0.42248E-03 34584   0.201E-01    0.952E-02
DAV:  11    -0.293544353820E+03   -0.23446E-03   -0.10326E-03 31380   0.108E-01    0.558E-02
DAV:  12    -0.293544631522E+03   -0.27770E-03   -0.23709E-03 33564   0.922E-02    0.626E-02
DAV:  13    -0.293544550830E+03    0.80692E-04   -0.61033E-04 34440   0.821E-02    0.339E-02
DAV:  14    -0.293544544006E+03    0.68240E-05   -0.15594E-04 31404   0.257E-02    0.248E-02
DAV:  15    -0.293544556563E+03   -0.12557E-04   -0.33177E-04 34932   0.241E-02    0.352E-02
DAV:  16    -0.293544545461E+03    0.11102E-04   -0.19330E-05 29712   0.107E-02    0.229E-02
DAV:  17    -0.293544542804E+03    0.26570E-05   -0.86751E-05 23124   0.119E-02    0.141E-02
DAV:  18    -0.293544542611E+03    0.19366E-06   -0.54517E-05 24852   0.966E-03    0.148E-02
DAV:  19    -0.293544541189E+03    0.14215E-05   -0.13429E-05 19548   0.517E-03    0.560E-03
DAV:  20    -0.293544541093E+03    0.95790E-07   -0.16106E-06 19560   0.202E-03
   1 F= -.29700229E+03 E0= -.29700229E+03  d E =0.000000E+00
