       N       E                     dE             d eps       ncg     rms          rms(c)
DAV:   1     0.558172495360E+03    0.55817E+03   -0.72566E+04 27384   0.161E+03
DAV:   2    -0.266010201040E+03   -0.82418E+03   -0.79399E+03 33924   0.310E+02
DAV:   3    -0.311560199981E+03   -0.45550E+02   -0.45084E+02 33408   0.725E+01
DAV:   4    -0.312382609956E+03   -0.82241E+00   -0.82085E+00 34152   0.106E+01
DAV:   5    -0.312406587964E+03   -0.23978E-01   -0.23967E-01 34320   0.170E+00    0.221E+01
DAV:   6    -0.298325396467E+03    0.14081E+02   -0.14523E+01 31296   0.107E+01    0.116E+01
DAV:   7    -0.293931566732E+03    0.43938E+01   -0.14834E+01 31176   0.108E+01    0.188E+00
DAV:   8    -0.293980656482E+03   -0.49090E-01   -0.34480E-01 31008   0.171E+00    0.253E-01
DAV:   9    -0.293982294669E+03   -0.16382E-02   -0.11421E-02 32844   0.376E-01    0.108E-01
DAV:  10    -0.293983142764E+03   -0.84810E-03   -0.51735E-03 37704   0.216E-01    0.668E-02
DAV:  11    -0.293983112055E+03    0.30709E-04   -0.80025E-04 31716   0.111E-01    0.446E-02
DAV:  12    -0.293983166458E+03   -0.54403E-04   -0.75048E-04 36648   0.747E-02    0.256E-02
DAV:  13    -0.293983158983E+03    0.74752E-05   -0.17430E-04 31512   0.362E-02    0.949E-03
DAV:  14    -0.293983160412E+03   -0.14287E-05   -0.33978E-05 30264   0.105E-02    0.109E-02
DAV:  15    -0.293983159384E+03    0.10275E-05   -0.61141E-06 20748   0.466E-03    0.320E-03
DAV:  16    -0.293983162215E+03   -0.28308E-05   -0.38384E-05 21312   0.843E-03    0.147E-02
DAV:  17    -0.293983159256E+03    0.29592E-05   -0.10841E-05 19560   0.571E-03    0.461E-03
DAV:  18    -0.293983159522E+03   -0.26569E-06   -0.99378E-06 19536   0.379E-03
   1 F= -.29943353E+03 E0= -.29943353E+03  d E =0.000000E+00
