    4    4  200    1
  0.6647258E+01  0.2467155E-09  0.2467155E-09  0.5044307E-09  0.5000000E-15
  1.000000000000000E-004
  CAR 
 graphite                                
     16    455     12
 
  0.0000000E+00  0.0000000E+00  0.0000000E+00  0.3858025E-03
    1      -12.850345
    2      -10.913249
    3       -2.698053
    4        3.972644
    5        4.517765
    6        4.522336
    7        4.755748
    8        4.760174
    9       15.730679
   10       15.733544
   11       16.165522
   12       16.168835
 
  0.5555556E-01  0.3469447E-17  0.0000000E+00  0.1543210E-02
    1      -12.774514
    2      -10.843344
    3       -2.607103
    4        4.046505
    5        4.186874
    6        4.337652
    7        4.491949
    8        4.625177
    9       15.730405
   10       16.042991
   11       16.165898
   12       16.488658
 
  0.1111111E+00  0.6938894E-17  0.0000000E+00  0.1543210E-02
    1      -12.547140
    2      -10.633977
    3       -2.334721
    4        3.289511
    5        3.740299
    6        3.877280
    7        4.253926
    8        4.266147
    9       15.621132
   10       16.236678
   11       16.922797
   12       16.984289
 
  0.1666667E+00  0.0000000E+00  0.0000000E+00  0.1543210E-02
    1      -12.169380
    2      -10.286151
    3       -1.882917
    4        2.024458
    5        2.641674
    6        3.280079
    7        3.731818
    8        4.623821
    9       15.345303
   10       15.837836
   11       16.340850
   12       17.372569
 
  0.2222222E+00  0.0000000E+00  0.0000000E+00  0.1543210E-02
    1      -11.643092
    2       -9.801894
    3       -1.255722
    4        0.560825
    5        1.343295
    6        2.658323
    7        3.163680
    8        5.102527
    9       14.300428
   10       14.981228
   11       16.385300
   12       16.658280
 
  0.2777778E+00 -0.2775558E-16  0.0000000E+00  0.1543210E-02
    1      -10.971224
    2       -9.184307
    3       -0.981609
    4       -0.460396
    5       -0.044776
    6        2.086180
    7        2.627842
    8        5.664114
    9       12.645900
   10       14.610419
   11       15.449370
   12       16.353248
 
  0.3333333E+00  0.0000000E+00  0.0000000E+00  0.1543210E-02
    1      -10.158742
    2       -8.439125
    3       -2.523048
    4       -1.447708
    5        0.489853
    6        1.608890
    7        2.174683
    8        6.205409
    9       11.094795
   10       14.218742
   11       14.285891
   12       16.278568
 
  0.3888889E+00  0.0000000E+00  0.0000000E+00  0.1543210E-02
    1       -9.213725
    2       -7.580653
    3       -4.003810
    4       -2.813035
    5        1.253139
    6        1.565853
    7        1.833930
    8        6.416424
    9       10.045469
   10       13.003064
   11       14.038213
   12       16.199675
 
  0.4444444E+00  0.0000000E+00  0.0000000E+00  0.1543210E-02
    1       -8.159242
    2       -6.688376
    3       -5.311071
    4       -4.097168
    5        1.034509
    6        1.623557
    7        2.677325
    8        5.889890
    9       10.001335
   10       11.854591
   11       13.884135
   12       16.143064
 
  0.5000000E+00  0.5551115E-16  0.0000000E+00  0.7716049E-03
    1       -7.273984
    2       -6.694697
    3       -5.420493
    4       -5.083869
    5        0.960851
    6        1.552554
    7        3.345756
    8        5.321137
    9       10.500804
   10       11.049379
   11       13.831924
   12       16.122683
 
  0.5555556E-01  0.5555556E-01  0.0000000E+00  0.7716049E-03
    1      -12.622893
    2      -10.703674
    3       -2.425305
    4        3.631343
    5        3.856197
    6        4.135528
    7        4.193264
    8        4.320506
    9       15.803765
   10       16.153201
   11       16.600156
   12       17.015953
 
  0.1111111E+00  0.5555556E-01  0.0000000E+00  0.1543210E-02
    1      -12.320331
    2      -10.425114
    3       -2.063281
    4        2.613143
    5        3.026033
    6        3.499535
    7        3.820324
    8        4.482311
    9       15.754610
   10       16.345264
   11       16.363291
   12       17.244159
 
  0.1666667E+00  0.5555556E-01  0.0000000E+00  0.1543210E-02
    1      -11.868293
    2      -10.009077
    3       -1.523679
    4        1.282129
    5        1.922336
    6        2.788375
    7        3.245480
    8        4.902161
    9       14.983766
   10       15.479400
   11       16.574895
   12       17.066289
 
  0.2222222E+00  0.5555556E-01  0.0000000E+00  0.1543210E-02
    1      -11.269164
    2       -9.458052
    3       -0.811824
    4       -0.201360
    5        0.628274
    6        2.139082
    7        2.675124
    8        5.428259
    9       13.407747
   10       15.125553
   11       15.889595
   12       16.651436
 
  0.2777778E+00  0.5555556E-01  0.0000000E+00  0.1543210E-02
    1      -10.526802
    2       -8.776409
    3       -1.732348
    4       -0.742528
    5        0.062406
    6        1.587745
    7        2.169902
    8        6.000937
    9       11.798670
   10       14.683264
   11       14.781216
   12       16.624253
 
  0.3333333E+00  0.5555556E-01  0.0000000E+00  0.1543210E-02
    1       -9.647625
    2       -7.973035
    3       -3.239061
    4       -2.113979
    5        1.080082
    6        1.157580
    7        1.766993
    8        6.442216
    9       10.437870
   10       13.480187
   11       14.495052
   12       16.555261
 
  0.3888889E+00  0.5555556E-01  0.0000000E+00  0.1543210E-02
    1       -8.644400
    2       -7.075267
    3       -4.653422
    4       -3.433876
    5        0.863609
    6        1.488494
    7        2.193077
    8        6.302744
    9        9.861866
   10       12.312403
   11       14.293299
   12       16.489098
 
  0.4444444E+00  0.5555556E-01  0.0000000E+00  0.1543210E-02
    1       -7.572231
    2       -6.454535
    3       -5.564367
    4       -4.642569
    5        0.714454
    6        1.346677
    7        3.204519
    8        5.567274
    9       10.257071
   10       11.246641
   11       14.189542
   12       16.450781
 
  0.5000000E+00  0.5555556E-01  0.0000000E+00  0.1543210E-02
    1       -7.572425
    2       -6.454497
    3       -5.564396
    4       -4.642349
    5        0.714418
    6        1.346638
    7        3.204444
    8        5.567347
    9       10.257029
   10       11.246627
   11       14.189623
   12       16.450877
 
 -0.4444444E+00  0.5555556E-01  0.0000000E+00  0.1543210E-02
    1       -8.644600
    2       -7.075452
    3       -4.653181
    4       -3.433639
    5        0.863510
    6        1.488381
    7        2.192961
    8        6.302842
    9        9.861780
   10       12.312323
   11       14.293542
   12       16.489394
 
 -0.3888889E+00  0.5555556E-01  0.0000000E+00  0.1543210E-02
    1       -9.647804
    2       -7.973209
    3       -3.238810
    4       -2.113773
    5        1.079967
    6        1.157458
    7        1.766826
    8        6.442266
    9       10.437767
   10       13.480037
   11       14.495467
   12       16.555786
 
 -0.3333333E+00  0.5555556E-01  0.0000000E+00  0.1543210E-02
    1      -10.526954
    2       -8.776559
    3       -1.732132
    4       -0.742432
    5        0.062301
    6        1.587688
    7        2.169723
    8        6.000944
    9       11.798515
   10       14.683051
   11       14.781817
   12       16.625067
 
 -0.2777778E+00  0.5555556E-01  0.0000000E+00  0.1543210E-02
    1      -11.269288
    2       -9.458175
    3       -0.811914
    4       -0.201251
    5        0.628076
    6        2.139296
    7        2.675018
    8        5.428246
    9       13.407486
   10       15.126374
   11       15.889348
   12       16.652651
 
 -0.2222222E+00  0.5555556E-01  0.0000000E+00  0.1543210E-02
    1      -11.868390
    2      -10.009173
    3       -1.523751
    4        1.281968
    5        1.921413
    6        2.789330
    7        3.245628
    8        4.902142
    9       14.983368
   10       15.480518
   11       16.576680
   12       17.066053
 
 -0.1666667E+00  0.5555556E-01  0.0000000E+00  0.1543210E-02
    1      -12.320400
    2      -10.425182
    3       -2.063334
    4        2.612291
    5        3.023919
    6        3.501743
    7        3.821153
    8        4.482294
    9       15.756270
   10       16.344775
   11       16.365751
   12       17.238035
 
 -0.1111111E+00  0.5555556E-01  0.0000000E+00  0.1543210E-02
    1      -12.622935
    2      -10.703715
    3       -2.425337
    4        3.628653
    5        3.855177
    6        4.136700
    7        4.193253
    8        4.323167
    9       15.806607
   10       16.155301
   11       16.598518
   12       16.930177
 
 -0.5555556E-01  0.5555556E-01  0.0000000E+00  0.7716049E-03
    1      -12.774528
    2      -10.843358
    3       -2.607114
    4        4.046500
    5        4.183542
    6        4.341004
    7        4.488716
    8        4.628457
    9       15.732828
   10       16.040836
   11       16.168192
   12       16.486200
 
  0.1111111E+00  0.1111111E+00  0.0000000E+00  0.7716049E-03
    1      -11.943475
    2      -10.078300
    3       -1.613197
    4        1.705946
    5        2.063617
    6        2.850892
    7        3.112892
    8        4.834589
    9       15.257264
   10       16.188417
   11       16.577483
   12       17.172787
 
  0.1666667E+00  0.1111111E+00  0.0000000E+00  0.1543210E-02
    1      -11.418640
    2       -9.595509
    3       -0.988533
    4        0.484036
    5        1.034289
    6        2.021611
    7        2.422648
    8        5.307128
    9       13.909526
   10       16.027635
   11       16.155508
   12       17.082564
 
  0.2222222E+00  0.1111111E+00  0.0000000E+00  0.1543210E-02
    1      -10.748973
    2       -8.980230
    3       -0.934874
    4       -0.196225
    5       -0.126664
    6        1.269781
    7        1.834096
    8        5.865207
    9       12.406068
   10       14.848080
   11       15.867427
   12       17.400959
 
  0.2777778E+00  0.1111111E+00  0.0000000E+00  0.1543210E-02
    1       -9.939622
    2       -8.238907
    3       -2.407490
    4       -1.403749
    5        0.700731
    6        0.750264
    7        1.355825
    8        6.415625
    9       10.934300
   10       13.690685
   11       15.567223
   12       17.455811
 
  0.3333333E+00  0.1111111E+00  0.0000000E+00  0.1543210E-02
    1       -8.999499
    2       -7.385794
    3       -3.847361
    4       -2.702244
    5        0.302367
    6        1.003532
    7        1.822269
    8        6.657966
    9        9.890915
   10       12.569195
   11       15.325466
   12       17.417059
 
  0.3888889E+00  0.1111111E+00  0.0000000E+00  0.1543210E-02
    1       -7.952275
    2       -6.501539
    3       -5.130084
    4       -3.949027
    5        0.064831
    6        0.788047
    7        2.931266
    8        6.137681
    9        9.845587
   10       11.501085
   11       15.171823
   12       17.372004
 
  0.4444444E+00  0.1111111E+00  0.0000000E+00  0.1543210E-02
    1       -7.077587
    2       -6.499130
    3       -5.239641
    4       -4.919839
    5       -0.014298
    6        0.715556
    7        3.601347
    8        5.559664
    9       10.514956
   10       10.562511
   11       15.119428
   12       17.354209
 
  0.5000000E+00  0.1111111E+00  0.0000000E+00  0.1543210E-02
    1       -7.952653
    2       -6.501835
    3       -5.129707
    4       -3.948569
    5        0.064735
    6        0.788060
    7        2.931060
    8        6.137880
    9        9.845420
   10       11.501017
   11       15.172113
   12       17.372394
 
 -0.4444444E+00  0.1111111E+00  0.0000000E+00  0.1543210E-02
    1       -8.999878
    2       -7.386159
    3       -3.846875
    4       -2.701833
    5        0.302234
    6        1.003305
    7        1.822040
    8        6.658130
    9        9.890663
   10       12.569008
   11       15.326066
   12       17.417882
 
 -0.3888889E+00  0.1111111E+00  0.0000000E+00  0.1543210E-02
    1       -9.939952
    2       -8.239231
    3       -2.407056
    4       -1.403544
    5        0.700727
    6        0.750047
    7        1.355571
    8        6.415682
    9       10.933966
   10       13.690401
   11       15.568183
   12       17.457264
 
 -0.3333333E+00  0.1111111E+00  0.0000000E+00  0.1543210E-02
    1      -10.749249
    2       -8.980502
    3       -0.934652
    4       -0.196417
    5       -0.127013
    6        1.270284
    7        1.833981
    8        5.865203
    9       12.405538
   10       14.847754
   11       15.868867
   12       17.403430
 
 -0.2777778E+00  0.1111111E+00  0.0000000E+00  0.1543210E-02
    1      -11.418862
    2       -9.595728
    3       -0.988693
    4        0.483655
    5        1.033000
    6        2.023066
    7        2.423085
    8        5.307098
    9       13.908719
   10       16.027336
   11       16.157776
   12       17.086256
 
 -0.2222222E+00  0.1111111E+00  0.0000000E+00  0.1543210E-02
    1      -11.943641
    2      -10.078464
    3       -1.613320
    4        1.704058
    5        2.062000
    6        2.852709
    7        3.114845
    8        4.834554
    9       15.256236
   10       16.192644
   11       16.580625
   12       17.172554
 
 -0.1666667E+00  0.1111111E+00  0.0000000E+00  0.1543210E-02
    1      -12.320442
    2      -10.425223
    3       -2.063365
    4        2.610093
    5        3.023755
    6        3.502049
    7        3.823480
    8        4.482283
    9       15.758575
   10       16.344245
   11       16.366515
   12       17.247236
 
 -0.1111111E+00  0.1111111E+00  0.0000000E+00  0.7716049E-03
    1      -12.547196
    2      -10.634032
    3       -2.334764
    4        3.286366
    5        3.737272
    6        3.880508
    7        4.257152
    8        4.266131
    9       15.624075
   10       16.239094
   11       16.920758
   12       16.984088
 
  0.1666667E+00  0.1666667E+00  0.0000000E+00  0.7716049E-03
    1      -10.823231
    2       -9.048452
    3       -0.428077
    4       -0.282973
    5        0.025248
    6        1.172858
    7        1.497546
    8        5.817902
    9       12.667433
   10       14.854005
   11       17.027722
   12       17.467095
 
  0.2222222E+00  0.1666667E+00  0.0000000E+00  0.1543210E-02
    1      -10.086423
    2       -8.372898
    3       -1.631871
    4       -0.957004
    5        0.297815
    6        0.583620
    7        0.797307
    8        6.387625
    9       11.313684
   10       13.699804
   11       17.018662
   12       18.299081
 
  0.2777778E+00  0.1666667E+00  0.0000000E+00  0.1543210E-02
    1       -9.215285
    2       -7.578847
    3       -2.990256
    4       -2.034723
    5       -0.372473
    6        0.323343
    7        1.592365
    8        6.872686
    9       10.042699
   10       12.628828
   11       16.775991
   12       18.700119
 
  0.3333333E+00  0.1666667E+00  0.0000000E+00  0.1543210E-02
    1       -8.224092
    2       -6.695245
    3       -4.326968
    4       -3.205470
    5       -0.773405
    6        0.016234
    7        2.696896
    8        6.799282
    9        9.415630
   10       11.647015
   11       16.578932
   12       18.731374
 
  0.3888889E+00  0.1666667E+00  0.0000000E+00  0.1543210E-02
    1       -7.170627
    2       -6.079144
    3       -5.207991
    4       -4.341640
    5       -0.960974
    6       -0.136325
    7        3.706545
    8        6.043824
    9        9.705988
   10       10.811777
   11       16.473604
   12       18.711401
 
  0.4444444E+00  0.1666667E+00  0.0000000E+00  0.1543210E-02
    1       -7.171201
    2       -6.079045
    3       -5.208075
    4       -4.341025
    5       -0.961001
    6       -0.136395
    7        3.706339
    8        6.044027
    9        9.705806
   10       10.811774
   11       16.473788
   12       18.711678
 
  0.5000000E+00  0.1666667E+00  0.0000000E+00  0.1543210E-02
    1       -8.224689
    2       -6.695794
    3       -4.326308
    4       -3.204909
    5       -0.773413
    6        0.016054
    7        2.696576
    8        6.799596
    9        9.415190
   10       11.646894
   11       16.579513
   12       18.732334
 
 -0.4444444E+00  0.1666667E+00  0.0000000E+00  0.1543210E-02
    1       -9.215810
    2       -7.579363
    3       -2.989666
    4       -2.034437
    5       -0.372097
    6        0.323186
    7        1.592043
    8        6.872871
    9       10.042091
   10       12.628621
   11       16.777083
   12       18.702396
 
 -0.3888889E+00  0.1666667E+00  0.0000000E+00  0.1543210E-02
    1      -10.086878
    2       -8.373345
    3       -1.631709
    4       -0.957577
    5        0.298828
    6        0.583323
    7        0.797449
    8        6.387671
    9       11.312812
   10       13.699589
   11       17.020650
   12       18.303718
 
 -0.3333333E+00  0.1666667E+00  0.0000000E+00  0.1543210E-02
    1      -10.823604
    2       -9.048820
    3       -0.429181
    4       -0.283230
    5        0.024318
    6        1.174184
    7        1.498915
    8        5.817883
    9       12.666186
   10       14.853838
   11       17.032790
   12       17.470630
 
 -0.2777778E+00  0.1666667E+00  0.0000000E+00  0.1543210E-02
    1      -11.418931
    2       -9.595796
    3       -0.988740
    4        0.481818
    5        1.032664
    6        2.023615
    7        2.425156
    8        5.307085
    9       13.907981
   10       16.027497
   11       16.160657
   12       17.086808
 
 -0.2222222E+00  0.1666667E+00  0.0000000E+00  0.1543210E-02
    1      -11.868501
    2      -10.009282
    3       -1.523831
    4        1.279450
    5        1.919744
    6        2.791375
    7        3.248470
    8        4.902118
    9       14.982165
   10       15.483623
   11       16.578794
   12       17.066174
 
 -0.1666667E+00  0.1666667E+00  0.0000000E+00  0.7716049E-03
    1      -12.169505
    2      -10.286274
    3       -1.883010
    4        2.021587
    5        2.638904
    6        3.283217
    7        3.734963
    8        4.623791
    9       15.348687
   10       15.836536
   11       16.343731
   12       17.372737
 
  0.2222222E+00  0.2222222E+00  0.0000000E+00  0.7716049E-03
    1       -9.287539
    2       -7.644053
    3       -2.410895
    4       -1.881368
    5       -0.561686
    6       -0.186610
    7        1.514655
    8        6.940045
    9       10.135668
   10       12.614693
   11       18.246837
   12       18.574366
 
  0.2777778E+00  0.2222222E+00  0.0000000E+00  0.1543210E-02
    1       -8.363176
    2       -6.809912
    3       -3.501486
    4       -2.723242
    5       -1.362363
    6       -0.772775
    7        2.568791
    8        7.319716
    9        9.059190
   10       11.692870
   11       18.192342
   12       19.723953
 
  0.3333333E+00  0.2222222E+00  0.0000000E+00  0.1543210E-02
    1       -7.339535
    2       -5.948017
    3       -4.653763
    4       -3.656298
    5       -1.856499
    6       -1.056991
    7        3.662597
    8        6.858049
    9        8.803688
   10       10.982441
   11       18.035481
   12       20.317481
 
  0.3888889E+00  0.2222222E+00  0.0000000E+00  0.1543210E-02
    1       -6.495781
    2       -5.924088
    3       -4.726538
    4       -4.548330
    5       -2.003256
    6       -1.145747
    7        4.331524
    8        6.241447
    9        8.959721
   10       10.664622
   11       17.979012
   12       20.330690
 
  0.4444444E+00  0.2222222E+00  0.0000000E+00  0.1543210E-02
    1       -7.340343
    2       -5.948624
    3       -4.653120
    4       -3.655711
    5       -1.856251
    6       -1.057057
    7        3.662255
    8        6.858411
    9        8.803233
   10       10.982369
   11       18.035886
   12       20.318879
 
  0.5000000E+00  0.2222222E+00  0.0000000E+00  0.1543210E-02
    1       -8.363927
    2       -6.810632
    3       -3.500912
    4       -2.723239
    5       -1.361533
    6       -0.772702
    7        2.568395
    8        7.320147
    9        9.058252
   10       11.692767
   11       18.193367
   12       19.729874
 
 -0.4444444E+00  0.2222222E+00  0.0000000E+00  0.1543210E-02
    1       -9.288196
    2       -7.644697
    3       -2.411331
    4       -1.881647
    5       -0.560649
    6       -0.185571
    7        1.514268
    8        6.940210
    9       10.134455
   10       12.614634
   11       18.251808
   12       18.577069
 
 -0.3888889E+00  0.2222222E+00  0.0000000E+00  0.1543210E-02
    1      -10.086975
    2       -8.373442
    3       -1.633330
    4       -0.957863
    5        0.299344
    6        0.583270
    7        0.799362
    8        6.387655
    9       11.312077
   10       13.699783
   11       17.024332
   12       18.303754
 
 -0.3333333E+00  0.2222222E+00  0.0000000E+00  0.1543210E-02
    1      -10.749415
    2       -8.980667
    3       -0.936817
    4       -0.196521
    5       -0.128416
    6        1.272186
    7        1.836620
    8        5.865178
    9       12.404165
   10       14.848012
   11       15.872464
   12       17.405968
 
 -0.2777778E+00  0.2222222E+00  0.0000000E+00  0.1543210E-02
    1      -11.269496
    2       -9.458380
    3       -0.812055
    4       -0.203661
    5        0.626003
    6        2.142010
    7        2.678004
    8        5.428211
    9       13.405747
   10       15.129904
   11       15.889485
   12       16.655670
 
 -0.2222222E+00  0.2222222E+00  0.0000000E+00  0.7716049E-03
    1      -11.643313
    2       -9.802113
    3       -1.255880
    4        0.558261
    5        1.340819
    6        2.661401
    7        3.166762
    8        5.102484
    9       14.298602
   10       14.984930
   11       16.388680
   12       16.658265
 
  0.2777778E+00  0.2777778E+00  0.0000000E+00  0.7716049E-03
    1       -7.401616
    2       -5.965220
    3       -4.096282
    4       -3.494016
    5       -2.078905
    6       -1.695733
    7        3.633240
    8        7.650535
    9        7.997501
   10       11.040823
   11       19.566039
   12       19.585739
 
  0.3333333E+00  0.2777778E+00  0.0000000E+00  0.1543210E-02
    1       -6.393860
    2       -5.340488
    3       -4.768431
    4       -4.139191
    5       -2.641008
    6       -2.072706
    7        4.603149
    8        6.909325
    9        7.941773
   10       10.716908
   11       19.448281
   12       20.609531
 
  0.3888889E+00  0.2777778E+00  0.0000000E+00  0.1543210E-02
    1       -6.394768
    2       -5.340348
    3       -4.768638
    4       -4.138755
    5       -2.640511
    6       -2.072616
    7        4.602948
    8        6.909378
    9        7.941690
   10       10.716822
   11       19.448393
   12       20.613830
 
  0.4444444E+00  0.2777778E+00  0.0000000E+00  0.1543210E-02
    1       -7.402588
    2       -5.966105
    3       -4.096196
    4       -3.493827
    5       -2.078027
    6       -1.694878
    7        3.632865
    8        7.651289
    9        7.996328
   10       11.040674
   11       19.567350
   12       19.589985
 
  0.5000000E+00  0.2777778E+00  0.0000000E+00  0.1543210E-02
    1       -8.364052
    2       -6.810764
    3       -3.502294
    4       -2.723456
    5       -1.361121
    6       -0.770991
    7        2.568368
    8        7.319922
    9        9.057916
   10       11.692815
   11       18.197760
   12       19.734863
 
 -0.4444444E+00  0.2777778E+00  0.0000000E+00  0.1543210E-02
    1       -9.216032
    2       -7.579588
    3       -2.991520
    4       -2.035652
    5       -0.370363
    6        0.325568
    7        1.591951
    8        6.872758
    9       10.040944
   10       12.628820
   11       16.781280
   12       18.705652
 
 -0.3888889E+00  0.2777778E+00  0.0000000E+00  0.1543210E-02
    1       -9.940242
    2       -8.239521
    3       -2.409114
    4       -1.405295
    5        0.703250
    6        0.749891
    7        1.358362
    8        6.415622
    9       10.932235
   10       13.690575
   11       15.572132
   12       17.460806
 
 -0.3333333E+00  0.2777778E+00  0.0000000E+00  0.1543210E-02
    1      -10.527286
    2       -8.776888
    3       -1.734304
    4       -0.744444
    5        0.062098
    6        1.590614
    7        2.172745
    8        6.000898
    9       11.796474
   10       14.683061
   11       14.785629
   12       16.628620
 
 -0.2777778E+00  0.2777778E+00  0.0000000E+00  0.7716049E-03
    1      -10.971570
    2       -9.184650
    3       -0.983856
    4       -0.460625
    5       -0.046950
    6        2.089227
    7        2.630889
    8        5.664068
    9       12.643767
   10       14.614341
   11       15.449259
   12       16.356991
 
  0.3333333E+00  0.3333333E+00  0.0000000E+00  0.7716049E-03
    1       -5.722269
    2       -5.093854
    3       -5.093160
    4       -4.246528
    5       -2.746332
    6       -2.745808
    7        5.094849
    8        7.183372
    9        7.185096
   10       10.665896
   11       20.306832
   12       20.699248
 
  0.3888889E+00  0.3333333E+00  0.0000000E+00  0.1543210E-02
    1       -6.394958
    2       -5.341166
    3       -4.768802
    4       -4.139130
    5       -2.640211
    6       -2.071208
    7        4.603068
    8        6.908112
    9        7.942564
   10       10.716656
   11       19.452791
   12       20.613483
 
  0.4444444E+00  0.3333333E+00  0.0000000E+00  0.1543210E-02
    1       -7.340628
    2       -5.949022
    3       -4.654507
    4       -3.656717
    5       -1.854776
    6       -1.055024
    7        3.662310
    8        6.857337
    9        8.803455
   10       10.982182
   11       18.040525
   12       20.322364
 
  0.5000000E+00  0.3333333E+00  0.0000000E+00  0.1543210E-02
    1       -8.225065
    2       -6.696198
    3       -4.327995
    4       -3.206376
    5       -0.771172
    6        0.018526
    7        2.696513
    8        6.798910
    9        9.414354
   10       11.646877
   11       16.583970
   12       18.736527
 
 -0.4444444E+00  0.3333333E+00  0.0000000E+00  0.1543210E-02
    1       -9.000321
    2       -7.386610
    3       -3.848694
    4       -2.703517
    5        0.304947
    6        1.006117
    7        1.821873
    8        6.657789
    9        9.889014
   10       12.568956
   11       15.330256
   12       17.421885
 
 -0.3888889E+00  0.3333333E+00  0.0000000E+00  0.1543210E-02
    1       -9.648287
    2       -7.973693
    3       -3.240704
    4       -2.115575
    5        1.079723
    6        1.160444
    7        1.769844
    8        6.442122
    9       10.435685
   10       13.479824
   11       14.499484
   12       16.559658
 
 -0.3333333E+00  0.3333333E+00  0.0000000E+00  0.7716049E-03
    1      -10.159240
    2       -8.439619
    3       -2.524984
    4       -1.449582
    5        0.489562
    6        1.611926
    7        2.177712
    8        6.205346
    9       11.092553
   10       14.218451
   11       14.289964
   12       16.282535
 
  0.3888889E+00  0.3888889E+00  0.0000000E+00  0.7716049E-03
    1       -6.496603
    2       -5.925041
    3       -4.727531
    4       -4.548935
    5       -2.001443
    6       -1.143699
    7        4.331726
    8        6.239979
    9        8.960139
   10       10.664165
   11       17.983836
   12       20.335020
 
  0.4444444E+00  0.3888889E+00  0.0000000E+00  0.1543210E-02
    1       -7.171784
    2       -6.080088
    3       -5.209075
    4       -4.342352
    5       -0.958645
    6       -0.133947
    7        3.706497
    8        6.042612
    9        9.705569
   10       10.811338
   11       16.478443
   12       18.716229
 
  0.5000000E+00  0.3888889E+00  0.0000000E+00  0.1543210E-02
    1       -7.953279
    2       -6.502553
    3       -5.131181
    4       -3.950039
    5        0.067476
    6        0.790839
    7        2.931016
    8        6.136799
    9        9.844363
   10       11.500669
   11       15.176491
   12       17.376669
 
 -0.4444444E+00  0.3888889E+00  0.0000000E+00  0.1543210E-02
    1       -8.645264
    2       -7.076135
    3       -4.654776
    4       -3.435184
    5        0.866499
    6        1.491375
    7        2.192757
    8        6.302167
    9        9.860161
   10       12.311846
   11       14.297714
   12       16.493471
 
 -0.3888889E+00  0.3888889E+00  0.0000000E+00  0.7716049E-03
    1       -9.214401
    2       -7.581331
    3       -4.005445
    4       -2.814619
    5        1.256174
    6        1.565548
    7        1.836954
    8        6.416111
    9       10.043446
   10       13.002553
   11       14.042385
   12       16.203772
 
  0.4444444E+00  0.4444444E+00  0.0000000E+00  0.7716049E-03
    1       -7.078587
    2       -6.500229
    3       -5.240806
    4       -4.920774
    5       -0.011593
    6        0.718277
    7        3.601543
    8        5.558102
    9       10.514341
   10       10.561773
   11       15.123962
   12       17.358686
 
  0.5000000E+00  0.4444444E+00  0.0000000E+00  0.1543210E-02
    1       -7.573300
    2       -6.455625
    3       -5.565504
    4       -4.643606
    5        0.717382
    6        1.349597
    7        3.204514
    8        5.565934
    9       10.256010
   10       11.245835
   11       14.193909
   12       16.455094
 
 -0.4444444E+00  0.4444444E+00  0.0000000E+00  0.7716049E-03
    1       -8.160120
    2       -6.689301
    3       -5.312395
    4       -4.098472
    5        1.037547
    6        1.626580
    7        2.677159
    8        5.888872
    9        9.999965
   10       11.853829
   11       13.888363
   12       16.147230
 
  0.5000000E+00  0.5000000E+00  0.0000000E+00  0.3858025E-03
    1       -7.275042
    2       -6.695841
    3       -5.421701
    4       -5.084843
    5        0.963890
    6        1.555577
    7        3.345938
    8        5.319542
    9       10.499981
   10       11.048246
   11       13.836170
   12       16.126870
 