mesh: [     9,     9,     4 ]
nqpoint: 50     
reciprocal_lattice:
- [   0.40533564,   0.23404500,   0.00000000 ] # a*
- [   0.00002110,   0.46805346,   0.00000000 ] # b*
- [   0.00000000,   0.00000000,   0.19824330 ] # c*
natom:   4      
lattice:
- [     2.467155442383188,    -0.000111200019553,     0.000000000000000 ] # a
- [    -1.233674023183305,     2.136563688137034,     0.000000000000000 ] # b
- [     0.000000000000000,     0.000000000000000,     5.044306734000000 ] # c
points:
- symbol: C  # 1
  coordinates: [  0.999999697166835,  0.000000349172772,  0.250000000000000 ]
  mass: 12.010700
- symbol: C  # 2
  coordinates: [  0.000000349172772,  0.999999697166835,  0.750000000000000 ]
  mass: 12.010700
- symbol: C  # 3
  coordinates: [  0.333298929956719,  0.666701052703672,  0.250000000000000 ]
  mass: 12.010700
- symbol: C  # 4
  coordinates: [  0.666701052703672,  0.333298929956719,  0.750000000000000 ]
  mass: 12.010700
phonon:
- q-position: [    0.0000000,    0.0000000,    0.1250000 ]
  weight: 2    
  band:
  - # 1
    frequency:    -7.4337154023
  - # 2
    frequency:    -7.4252528962
  - # 3
    frequency:    -1.5765805720
  - # 4
    frequency:    -1.1543307699
  - # 5
    frequency:     2.5965742959
  - # 6
    frequency:     9.5818939357
  - # 7
    frequency:    19.5703172056
  - # 8
    frequency:    26.3062541398
  - # 9
    frequency:    45.2180603179
  - # 10
    frequency:    45.4205646480
  - # 11
    frequency:    47.0555129529
  - # 12
    frequency:    47.0965547144

- q-position: [    0.1111111,    0.0000000,    0.1250000 ]
  weight: 8    
  band:
  - # 1
    frequency:    -4.0968002562
  - # 2
    frequency:     5.1917614144
  - # 3
    frequency:     5.8363437244
  - # 4
    frequency:     8.5992439318
  - # 5
    frequency:    10.9682119210
  - # 6
    frequency:    11.4290448200
  - # 7
    frequency:    19.5292221592
  - # 8
    frequency:    25.7762805394
  - # 9
    frequency:    44.9271905790
  - # 10
    frequency:    45.3148913930
  - # 11
    frequency:    46.5649091677
  - # 12
    frequency:    46.9125712754

- q-position: [    0.2222222,    0.0000000,    0.1250000 ]
  weight: 8    
  band:
  - # 1
    frequency:     9.0688391444
  - # 2
    frequency:     9.3495515436
  - # 3
    frequency:    11.3827459096
  - # 4
    frequency:    13.8533759378
  - # 5
    frequency:    19.4204026291
  - # 6
    frequency:    20.5882448512
  - # 7
    frequency:    22.0148959282
  - # 8
    frequency:    24.3192443370
  - # 9
    frequency:    43.7854094730
  - # 10
    frequency:    45.1431412584
  - # 11
    frequency:    45.1603998049
  - # 12
    frequency:    46.2885996797

- q-position: [    0.3333333,    0.0000000,    0.1250000 ]
  weight: 8    
  band:
  - # 1
    frequency:    12.5536967533
  - # 2
    frequency:    14.9117506631
  - # 3
    frequency:    15.8075763986
  - # 4
    frequency:    16.5122923853
  - # 5
    frequency:    19.2613039244
  - # 6
    frequency:    22.3172486735
  - # 7
    frequency:    29.8877729783
  - # 8
    frequency:    30.8755341938
  - # 9
    frequency:    42.2950010352
  - # 10
    frequency:    43.2858212158
  - # 11
    frequency:    44.2584561475
  - # 12
    frequency:    44.7723156387

- q-position: [    0.4444444,    0.0000000,    0.1250000 ]
  weight: 8    
  band:
  - # 1
    frequency:    15.2464186282
  - # 2
    frequency:    17.7651258481
  - # 3
    frequency:    18.0785918648
  - # 4
    frequency:    18.3352974030
  - # 5
    frequency:    19.0414664341
  - # 6
    frequency:    20.6331910545
  - # 7
    frequency:    36.9341196729
  - # 8
    frequency:    37.5345085414
  - # 9
    frequency:    41.1861529884
  - # 10
    frequency:    41.8137060691
  - # 11
    frequency:    41.8435925645
  - # 12
    frequency:    41.9309625728

- q-position: [    0.1111111,    0.1111111,    0.1250000 ]
  weight: 4    
  band:
  - # 1
    frequency:     8.0491043158
  - # 2
    frequency:     8.4407108622
  - # 3
    frequency:    10.8074419774
  - # 4
    frequency:    13.0254398481
  - # 5
    frequency:    17.4740950759
  - # 6
    frequency:    19.0502850926
  - # 7
    frequency:    19.4072065662
  - # 8
    frequency:    24.7104323649
  - # 9
    frequency:    44.2425037200
  - # 10
    frequency:    45.0557839506
  - # 11
    frequency:    45.6382689938
  - # 12
    frequency:    46.4829998490

- q-position: [    0.2222222,    0.1111111,    0.1250000 ]
  weight: 8    
  band:
  - # 1
    frequency:    11.8167195810
  - # 2
    frequency:    14.5599197385
  - # 3
    frequency:    15.6466757356
  - # 4
    frequency:    16.1171467275
  - # 5
    frequency:    19.2593678477
  - # 6
    frequency:    22.9043585613
  - # 7
    frequency:    26.1473848098
  - # 8
    frequency:    27.3331377362
  - # 9
    frequency:    43.0492535638
  - # 10
    frequency:    44.1412304802
  - # 11
    frequency:    44.3548393350
  - # 12
    frequency:    45.2930194524

- q-position: [    0.3333333,    0.1111111,    0.1250000 ]
  weight: 8    
  band:
  - # 1
    frequency:    14.7065061940
  - # 2
    frequency:    17.5358040808
  - # 3
    frequency:    18.9256081132
  - # 4
    frequency:    19.1132154877
  - # 5
    frequency:    19.9058106846
  - # 6
    frequency:    20.9391052385
  - # 7
    frequency:    33.4101029137
  - # 8
    frequency:    34.3107663248
  - # 9
    frequency:    41.7157380873
  - # 10
    frequency:    42.4323370456
  - # 11
    frequency:    42.8144143555
  - # 12
    frequency:    43.1757325203

- q-position: [   -0.5555556,    0.1111111,    0.1250000 ]
  weight: 8    
  band:
  - # 1
    frequency:    15.9574075905
  - # 2
    frequency:    17.9500794659
  - # 3
    frequency:    19.1104583642
  - # 4
    frequency:    20.0998829973
  - # 5
    frequency:    20.5851451486
  - # 6
    frequency:    21.1660292204
  - # 7
    frequency:    38.7382780330
  - # 8
    frequency:    39.0726195025
  - # 9
    frequency:    39.1705119318
  - # 10
    frequency:    39.3338329201
  - # 11
    frequency:    41.8744593370
  - # 12
    frequency:    42.1221726153

- q-position: [   -0.4444444,    0.1111111,    0.1250000 ]
  weight: 8    
  band:
  - # 1
    frequency:    13.9001021615
  - # 2
    frequency:    17.7123018272
  - # 3
    frequency:    19.1215004560
  - # 4
    frequency:    19.2674104822
  - # 5
    frequency:    19.3450910702
  - # 6
    frequency:    21.1976403016
  - # 7
    frequency:    33.5051172890
  - # 8
    frequency:    33.9896124187
  - # 9
    frequency:    41.8602773766
  - # 10
    frequency:    42.4681423640
  - # 11
    frequency:    43.0046450564
  - # 12
    frequency:    43.1599241723

- q-position: [   -0.3333333,    0.1111111,    0.1250000 ]
  weight: 8    
  band:
  - # 1
    frequency:    10.8305528726
  - # 2
    frequency:    14.8411310446
  - # 3
    frequency:    15.2416939751
  - # 4
    frequency:    15.7682365483
  - # 5
    frequency:    19.4473854579
  - # 6
    frequency:    23.1762461882
  - # 7
    frequency:    26.2404660604
  - # 8
    frequency:    26.9602179827
  - # 9
    frequency:    43.1848791019
  - # 10
    frequency:    44.1796893494
  - # 11
    frequency:    44.6187088117
  - # 12
    frequency:    45.2329391308

- q-position: [   -0.2222222,    0.1111111,    0.1250000 ]
  weight: 8    
  band:
  - # 1
    frequency:     7.3800247990
  - # 2
    frequency:     8.3500628552
  - # 3
    frequency:    10.0380377074
  - # 4
    frequency:    13.0770383811
  - # 5
    frequency:    17.6117126248
  - # 6
    frequency:    18.5867492870
  - # 7
    frequency:    19.5506160535
  - # 8
    frequency:    24.8943633226
  - # 9
    frequency:    44.2689787399
  - # 10
    frequency:    45.3037576792
  - # 11
    frequency:    45.6108757845
  - # 12
    frequency:    46.5053212844

- q-position: [   -0.1111111,    0.1111111,    0.1250000 ]
  weight: 4    
  band:
  - # 1
    frequency:    -4.0553346552
  - # 2
    frequency:     4.6068352544
  - # 3
    frequency:     5.5551925923
  - # 4
    frequency:     8.7678238314
  - # 5
    frequency:    11.0019136422
  - # 6
    frequency:    11.0137257651
  - # 7
    frequency:    19.5817235990
  - # 8
    frequency:    25.8407495518
  - # 9
    frequency:    44.8733019016
  - # 10
    frequency:    45.4653669055
  - # 11
    frequency:    46.4959246209
  - # 12
    frequency:    46.9809472521

- q-position: [    0.2222222,    0.2222222,    0.1250000 ]
  weight: 4    
  band:
  - # 1
    frequency:    14.5108415223
  - # 2
    frequency:    17.4265891786
  - # 3
    frequency:    19.1681760332
  - # 4
    frequency:    20.8168682066
  - # 5
    frequency:    21.0525539817
  - # 6
    frequency:    21.7604423578
  - # 7
    frequency:    31.1881610179
  - # 8
    frequency:    31.9730654447
  - # 9
    frequency:    42.3888035877
  - # 10
    frequency:    42.6382343256
  - # 11
    frequency:    43.0328288462
  - # 12
    frequency:    43.3064415376

- q-position: [    0.3333333,    0.2222222,    0.1250000 ]
  weight: 8    
  band:
  - # 1
    frequency:    16.4809283706
  - # 2
    frequency:    18.1913473960
  - # 3
    frequency:    19.2451514262
  - # 4
    frequency:    19.4831295806
  - # 5
    frequency:    24.9014845559
  - # 6
    frequency:    25.5972591383
  - # 7
    frequency:    35.3670691456
  - # 8
    frequency:    35.9074025707
  - # 9
    frequency:    39.3452883141
  - # 10
    frequency:    39.5982576634
  - # 11
    frequency:    42.6485821795
  - # 12
    frequency:    42.8380060938

- q-position: [   -0.5555556,    0.2222222,    0.1250000 ]
  weight: 8    
  band:
  - # 1
    frequency:    15.6306924628
  - # 2
    frequency:    18.6636495396
  - # 3
    frequency:    19.3108233330
  - # 4
    frequency:    19.6736806941
  - # 5
    frequency:    24.7736248723
  - # 6
    frequency:    25.4435995967
  - # 7
    frequency:    35.4923674212
  - # 8
    frequency:    35.5935353954
  - # 9
    frequency:    39.4533673547
  - # 10
    frequency:    39.7101096082
  - # 11
    frequency:    42.7576422572
  - # 12
    frequency:    42.8481683057

- q-position: [   -0.4444444,    0.2222222,    0.1250000 ]
  weight: 8    
  band:
  - # 1
    frequency:    13.2210916421
  - # 2
    frequency:    17.6518691331
  - # 3
    frequency:    19.4372901407
  - # 4
    frequency:    20.6780727320
  - # 5
    frequency:    21.3222507100
  - # 6
    frequency:    21.4769086465
  - # 7
    frequency:    31.3051448876
  - # 8
    frequency:    31.5071050983
  - # 9
    frequency:    42.6579399403
  - # 10
    frequency:    42.8091284491
  - # 11
    frequency:    43.1101779176
  - # 12
    frequency:    43.3290423626

- q-position: [   -0.3333333,    0.2222222,    0.1250000 ]
  weight: 8    
  band:
  - # 1
    frequency:    10.4715198904
  - # 2
    frequency:    14.4852935488
  - # 3
    frequency:    15.5957708797
  - # 4
    frequency:    15.8057181629
  - # 5
    frequency:    19.5556920434
  - # 6
    frequency:    23.2305624678
  - # 7
    frequency:    26.4557006340
  - # 8
    frequency:    26.5444357440
  - # 9
    frequency:    43.3058121048
  - # 10
    frequency:    43.9762138608
  - # 11
    frequency:    44.6355403206
  - # 12
    frequency:    45.4094400244

- q-position: [   -0.2222222,    0.2222222,    0.1250000 ]
  weight: 4    
  band:
  - # 1
    frequency:     8.0731490130
  - # 2
    frequency:     9.2255903324
  - # 3
    frequency:    11.2124995994
  - # 4
    frequency:    13.9134297694
  - # 5
    frequency:    19.5977823037
  - # 6
    frequency:    20.8730217139
  - # 7
    frequency:    21.3021193867
  - # 8
    frequency:    24.4968811236
  - # 9
    frequency:    43.9127249682
  - # 10
    frequency:    44.9659366194
  - # 11
    frequency:    45.3317095798
  - # 12
    frequency:    46.4413157470

- q-position: [   -0.6666667,    0.3333333,    0.1250000 ]
  weight: 4    
  band:
  - # 1
    frequency:    17.0290256400
  - # 2
    frequency:    18.3466149102
  - # 3
    frequency:    18.9489728907
  - # 4
    frequency:    19.4133178570
  - # 5
    frequency:    28.6905530251
  - # 6
    frequency:    28.7886558480
  - # 7
    frequency:    36.4193651715
  - # 8
    frequency:    36.4273579863
  - # 9
    frequency:    36.7183728003
  - # 10
    frequency:    36.7370317879
  - # 11
    frequency:    42.9550033727
  - # 12
    frequency:    43.0748557492

- q-position: [   -0.5555556,    0.3333333,    0.1250000 ]
  weight: 8    
  band:
  - # 1
    frequency:    15.6894293015
  - # 2
    frequency:    18.5067452522
  - # 3
    frequency:    19.2209867047
  - # 4
    frequency:    19.8664052137
  - # 5
    frequency:    24.8797197932
  - # 6
    frequency:    25.2828565368
  - # 7
    frequency:    35.4707812382
  - # 8
    frequency:    35.6784402092
  - # 9
    frequency:    39.4721904030
  - # 10
    frequency:    39.6731794928
  - # 11
    frequency:    42.7080229983
  - # 12
    frequency:    42.8919394971

- q-position: [   -0.4444444,    0.3333333,    0.1250000 ]
  weight: 8    
  band:
  - # 1
    frequency:    13.7022519655
  - # 2
    frequency:    17.7680079401
  - # 3
    frequency:    18.8634484686
  - # 4
    frequency:    19.4048669085
  - # 5
    frequency:    19.6364267159
  - # 6
    frequency:    21.1616329176
  - # 7
    frequency:    33.5568578619
  - # 8
    frequency:    33.8195211600
  - # 9
    frequency:    41.9454001104
  - # 10
    frequency:    42.3073004225
  - # 11
    frequency:    42.9390288949
  - # 12
    frequency:    43.3690164295

- q-position: [   -0.3333333,    0.3333333,    0.1250000 ]
  weight: 4    
  band:
  - # 1
    frequency:    11.6886806050
  - # 2
    frequency:    14.6608311395
  - # 3
    frequency:    15.8727249303
  - # 4
    frequency:    16.6208838992
  - # 5
    frequency:    19.5501906534
  - # 6
    frequency:    22.4631068604
  - # 7
    frequency:    30.1057672671
  - # 8
    frequency:    30.2839970556
  - # 9
    frequency:    42.5692253473
  - # 10
    frequency:    43.0036903469
  - # 11
    frequency:    44.3531620460
  - # 12
    frequency:    45.0003057366

- q-position: [   -0.5555556,    0.4444444,    0.1250000 ]
  weight: 4    
  band:
  - # 1
    frequency:    15.9317907878
  - # 2
    frequency:    17.8808459608
  - # 3
    frequency:    19.0823604762
  - # 4
    frequency:    20.2187204071
  - # 5
    frequency:    20.8342114678
  - # 6
    frequency:    20.8443874848
  - # 7
    frequency:    38.7833985105
  - # 8
    frequency:    39.1388142858
  - # 9
    frequency:    39.1934445213
  - # 10
    frequency:    39.2269313498
  - # 11
    frequency:    41.8404499560
  - # 12
    frequency:    42.1602517790

- q-position: [   -0.4444444,    0.4444444,    0.1250000 ]
  weight: 4    
  band:
  - # 1
    frequency:    14.9742419277
  - # 2
    frequency:    17.9096398027
  - # 3
    frequency:    17.9561991138
  - # 4
    frequency:    18.4261945666
  - # 5
    frequency:    19.1521769982
  - # 6
    frequency:    20.6167619974
  - # 7
    frequency:    36.9949490534
  - # 8
    frequency:    37.3394007581
  - # 9
    frequency:    41.2393070426
  - # 10
    frequency:    41.7602005429
  - # 11
    frequency:    41.7651806686
  - # 12
    frequency:    42.1327124126

- q-position: [    0.0000000,    0.0000000,    0.3750000 ]
  weight: 2    
  band:
  - # 1
    frequency:    -6.4358582222
  - # 2
    frequency:    -5.9304282035
  - # 3
    frequency:    -4.4182602560
  - # 4
    frequency:    -3.5821364379
  - # 5
    frequency:     7.5357029765
  - # 6
    frequency:    11.2522013092
  - # 7
    frequency:    23.0602615687
  - # 8
    frequency:    26.3507922314
  - # 9
    frequency:    45.9513036181
  - # 10
    frequency:    46.1223856596
  - # 11
    frequency:    46.7082445287
  - # 12
    frequency:    46.8134652145

- q-position: [    0.1111111,    0.0000000,    0.3750000 ]
  weight: 8    
  band:
  - # 1
    frequency:     0.5596680956
  - # 2
    frequency:     4.6247131111
  - # 3
    frequency:     8.5030083967
  - # 4
    frequency:     9.4269698525
  - # 5
    frequency:    10.7168555071
  - # 6
    frequency:    12.0666996995
  - # 7
    frequency:    22.7580860018
  - # 8
    frequency:    25.7828889405
  - # 9
    frequency:    45.5876409412
  - # 10
    frequency:    45.9548718592
  - # 11
    frequency:    46.2643023515
  - # 12
    frequency:    46.6129328996

- q-position: [    0.2222222,    0.0000000,    0.3750000 ]
  weight: 8    
  band:
  - # 1
    frequency:    10.0414226409
  - # 2
    frequency:    10.8763885326
  - # 3
    frequency:    11.1098117156
  - # 4
    frequency:    13.6316630449
  - # 5
    frequency:    20.9731541515
  - # 6
    frequency:    21.5239011037
  - # 7
    frequency:    21.9970338072
  - # 8
    frequency:    24.2442102019
  - # 9
    frequency:    44.2955023512
  - # 10
    frequency:    44.8575420587
  - # 11
    frequency:    45.5939618603
  - # 12
    frequency:    46.0615010523

- q-position: [    0.3333333,    0.0000000,    0.3750000 ]
  weight: 8    
  band:
  - # 1
    frequency:    13.7675128153
  - # 2
    frequency:    15.1841760157
  - # 3
    frequency:    15.5528189882
  - # 4
    frequency:    15.5614974175
  - # 5
    frequency:    20.7866310073
  - # 6
    frequency:    22.1157174752
  - # 7
    frequency:    30.1415349637
  - # 8
    frequency:    30.5499511925
  - # 9
    frequency:    42.6084038596
  - # 10
    frequency:    43.0187671420
  - # 11
    frequency:    44.4386259598
  - # 12
    frequency:    44.6525908216

- q-position: [    0.4444444,    0.0000000,    0.3750000 ]
  weight: 8    
  band:
  - # 1
    frequency:    15.9234688673
  - # 2
    frequency:    16.9928182064
  - # 3
    frequency:    18.1536787950
  - # 4
    frequency:    18.2598183992
  - # 5
    frequency:    19.6099210597
  - # 6
    frequency:    20.2622339155
  - # 7
    frequency:    37.0702223373
  - # 8
    frequency:    37.3197322158
  - # 9
    frequency:    41.3347259277
  - # 10
    frequency:    41.6074542851
  - # 11
    frequency:    41.8221377151
  - # 12
    frequency:    41.8682801555

- q-position: [    0.1111111,    0.1111111,    0.3750000 ]
  weight: 4    
  band:
  - # 1
    frequency:     9.1149599925
  - # 2
    frequency:    10.2402721672
  - # 3
    frequency:    10.7015082670
  - # 4
    frequency:    13.2153907510
  - # 5
    frequency:    17.9100293438
  - # 6
    frequency:    18.5467935249
  - # 7
    frequency:    22.1147219341
  - # 8
    frequency:    24.6224760060
  - # 9
    frequency:    44.7819771223
  - # 10
    frequency:    45.3585443667
  - # 11
    frequency:    45.5953138280
  - # 12
    frequency:    46.1842932530

- q-position: [    0.2222222,    0.1111111,    0.3750000 ]
  weight: 8    
  band:
  - # 1
    frequency:    13.2185970673
  - # 2
    frequency:    14.9965405753
  - # 3
    frequency:    15.0984529180
  - # 4
    frequency:    15.7708758320
  - # 5
    frequency:    21.0557356618
  - # 6
    frequency:    22.6829820052
  - # 7
    frequency:    26.4712590888
  - # 8
    frequency:    26.9629482625
  - # 9
    frequency:    43.4146406166
  - # 10
    frequency:    43.8680884193
  - # 11
    frequency:    44.6774861267
  - # 12
    frequency:    45.0670617722

- q-position: [    0.3333333,    0.1111111,    0.3750000 ]
  weight: 8    
  band:
  - # 1
    frequency:    15.5299204519
  - # 2
    frequency:    16.7074902787
  - # 3
    frequency:    19.2258459638
  - # 4
    frequency:    19.6109497655
  - # 5
    frequency:    19.9000435536
  - # 6
    frequency:    20.6225640129
  - # 7
    frequency:    33.6485193165
  - # 8
    frequency:    34.0218047048
  - # 9
    frequency:    41.8999461379
  - # 10
    frequency:    42.1995869104
  - # 11
    frequency:    42.8888605649
  - # 12
    frequency:    43.0400883972

- q-position: [   -0.5555556,    0.1111111,    0.3750000 ]
  weight: 8    
  band:
  - # 1
    frequency:    16.4541323256
  - # 2
    frequency:    17.3708757656
  - # 3
    frequency:    19.2570506934
  - # 4
    frequency:    19.7259263130
  - # 5
    frequency:    20.7586307926
  - # 6
    frequency:    20.9982728772
  - # 7
    frequency:    38.8666759543
  - # 8
    frequency:    39.0078276144
  - # 9
    frequency:    39.1312251048
  - # 10
    frequency:    39.2123748451
  - # 11
    frequency:    41.8522522926
  - # 12
    frequency:    41.9584442162

- q-position: [   -0.4444444,    0.1111111,    0.3750000 ]
  weight: 8    
  band:
  - # 1
    frequency:    14.7463234652
  - # 2
    frequency:    16.3889829672
  - # 3
    frequency:    19.1673908074
  - # 4
    frequency:    19.2555058192
  - # 5
    frequency:    20.2726330382
  - # 6
    frequency:    21.0621187989
  - # 7
    frequency:    33.5985941084
  - # 8
    frequency:    33.7998581152
  - # 9
    frequency:    42.0298098137
  - # 10
    frequency:    42.2863616952
  - # 11
    frequency:    43.0316052067
  - # 12
    frequency:    43.0976391135

- q-position: [   -0.3333333,    0.1111111,    0.3750000 ]
  weight: 8    
  band:
  - # 1
    frequency:    12.3183859456
  - # 2
    frequency:    14.5823775799
  - # 3
    frequency:    14.9882993881
  - # 4
    frequency:    15.1931792143
  - # 5
    frequency:    21.4013417315
  - # 6
    frequency:    23.0979217398
  - # 7
    frequency:    26.4269950755
  - # 8
    frequency:    26.7218826384
  - # 9
    frequency:    43.5344641370
  - # 10
    frequency:    43.9464732997
  - # 11
    frequency:    44.8602894895
  - # 12
    frequency:    45.1158219136

- q-position: [   -0.2222222,    0.1111111,    0.3750000 ]
  weight: 8    
  band:
  - # 1
    frequency:     8.7746427767
  - # 2
    frequency:     9.5086234301
  - # 3
    frequency:     9.9348193862
  - # 4
    frequency:    12.9311898777
  - # 5
    frequency:    17.9278212329
  - # 6
    frequency:    18.3158151190
  - # 7
    frequency:    22.3462155985
  - # 8
    frequency:    24.9009458867
  - # 9
    frequency:    44.7921501720
  - # 10
    frequency:    45.3454570450
  - # 11
    frequency:    45.7936846314
  - # 12
    frequency:    46.2896365038

- q-position: [   -0.1111111,    0.1111111,    0.3750000 ]
  weight: 4    
  band:
  - # 1
    frequency:    -2.1104157827
  - # 2
    frequency:     3.9013510897
  - # 3
    frequency:     8.1838406564
  - # 4
    frequency:     9.5281988467
  - # 5
    frequency:    10.6422583332
  - # 6
    frequency:    11.9524446290
  - # 7
    frequency:    22.8393693821
  - # 8
    frequency:    25.8802758609
  - # 9
    frequency:    45.5199947249
  - # 10
    frequency:    46.0957082503
  - # 11
    frequency:    46.1892141751
  - # 12
    frequency:    46.7210087886

- q-position: [    0.2222222,    0.2222222,    0.3750000 ]
  weight: 4    
  band:
  - # 1
    frequency:    15.3891546886
  - # 2
    frequency:    16.6048015805
  - # 3
    frequency:    19.9547953273
  - # 4
    frequency:    20.6869628331
  - # 5
    frequency:    21.1937351571
  - # 6
    frequency:    21.5366796981
  - # 7
    frequency:    31.3924011217
  - # 8
    frequency:    31.7192168913
  - # 9
    frequency:    42.5620186870
  - # 10
    frequency:    42.7501760879
  - # 11
    frequency:    42.8758344287
  - # 12
    frequency:    43.0756222839

- q-position: [    0.3333333,    0.2222222,    0.3750000 ]
  weight: 8    
  band:
  - # 1
    frequency:    16.9133894740
  - # 2
    frequency:    17.7563336360
  - # 3
    frequency:    18.9769257129
  - # 4
    frequency:    19.1876916811
  - # 5
    frequency:    25.1156268968
  - # 6
    frequency:    25.4037419885
  - # 7
    frequency:    35.5094849169
  - # 8
    frequency:    35.7322460017
  - # 9
    frequency:    39.3696924935
  - # 10
    frequency:    39.4762703714
  - # 11
    frequency:    42.6001243750
  - # 12
    frequency:    42.6801189187

- q-position: [   -0.5555556,    0.2222222,    0.3750000 ]
  weight: 8    
  band:
  - # 1
    frequency:    16.0726143877
  - # 2
    frequency:    17.3883945574
  - # 3
    frequency:    19.5343557463
  - # 4
    frequency:    19.6824173493
  - # 5
    frequency:    24.9540317316
  - # 6
    frequency:    25.2311219777
  - # 7
    frequency:    35.4749649462
  - # 8
    frequency:    35.5169916175
  - # 9
    frequency:    39.5183855140
  - # 10
    frequency:    39.6254663013
  - # 11
    frequency:    42.6859280346
  - # 12
    frequency:    42.7239670203

- q-position: [   -0.4444444,    0.2222222,    0.3750000 ]
  weight: 8    
  band:
  - # 1
    frequency:    14.1380242015
  - # 2
    frequency:    16.0875931625
  - # 3
    frequency:    20.5168614050
  - # 4
    frequency:    20.8905717095
  - # 5
    frequency:    21.0624559273
  - # 6
    frequency:    21.4934269983
  - # 7
    frequency:    31.3219723288
  - # 8
    frequency:    31.4052577851
  - # 9
    frequency:    42.8082538639
  - # 10
    frequency:    42.8693952166
  - # 11
    frequency:    43.0586260608
  - # 12
    frequency:    43.1610353269

- q-position: [   -0.3333333,    0.2222222,    0.3750000 ]
  weight: 8    
  band:
  - # 1
    frequency:    12.0060404759
  - # 2
    frequency:    14.4516126325
  - # 3
    frequency:    14.8858673568
  - # 4
    frequency:    15.2663403592
  - # 5
    frequency:    21.5223145902
  - # 6
    frequency:    23.2229253568
  - # 7
    frequency:    26.4602038378
  - # 8
    frequency:    26.5006368163
  - # 9
    frequency:    43.5587567107
  - # 10
    frequency:    43.8372835357
  - # 11
    frequency:    44.9318151754
  - # 12
    frequency:    45.2521522569

- q-position: [   -0.2222222,    0.2222222,    0.3750000 ]
  weight: 4    
  band:
  - # 1
    frequency:     9.7479905829
  - # 2
    frequency:    10.2919551909
  - # 3
    frequency:    10.5771008019
  - # 4
    frequency:    13.3394311228
  - # 5
    frequency:    20.9926701755
  - # 6
    frequency:    21.1729079332
  - # 7
    frequency:    22.2114252254
  - # 8
    frequency:    24.5361518912
  - # 9
    frequency:    44.3290225944
  - # 10
    frequency:    44.7649952766
  - # 11
    frequency:    45.7803932452
  - # 12
    frequency:    46.2388054261

- q-position: [   -0.6666667,    0.3333333,    0.3750000 ]
  weight: 4    
  band:
  - # 1
    frequency:    17.1159602298
  - # 2
    frequency:    18.0643913100
  - # 3
    frequency:    18.7042971914
  - # 4
    frequency:    18.8835513712
  - # 5
    frequency:    28.7277146874
  - # 6
    frequency:    28.7685365485
  - # 7
    frequency:    36.3533625610
  - # 8
    frequency:    36.3550239726
  - # 9
    frequency:    36.6965703836
  - # 10
    frequency:    36.7050081357
  - # 11
    frequency:    42.8742172827
  - # 12
    frequency:    42.9254694463

- q-position: [   -0.5555556,    0.3333333,    0.3750000 ]
  weight: 8    
  band:
  - # 1
    frequency:    16.1011480293
  - # 2
    frequency:    17.3514289005
  - # 3
    frequency:    19.4584258676
  - # 4
    frequency:    19.7691236928
  - # 5
    frequency:    24.9775001390
  - # 6
    frequency:    25.1441255009
  - # 7
    frequency:    35.4905390406
  - # 8
    frequency:    35.5764763623
  - # 9
    frequency:    39.5174169901
  - # 10
    frequency:    39.6011597089
  - # 11
    frequency:    42.6645473576
  - # 12
    frequency:    42.7429484960

- q-position: [   -0.4444444,    0.3333333,    0.3750000 ]
  weight: 8    
  band:
  - # 1
    frequency:    14.5740824888
  - # 2
    frequency:    16.3471810863
  - # 3
    frequency:    19.0639929875
  - # 4
    frequency:    19.3807454766
  - # 5
    frequency:    20.3799491950
  - # 6
    frequency:    21.1162087981
  - # 7
    frequency:    33.5863007745
  - # 8
    frequency:    33.6959109838
  - # 9
    frequency:    42.0435996488
  - # 10
    frequency:    42.1968359123
  - # 11
    frequency:    43.0504258792
  - # 12
    frequency:    43.2312928631

- q-position: [   -0.3333333,    0.3333333,    0.3750000 ]
  weight: 4    
  band:
  - # 1
    frequency:    12.9814573414
  - # 2
    frequency:    14.9796779322
  - # 3
    frequency:    15.2806893258
  - # 4
    frequency:    15.4828376625
  - # 5
    frequency:    21.1307495736
  - # 6
    frequency:    22.4616819076
  - # 7
    frequency:    30.1168864603
  - # 8
    frequency:    30.1909791660
  - # 9
    frequency:    42.7219885593
  - # 10
    frequency:    42.9025666639
  - # 11
    frequency:    44.5898476533
  - # 12
    frequency:    44.8573375855

- q-position: [   -0.5555556,    0.4444444,    0.3750000 ]
  weight: 4    
  band:
  - # 1
    frequency:    16.3940402078
  - # 2
    frequency:    17.2890892257
  - # 3
    frequency:    19.2816931011
  - # 4
    frequency:    19.8293316459
  - # 5
    frequency:    20.8334241806
  - # 6
    frequency:    20.8391889809
  - # 7
    frequency:    38.8770972153
  - # 8
    frequency:    39.0437528346
  - # 9
    frequency:    39.1481103129
  - # 10
    frequency:    39.1764036108
  - # 11
    frequency:    41.8440130949
  - # 12
    frequency:    41.9813021861

- q-position: [   -0.4444444,    0.4444444,    0.3750000 ]
  weight: 4    
  band:
  - # 1
    frequency:    15.6832467557
  - # 2
    frequency:    16.9433041196
  - # 3
    frequency:    18.0891054007
  - # 4
    frequency:    18.2839874322
  - # 5
    frequency:    19.7705261811
  - # 6
    frequency:    20.3418717977
  - # 7
    frequency:    37.0497651572
  - # 8
    frequency:    37.1941222181
  - # 9
    frequency:    41.3541124207
  - # 10
    frequency:    41.5719631951
  - # 11
    frequency:    41.8488936026
  - # 12
    frequency:    42.0017507348

