# Thermal properties / unit cell (natom)

unit:
  temperature:   K
  free_energy:   kJ/mol
  entropy:       J/K/mol
  heat_capacity: J/K/mol

natom:     4
num_modes: 3888
num_integrated_modes: 2380

zero_point_energy:      19.7099831
high_T_entropy:        183.4434099

thermal_properties:
- temperature:         0.0000000
  free_energy:        19.7099831
  entropy:             0.0000000
  heat_capacity:       0.0000000
  energy:             19.7099831

- temperature:        10.0000000
  free_energy:        19.7099632
  entropy:             0.0131445
  heat_capacity:       0.0651515
  energy:             19.7100946

- temperature:        20.0000000
  free_energy:        19.7090934
  entropy:             0.2052030
  heat_capacity:       0.6512894
  energy:             19.7131975

- temperature:        30.0000000
  free_energy:        19.7050302
  entropy:             0.6413641
  heat_capacity:       1.5883287
  energy:             19.7242711

- temperature:        40.0000000
  free_energy:        19.6957439
  entropy:             1.2357050
  heat_capacity:       2.5959680
  energy:             19.7451721

- temperature:        50.0000000
  free_energy:        19.6800031
  entropy:             1.9250339
  heat_capacity:       3.6240477
  energy:             19.7762548

- temperature:        60.0000000
  free_energy:        19.6570309
  entropy:             2.6785839
  heat_capacity:       4.6805315
  energy:             19.8177459

- temperature:        70.0000000
  free_energy:        19.6262644
  entropy:             3.4825487
  heat_capacity:       5.7906757
  energy:             19.8700428

- temperature:        80.0000000
  free_energy:        19.5872258
  entropy:             4.3329387
  heat_capacity:       6.9911693
  energy:             19.9338609

- temperature:        90.0000000
  free_energy:        19.5394452
  entropy:             5.2315397
  heat_capacity:       8.3163924
  energy:             20.0102838

- temperature:       100.0000000
  free_energy:        19.4824204
  entropy:             6.1825106
  heat_capacity:       9.7857520
  energy:             20.1006714

- temperature:       110.0000000
  free_energy:        19.4156072
  entropy:             7.1897616
  heat_capacity:      11.3991772
  energy:             20.2064809

- temperature:       120.0000000
  free_energy:        19.3384302
  entropy:             8.2554145
  heat_capacity:      13.1397248
  energy:             20.3290800

- temperature:       130.0000000
  free_energy:        19.2503047
  entropy:             9.3792455
  heat_capacity:      14.9794666
  energy:             20.4696066

- temperature:       140.0000000
  free_energy:        19.1506594
  entropy:            10.5587939
  heat_capacity:      16.8855828
  energy:             20.6288905

- temperature:       150.0000000
  free_energy:        19.0389571
  entropy:            11.7898150
  heat_capacity:      18.8251329
  energy:             20.8074293

- temperature:       160.0000000
  free_energy:        18.9147097
  entropy:            13.0668407
  heat_capacity:      20.7681335
  energy:             21.0054042

- temperature:       170.0000000
  free_energy:        18.7774874
  entropy:            14.3837103
  heat_capacity:      22.6891566
  energy:             21.2227182

- temperature:       180.0000000
  free_energy:        18.6269240
  entropy:            15.7340091
  heat_capacity:      24.5678577
  energy:             21.4590457

- temperature:       190.0000000
  free_energy:        18.4627170
  entropy:            17.1113969
  heat_capacity:      26.3888265
  energy:             21.7138824

- temperature:       200.0000000
  free_energy:        18.2846260
  entropy:            18.5098336
  heat_capacity:      28.1410717
  energy:             21.9865927

- temperature:       210.0000000
  free_energy:        18.0924689
  entropy:            19.9237209
  heat_capacity:      29.8173485
  energy:             22.2764503

- temperature:       220.0000000
  free_energy:        17.8861171
  entropy:            21.3479779
  heat_capacity:      31.4134625
  energy:             22.5826722

- temperature:       230.0000000
  free_energy:        17.6654899
  entropy:            22.7780704
  heat_capacity:      32.9276191
  energy:             22.9044461

- temperature:       240.0000000
  free_energy:        17.4305496
  entropy:            24.2100076
  heat_capacity:      34.3598559
  energy:             23.2409514

- temperature:       250.0000000
  free_energy:        17.1812953
  entropy:            25.6403179
  heat_capacity:      35.7115660
  energy:             23.5913747

- temperature:       260.0000000
  free_energy:        16.9177586
  entropy:            27.0660132
  heat_capacity:      36.9851104
  energy:             23.9549221

- temperature:       270.0000000
  free_energy:        16.6399989
  entropy:            28.4845463
  heat_capacity:      38.1835110
  energy:             24.3308264

- temperature:       280.0000000
  free_energy:        16.3480988
  entropy:            29.8937660
  heat_capacity:      39.3102116
  energy:             24.7183533

- temperature:       290.0000000
  free_energy:        16.0421607
  entropy:            31.2918732
  heat_capacity:      40.3688960
  energy:             25.1168039

- temperature:       300.0000000
  free_energy:        15.7223034
  entropy:            32.6773791
  heat_capacity:      41.3633515
  energy:             25.5255171

- temperature:       310.0000000
  free_energy:        15.3886592
  entropy:            34.0490655
  heat_capacity:      42.2973695
  energy:             25.9438695

- temperature:       320.0000000
  free_energy:        15.0413714
  entropy:            35.4059501
  heat_capacity:      43.1746735
  energy:             26.3712754

- temperature:       330.0000000
  free_energy:        14.6805921
  entropy:            36.7472540
  heat_capacity:      43.9988699
  energy:             26.8071859

- temperature:       340.0000000
  free_energy:        14.3064803
  entropy:            38.0723737
  heat_capacity:      44.7734148
  energy:             27.2510873

- temperature:       350.0000000
  free_energy:        13.9192001
  entropy:            39.3808560
  heat_capacity:      45.5015941
  energy:             27.7024997

- temperature:       360.0000000
  free_energy:        13.5189197
  entropy:            40.6723759
  heat_capacity:      46.1865119
  energy:             28.1609750

- temperature:       370.0000000
  free_energy:        13.1058099
  entropy:            41.9467179
  heat_capacity:      46.8310870
  energy:             28.6260955

- temperature:       380.0000000
  free_energy:        12.6800430
  entropy:            43.2037589
  heat_capacity:      47.4380531
  energy:             29.0974714

- temperature:       390.0000000
  free_energy:        12.2417925
  entropy:            44.4434543
  heat_capacity:      48.0099631
  energy:             29.5747397

- temperature:       400.0000000
  free_energy:        11.7912317
  entropy:            45.6658252
  heat_capacity:      48.5491957
  energy:             30.0575618

- temperature:       410.0000000
  free_energy:        11.3285335
  entropy:            46.8709478
  heat_capacity:      49.0579632
  energy:             30.5456221

- temperature:       420.0000000
  free_energy:        10.8538699
  entropy:            48.0589441
  heat_capacity:      49.5383206
  energy:             31.0386264

- temperature:       430.0000000
  free_energy:        10.3674112
  entropy:            49.2299744
  heat_capacity:      49.9921747
  energy:             31.5363002

- temperature:       440.0000000
  free_energy:         9.8693263
  entropy:            50.3842299
  heat_capacity:      50.4212938
  energy:             32.0383874

- temperature:       450.0000000
  free_energy:         9.3597818
  entropy:            51.5219273
  heat_capacity:      50.8273169
  energy:             32.5446491

- temperature:       460.0000000
  free_energy:         8.8389421
  entropy:            52.6433037
  heat_capacity:      51.2117625
  energy:             33.0548619

- temperature:       470.0000000
  free_energy:         8.3069693
  entropy:            53.7486124
  heat_capacity:      51.5760378
  energy:             33.5688171

- temperature:       480.0000000
  free_energy:         7.7640226
  entropy:            54.8381191
  heat_capacity:      51.9214468
  energy:             34.0863197

- temperature:       490.0000000
  free_energy:         7.2102587
  entropy:            55.9120991
  heat_capacity:      52.2491978
  energy:             34.6071872

- temperature:       500.0000000
  free_energy:         6.6458314
  entropy:            56.9708344
  heat_capacity:      52.5604109
  energy:             35.1312486

- temperature:       510.0000000
  free_energy:         6.0708918
  entropy:            58.0146116
  heat_capacity:      52.8561248
  energy:             35.6583438

- temperature:       520.0000000
  free_energy:         5.4855881
  entropy:            59.0437203
  heat_capacity:      53.1373031
  energy:             36.1883226

- temperature:       530.0000000
  free_energy:         4.8900653
  entropy:            60.0584510
  heat_capacity:      53.4048400
  energy:             36.7210444

- temperature:       540.0000000
  free_energy:         4.2844660
  entropy:            61.0590940
  heat_capacity:      53.6595660
  energy:             37.2563767

- temperature:       550.0000000
  free_energy:         3.6689295
  entropy:            62.0459384
  heat_capacity:      53.9022525
  energy:             37.7941956

- temperature:       560.0000000
  free_energy:         3.0435923
  entropy:            63.0192710
  heat_capacity:      54.1336167
  energy:             38.3343841

- temperature:       570.0000000
  free_energy:         2.4085881
  entropy:            63.9793759
  heat_capacity:      54.3543256
  energy:             38.8768324

- temperature:       580.0000000
  free_energy:         1.7640479
  entropy:            64.9265331
  heat_capacity:      54.5650001
  energy:             39.4214371

- temperature:       590.0000000
  free_energy:         1.1100997
  entropy:            65.8610189
  heat_capacity:      54.7662185
  energy:             39.9681009

- temperature:       600.0000000
  free_energy:         0.4468689
  entropy:            66.7831048
  heat_capacity:      54.9585196
  energy:             40.5167318

- temperature:       610.0000000
  free_energy:        -0.2255219
  entropy:            67.6930576
  heat_capacity:      55.1424058
  energy:             41.0672432

- temperature:       620.0000000
  free_energy:        -0.9069527
  entropy:            68.5911389
  heat_capacity:      55.3183461
  energy:             41.6195534

- temperature:       630.0000000
  free_energy:        -1.5973060
  entropy:            69.4776049
  heat_capacity:      55.4867783
  energy:             42.1735851

- temperature:       640.0000000
  free_energy:        -2.2964669
  entropy:            70.3527066
  heat_capacity:      55.6481115
  energy:             42.7292653

- temperature:       650.0000000
  free_energy:        -3.0043231
  entropy:            71.2166893
  heat_capacity:      55.8027282
  energy:             43.2865250

- temperature:       660.0000000
  free_energy:        -3.7207645
  entropy:            72.0697926
  heat_capacity:      55.9509863
  energy:             43.8452987

- temperature:       670.0000000
  free_energy:        -4.4456834
  entropy:            72.9122508
  heat_capacity:      56.0932209
  energy:             44.4055246

- temperature:       680.0000000
  free_energy:        -5.1789747
  entropy:            73.7442924
  heat_capacity:      56.2297458
  energy:             44.9671441

- temperature:       690.0000000
  free_energy:        -5.9205353
  entropy:            74.5661403
  heat_capacity:      56.3608555
  energy:             45.5301015

- temperature:       700.0000000
  free_energy:        -6.6702643
  entropy:            75.3780119
  heat_capacity:      56.4868259
  energy:             46.0943441

- temperature:       710.0000000
  free_energy:        -7.4280630
  entropy:            76.1801193
  heat_capacity:      56.6079163
  energy:             46.6598217

- temperature:       720.0000000
  free_energy:        -8.1938348
  entropy:            76.9726691
  heat_capacity:      56.7243700
  energy:             47.2264869

- temperature:       730.0000000
  free_energy:        -8.9674852
  entropy:            77.7558625
  heat_capacity:      56.8364159
  energy:             47.7942944

- temperature:       740.0000000
  free_energy:        -9.7489215
  entropy:            78.5298957
  heat_capacity:      56.9442691
  energy:             48.3632013

- temperature:       750.0000000
  free_energy:       -10.5380532
  entropy:            79.2949596
  heat_capacity:      57.0481321
  energy:             48.9331665

- temperature:       760.0000000
  free_energy:       -11.3347915
  entropy:            80.0512404
  heat_capacity:      57.1481957
  energy:             49.5041512

- temperature:       770.0000000
  free_energy:       -12.1390494
  entropy:            80.7989191
  heat_capacity:      57.2446394
  energy:             50.0761184

- temperature:       780.0000000
  free_energy:       -12.9507418
  entropy:            81.5381722
  heat_capacity:      57.3376326
  energy:             50.6490325

- temperature:       790.0000000
  free_energy:       -13.7697853
  entropy:            82.2691713
  heat_capacity:      57.4273352
  energy:             51.2228601

- temperature:       800.0000000
  free_energy:       -14.5960982
  entropy:            82.9920837
  heat_capacity:      57.5138979
  energy:             51.7975688

- temperature:       810.0000000
  free_energy:       -15.4296005
  entropy:            83.7070723
  heat_capacity:      57.5974632
  energy:             52.3731280

- temperature:       820.0000000
  free_energy:       -16.2702138
  entropy:            84.4142955
  heat_capacity:      57.6781656
  energy:             52.9495085

- temperature:       830.0000000
  free_energy:       -17.1178611
  entropy:            85.1139076
  heat_capacity:      57.7561324
  energy:             53.5266822

- temperature:       840.0000000
  free_energy:       -17.9724671
  entropy:            85.8060589
  heat_capacity:      57.8314840
  energy:             54.1046224

- temperature:       850.0000000
  free_energy:       -18.8339579
  entropy:            86.4908958
  heat_capacity:      57.9043343
  energy:             54.6833036

- temperature:       860.0000000
  free_energy:       -19.7022611
  entropy:            87.1685607
  heat_capacity:      57.9747911
  energy:             55.2627011

- temperature:       870.0000000
  free_energy:       -20.5773057
  entropy:            87.8391924
  heat_capacity:      58.0429568
  energy:             55.8427917

- temperature:       880.0000000
  free_energy:       -21.4590219
  entropy:            88.5029260
  heat_capacity:      58.1089283
  energy:             56.4235530

- temperature:       890.0000000
  free_energy:       -22.3473416
  entropy:            89.1598932
  heat_capacity:      58.1727973
  energy:             57.0049633

- temperature:       900.0000000
  free_energy:       -23.2421977
  entropy:            89.8102221
  heat_capacity:      58.2346512
  energy:             57.5870022

- temperature:       910.0000000
  free_energy:       -24.1435243
  entropy:            90.4540376
  heat_capacity:      58.2945728
  energy:             58.1696499

- temperature:       920.0000000
  free_energy:       -25.0512571
  entropy:            91.0914615
  heat_capacity:      58.3526407
  energy:             58.7528875

- temperature:       930.0000000
  free_energy:       -25.9653327
  entropy:            91.7226123
  heat_capacity:      58.4089297
  energy:             59.3366968

- temperature:       940.0000000
  free_energy:       -26.8856888
  entropy:            92.3476055
  heat_capacity:      58.4635108
  energy:             59.9210604

- temperature:       950.0000000
  free_energy:       -27.8122646
  entropy:            92.9665538
  heat_capacity:      58.5164516
  energy:             60.5059615

- temperature:       960.0000000
  free_energy:       -28.7450001
  entropy:            93.5795670
  heat_capacity:      58.5678165
  energy:             61.0913841

- temperature:       970.0000000
  free_energy:       -29.6838365
  entropy:            94.1867519
  heat_capacity:      58.6176666
  energy:             61.6773128

- temperature:       980.0000000
  free_energy:       -30.6287161
  entropy:            94.7882130
  heat_capacity:      58.6660603
  energy:             62.2637326

- temperature:       990.0000000
  free_energy:       -31.5795821
  entropy:            95.3840519
  heat_capacity:      58.7130533
  energy:             62.8506293

- temperature:      1000.0000000
  free_energy:       -32.5363787
  entropy:            95.9743679
  heat_capacity:      58.7586984
  energy:             63.4379892
