   16   16    1    1
  0.5265935E+02  0.4932875E-09  0.4932875E-09  0.4000000E-08  0.5000000E-15
  1.000000000000000E-004
  CAR 
 graphite                                
     64     76     42
 
  0.0000000E+00  0.0000000E+00  0.0000000E+00  0.6944444E-02
    1      -22.260928
    2      -22.260877
    3      -17.024326
    4      -17.022812
    5      -17.020506
    6      -17.019019
    7      -17.019018
    8      -17.015892
    9      -15.987396
   10      -15.986740
   11      -15.975467
   12      -15.972831
   13      -15.972830
   14      -15.969219
   15      -10.363957
   16      -10.363894
   17       -9.166546
   18       -9.164429
   19       -9.164429
   20       -9.163524
   21       -9.142341
   22       -9.140804
   23       -5.794861
   24       -5.791464
   25       -5.767225
   26       -5.764339
   27       -5.111456
   28       -5.110099
   29       -5.107816
   30       -5.105974
   31       -5.105973
   32       -5.104796
   33       -1.077580
   34       -1.074617
   35       -1.065737
   36       -1.065735
   37       -1.065721
   38       -1.063331
   39        0.523721
   40        0.525940
   41        1.272497
   42        1.322804
 
  0.1666667E+00  0.1387779E-16  0.0000000E+00  0.1388889E-01
    1      -22.096825
    2      -22.096768
    3      -18.279368
    4      -18.278799
    5      -17.419007
    6      -17.418273
    7      -17.414622
    8      -17.414264
    9      -15.323323
   10      -15.322882
   11      -15.309382
   12      -15.307213
   13      -14.470338
   14      -14.469718
   15      -10.168083
   16      -10.168027
   17       -9.650344
   18       -9.649329
   19       -9.628052
   20       -9.626688
   21       -9.002447
   22       -9.002161
   23       -6.425010
   24       -6.424392
   25       -6.124890
   26       -6.123686
   27       -5.949176
   28       -5.949000
   29       -5.217556
   30       -5.216589
   31       -5.212953
   32       -5.212702
   33       -0.801598
   34       -0.798845
   35       -0.790392
   36       -0.789690
   37        0.029958
   38        0.030805
   39        0.746564
   40        0.748742
   41        1.498863
   42        1.548451
 
  0.3333333E+00  0.2775558E-16  0.0000000E+00  0.1388889E-01
    1      -21.606292
    2      -21.606215
    3      -19.675651
    4      -19.675409
    5      -17.834203
    6      -17.833348
    7      -17.831078
    8      -17.830904
    9      -14.154452
   10      -14.154335
   11      -14.140475
   12      -14.138561
   13      -12.368910
   14      -12.368725
   15      -10.795492
   16      -10.794303
   17      -10.776042
   18      -10.775180
   19       -9.585748
   20       -9.585705
   21       -8.529844
   22       -8.529439
   23       -8.064031
   24       -8.063612
   25       -7.369569
   26       -7.369540
   27       -6.917428
   28       -6.916515
   29       -5.404011
   30       -5.403915
   31       -5.401489
   32       -5.400606
   33       -0.235928
   34       -0.233561
   35       -0.227637
   36       -0.227417
   37        1.414754
   38        1.416771
   39        2.161517
   40        2.162027
   41        2.176815
   42        2.224031
 
  0.5000000E+00  0.0000000E+00  0.0000000E+00  0.6944444E-02
    1      -20.797021
    2      -20.795154
    3      -20.795154
    4      -20.793030
    5      -17.981412
    6      -17.979866
    7      -17.979866
    8      -17.978917
    9      -13.273560
   10      -13.273560
   11      -13.273525
   12      -13.270597
   13      -11.693641
   14      -11.691763
   15      -11.691763
   16      -11.691585
   17      -10.166126
   18      -10.164020
   19      -10.164020
   20      -10.161669
   21       -8.637777
   22       -8.636152
   23       -8.636152
   24       -8.634457
   25       -7.800251
   26       -7.796246
   27       -7.796246
   28       -7.793444
   29       -5.487702
   30       -5.486676
   31       -5.486676
   32       -5.484753
   33        0.063186
   34        0.066306
   35        0.066306
   36        0.067215
   37        2.526327
   38        2.526523
   39        2.528123
   40        2.528311
   41        3.293336
   42        3.293404
 
  0.0000000E+00  0.1666667E+00  0.0000000E+00  0.1388889E-01
    1      -22.096825
    2      -22.096774
    3      -18.279682
    4      -18.279368
    5      -17.418851
    6      -17.418273
    7      -17.414263
    8      -17.412551
    9      -15.323863
   10      -15.322882
   11      -15.310354
   12      -15.309382
   13      -14.469718
   14      -14.468266
   15      -10.168083
   16      -10.168025
   17       -9.649441
   18       -9.649329
   19       -9.628052
   20       -9.626606
   21       -9.003037
   22       -9.002161
   23       -6.425010
   24       -6.423845
   25       -6.125287
   26       -6.123685
   27       -5.949003
   28       -5.948984
   29       -5.217556
   30       -5.216645
   31       -5.212954
   32       -5.212950
   33       -0.801556
   34       -0.798845
   35       -0.790391
   36       -0.789074
   37        0.029957
   38        0.030262
   39        0.746559
   40        0.748736
   41        1.498862
   42        1.548451
 
  0.1666667E+00  0.1666667E+00  0.0000000E+00  0.1388889E-01
    1      -21.769272
    2      -21.769203
    3      -18.895270
    4      -18.893224
    5      -18.893223
    6      -18.891006
    7      -16.600423
    8      -16.600335
    9      -15.588564
   10      -15.587905
   11      -13.370237
   12      -13.368119
   13      -13.368119
   14      -13.365131
   15      -10.960523
   16      -10.959396
   17       -9.778642
   18       -9.778617
   19       -9.323721
   20       -9.321381
   21       -9.321381
   22       -9.320042
   23       -7.456134
   24       -7.453834
   25       -6.807720
   26       -6.804827
   27       -6.521763
   28       -6.520370
   29       -6.520370
   30       -6.518666
   31       -4.513657
   32       -4.512056
   33       -1.302243
   34       -1.299675
   35        0.973471
   36        0.975096
   37        0.975097
   38        0.975897
   39        1.192940
   40        1.195266
   41        1.951424
   42        1.999491
 
  0.3333333E+00  0.1666667E+00  0.0000000E+00  0.1388889E-01
    1      -21.118210
    2      -21.118108
    3      -20.154127
    4      -20.153971
    5      -19.207262
    6      -19.207132
    7      -16.559063
    8      -16.558606
    9      -14.699264
   10      -14.698775
   11      -12.393746
   12      -12.393396
   13      -12.231236
   14      -12.229664
   15      -11.245306
   16      -11.244810
   17      -10.217632
   18      -10.216479
   19       -9.170173
   20       -9.169058
   21       -9.011278
   22       -9.011233
   23       -8.686367
   24       -8.686201
   25       -7.898016
   26       -7.897994
   27       -7.801665
   28       -7.800244
   29       -6.826268
   30       -6.825973
   31       -4.104193
   32       -4.103089
   33       -1.454066
   34       -1.452288
   35        1.679075
   36        1.680225
   37        2.083828
   38        2.085717
   39        2.853299
   40        2.897782
   41        3.170054
   42        3.188636
 
  0.5000000E+00  0.1666667E+00  0.0000000E+00  0.1388889E-01
    1      -21.119398
    2      -21.119320
    3      -20.152485
    4      -20.152302
    5      -19.208340
    6      -19.208217
    7      -16.558828
    8      -16.557771
    9      -14.688488
   10      -14.685937
   11      -12.407345
   12      -12.406124
   13      -12.243421
   14      -12.243209
   15      -11.246193
   16      -11.245881
   17      -10.201954
   18      -10.201593
   19       -9.174153
   20       -9.173220
   21       -9.012383
   22       -9.012230
   23       -8.685996
   24       -8.685260
   25       -7.896741
   26       -7.896556
   27       -7.797420
   28       -7.796642
   29       -6.827341
   30       -6.826821
   31       -4.102326
   32       -4.102288
   33       -1.450520
   34       -1.450272
   35        1.674595
   36        1.676377
   37        2.082330
   38        2.084221
   39        2.851817
   40        2.896314
   41        3.170934
   42        3.171051
 
 -0.3333333E+00  0.1666667E+00  0.0000000E+00  0.1388889E-01
    1      -21.769989
    2      -21.769936
    3      -18.896549
    4      -18.896429
    5      -18.891176
    6      -18.890822
    7      -16.599595
    8      -16.597399
    9      -15.574733
   10      -15.571296
   11      -13.383253
   12      -13.382839
   13      -13.370877
   14      -13.370641
   15      -10.979957
   16      -10.978957
   17       -9.779330
   18       -9.779241
   19       -9.320330
   20       -9.319970
   21       -9.300198
   22       -9.298987
   23       -7.472655
   24       -7.470581
   25       -6.790529
   26       -6.788888
   27       -6.523486
   28       -6.522555
   29       -6.518897
   30       -6.518804
   31       -4.509499
   32       -4.508919
   33       -1.294419
   34       -1.293684
   35        0.964171
   36        0.966565
   37        0.974236
   38        0.974670
   39        1.192041
   40        1.194364
   41        1.950525
   42        1.998599
 
 -0.1666667E+00  0.1666667E+00  0.0000000E+00  0.1388889E-01
    1      -22.097065
    2      -22.097019
    3      -18.284572
    4      -18.284476
    5      -17.413718
    6      -17.412138
    7      -17.412138
    8      -17.410243
    9      -15.313212
   10      -15.311737
   11      -15.311737
   12      -15.309512
   13      -14.483086
   14      -14.482527
   15      -10.168316
   16      -10.168237
   17       -9.650712
   18       -9.648767
   19       -9.648767
   20       -9.647877
   21       -8.980275
   22       -8.978792
   23       -6.446178
   24       -6.443159
   25       -6.105465
   26       -6.102775
   27       -5.953771
   28       -5.952496
   29       -5.214108
   30       -5.211982
   31       -5.211981
   32       -5.210988
   33       -0.791483
   34       -0.791180
   35       -0.791180
   36       -0.788747
   37        0.018534
   38        0.020802
   39        0.746263
   40        0.748440
   41        1.498562
   42        1.548152
 
  0.0000000E+00  0.3333333E+00  0.0000000E+00  0.1388889E-01
    1      -21.606292
    2      -21.606243
    3      -19.675679
    4      -19.675651
    5      -17.834281
    6      -17.833348
    7      -17.831077
    8      -17.829469
    9      -14.155881
   10      -14.154336
   11      -14.141145
   12      -14.140475
   13      -12.368725
   14      -12.367490
   15      -10.794303
   16      -10.793859
   17      -10.776042
   18      -10.774408
   19       -9.585747
   20       -9.585693
   21       -8.530420
   22       -8.529439
   23       -8.064031
   24       -8.062730
   25       -7.369568
   26       -7.369466
   27       -6.917901
   28       -6.916515
   29       -5.404531
   30       -5.404011
   31       -5.401489
   32       -5.400239
   33       -0.236149
   34       -0.233561
   35       -0.227637
   36       -0.226600
   37        1.414735
   38        1.416753
   39        2.161516
   40        2.161598
   41        2.176810
   42        2.224027
 
  0.1666667E+00  0.3333333E+00  0.0000000E+00  0.1388889E-01
    1      -21.118210
    2      -21.118134
    3      -20.154160
    4      -20.154127
    5      -19.207132
    6      -19.206927
    7      -16.558606
    8      -16.558115
    9      -14.700816
   10      -14.699265
   11      -12.393746
   12      -12.392328
   13      -12.232513
   14      -12.231237
   15      -11.244810
   16      -11.243470
   17      -10.216479
   18      -10.215318
   19       -9.170173
   20       -9.168553
   21       -9.011278
   22       -9.011223
   23       -8.687421
   24       -8.686367
   25       -7.897994
   26       -7.897966
   27       -7.801913
   28       -7.800243
   29       -6.826269
   30       -6.826054
   31       -4.104193
   32       -4.103198
   33       -1.453897
   34       -1.452288
   35        1.679415
   36        1.680225
   37        2.083818
   38        2.085704
   39        2.853295
   40        2.897776
   41        3.169610
   42        3.303586
 
  0.3333333E+00  0.3333333E+00  0.0000000E+00  0.1388889E-01
    1      -20.317722
    2      -20.315323
    3      -20.315323
    4      -20.314182
    5      -20.312516
    6      -20.311084
    7      -15.341392
    8      -15.339523
    9      -15.338556
   10      -15.336574
   11      -13.295770
   12      -13.295624
   13      -10.514300
   14      -10.510661
   15      -10.510661
   16      -10.508877
   17      -10.502392
   18      -10.500434
   19       -9.164414
   20       -9.162215
   21       -9.154290
   22       -9.152310
   23       -9.152310
   24       -9.147966
   25       -8.079196
   26       -8.077433
   27       -8.077433
   28       -8.076236
   29       -8.074898
   30       -8.073831
   31       -2.749713
   32       -2.748358
   33       -2.747750
   34       -2.746232
   35        3.190749
   36        3.192711
   37        3.193740
   38        3.194381
   39        3.196041
   40        3.197741
   41        3.622992
   42        3.625923
 
  0.5000000E+00  0.3333333E+00  0.0000000E+00  0.1388889E-01
    1      -21.120101
    2      -21.120064
    3      -20.155990
    4      -20.155947
    5      -19.203478
    6      -19.203254
    7      -16.552518
    8      -16.552076
    9      -14.692688
   10      -14.690980
   11      -12.408666
   12      -12.407597
   13      -12.232709
   14      -12.232255
   15      -11.261307
   16      -11.260700
   17      -10.218303
   18      -10.217587
   19       -9.188831
   20       -9.186605
   21       -9.013064
   22       -9.012830
   23       -8.666547
   24       -8.665330
   25       -7.899748
   26       -7.899428
   27       -7.782545
   28       -7.780027
   29       -6.823433
   30       -6.823237
   31       -4.100092
   32       -4.099207
   33       -1.451829
   34       -1.450714
   35        1.680469
   36        1.680989
   37        2.081429
   38        2.083319
   39        2.850908
   40        2.895409
   41        3.161848
   42        3.301127
 
 -0.3333333E+00  0.3333333E+00  0.0000000E+00  0.1388889E-01
    1      -21.607243
    2      -21.607214
    3      -19.679291
    4      -19.679249
    5      -17.827929
    6      -17.826800
    7      -17.826800
    8      -17.825286
    9      -14.145933
   10      -14.144899
   11      -14.144899
   12      -14.142973
   13      -12.384415
   14      -12.383578
   15      -10.795341
   16      -10.793545
   17      -10.793545
   18      -10.792867
   19       -9.586665
   20       -9.586520
   21       -8.508144
   22       -8.506527
   23       -8.084343
   24       -8.082271
   25       -7.372943
   26       -7.372285
   27       -6.897179
   28       -6.894906
   29       -5.400777
   30       -5.398640
   31       -5.398640
   32       -5.397588
   33       -0.229703
   34       -0.229130
   35       -0.229129
   36       -0.226485
   37        1.413547
   38        1.415566
   39        2.150877
   40        2.152478
   41        2.175612
   42        2.222837
 
 -0.1666667E+00  0.3333333E+00  0.0000000E+00  0.1388889E-01
    1      -21.769989
    2      -21.769956
    3      -18.897168
    4      -18.896429
    5      -18.891176
    6      -18.890481
    7      -16.597398
    8      -16.595134
    9      -15.577227
   10      -15.574733
   11      -13.384156
   12      -13.382839
   13      -13.370641
   14      -13.369069
   15      -10.978958
   16      -10.978760
   17       -9.779330
   18       -9.779234
   19       -9.321048
   20       -9.319970
   21       -9.300198
   22       -9.298394
   23       -7.471247
   24       -7.470582
   25       -6.790529
   26       -6.790073
   27       -6.523486
   28       -6.523199
   29       -6.518805
   30       -6.518175
   31       -4.509840
   32       -4.508919
   33       -1.294418
   34       -1.293078
   35        0.963883
   36        0.966565
   37        0.974236
   38        0.974617
   39        1.192032
   40        1.194340
   41        1.950524
   42        1.998597
 
  0.0000000E+00  0.5000000E+00  0.0000000E+00  0.6944444E-02
    1      -20.795162
    2      -20.795154
    3      -20.795154
    4      -20.795077
    5      -17.981586
    6      -17.979866
    7      -17.979866
    8      -17.977567
    9      -13.278584
   10      -13.273561
   11      -13.273561
   12      -13.272804
   13      -11.691763
   14      -11.691763
   15      -11.690627
   16      -11.688662
   17      -10.164020
   18      -10.164020
   19      -10.162814
   20      -10.162704
   21       -8.636152
   22       -8.636152
   23       -8.636111
   24       -8.636062
   25       -7.797443
   26       -7.797312
   27       -7.796246
   28       -7.796246
   29       -5.488537
   30       -5.486676
   31       -5.486676
   32       -5.484144
   33        0.062517
   34        0.066307
   35        0.066307
   36        0.068453
   37        2.526341
   38        2.526440
   39        2.528134
   40        2.528221
   41        3.293341
   42        3.293346
 
  0.1666667E+00  0.5000000E+00  0.0000000E+00  0.1388889E-01
    1      -21.119398
    2      -21.119384
    3      -20.152485
    4      -20.152425
    5      -19.208217
    6      -19.208119
    7      -16.557771
    8      -16.556698
    9      -14.690464
   10      -14.688488
   11      -12.406123
   12      -12.405053
   13      -12.245228
   14      -12.243421
   15      -11.246193
   16      -11.244926
   17      -10.201954
   18      -10.199828
   19       -9.173220
   20       -9.172293
   21       -9.012383
   22       -9.012206
   23       -8.686403
   24       -8.685260
   25       -7.896710
   26       -7.896556
   27       -7.798123
   28       -7.797419
   29       -6.827341
   30       -6.826869
   31       -4.102566
   32       -4.102326
   33       -1.450273
   34       -1.450074
   35        1.674767
   36        1.676377
   37        2.082304
   38        2.084191
   39        2.851811
   40        2.896306
   41        3.170597
   42        3.171050
 
  0.3333333E+00  0.5000000E+00  0.0000000E+00  0.1388889E-01
    1      -21.120102
    2      -21.120101
    3      -20.155947
    4      -20.155923
    5      -19.203478
    6      -19.203368
    7      -16.552076
    8      -16.551324
    9      -14.693463
   10      -14.692688
   11      -12.407597
   12      -12.407456
   13      -12.232709
   14      -12.231451
   15      -11.262176
   16      -11.260700
   17      -10.218824
   18      -10.217587
   19       -9.187504
   20       -9.186605
   21       -9.013064
   22       -9.012816
   23       -8.666547
   24       -8.664530
   25       -7.899748
   26       -7.899447
   27       -7.782545
   28       -7.781233
   29       -6.823399
   30       -6.823237
   31       -4.100261
   32       -4.099207
   33       -1.451828
   34       -1.450439
   35        1.680468
   36        1.680822
   37        2.081413
   38        2.083301
   39        2.850907
   40        2.895407
   41        3.161912
   42        3.301125
 
  0.5000000E+00  0.5000000E+00  0.0000000E+00  0.6944444E-02
    1      -20.799258
    2      -20.797253
    3      -20.797253
    4      -20.795245
    5      -17.975127
    6      -17.974085
    7      -17.974085
    8      -17.972640
    9      -13.271121
   10      -13.270483
   11      -13.270483
   12      -13.268201
   13      -11.702441
   14      -11.700600
   15      -11.700599
   16      -11.700584
   17      -10.184370
   18      -10.180955
   19      -10.180955
   20      -10.180156
   21       -8.639559
   22       -8.638154
   23       -8.638154
   24       -8.636136
   25       -7.777472
   26       -7.775850
   27       -7.775850
   28       -7.770457
   29       -5.484359
   30       -5.482226
   31       -5.482226
   32       -5.481149
   33        0.066082
   34        0.066741
   35        0.066742
   36        0.069516
   37        2.523639
   38        2.523829
   39        2.525442
   40        2.525614
   41        3.290555
   42        3.290634
 
  0.0000000E+00  0.0000000E+00  0.2500000E+00  0.1388889E-01
    1      -22.260929
    2      -22.260878
    3      -17.024330
    4      -17.022815
    5      -17.020510
    6      -17.019022
    7      -17.019022
    8      -17.015895
    9      -15.987395
   10      -15.986738
   11      -15.975470
   12      -15.972834
   13      -15.972833
   14      -15.969221
   15      -10.363958
   16      -10.363894
   17       -9.166555
   18       -9.164438
   19       -9.164438
   20       -9.163533
   21       -9.142344
   22       -9.140807
   23       -5.794892
   24       -5.791495
   25       -5.767255
   26       -5.764370
   27       -5.111470
   28       -5.110114
   29       -5.107830
   30       -5.105988
   31       -5.105988
   32       -5.104811
   33       -1.077589
   34       -1.074626
   35       -1.065746
   36       -1.065745
   37       -1.065733
   38       -1.063341
   39        0.524040
   40        0.525614
   41        1.278751
   42        1.314017
 
  0.1666667E+00  0.1387779E-16  0.2500000E+00  0.1388889E-01
    1      -22.096824
    2      -22.096767
    3      -18.279369
    4      -18.278800
    5      -17.419007
    6      -17.418273
    7      -17.414621
    8      -17.414262
    9      -15.323323
   10      -15.322883
   11      -15.309383
   12      -15.307215
   13      -14.470340
   14      -14.469720
   15      -10.168089
   16      -10.168033
   17       -9.650338
   18       -9.649322
   19       -9.628048
   20       -9.626684
   21       -9.002451
   22       -9.002165
   23       -6.425007
   24       -6.424390
   25       -6.124892
   26       -6.123688
   27       -5.949175
   28       -5.948999
   29       -5.217557
   30       -5.216589
   31       -5.212955
   32       -5.212703
   33       -0.801589
   34       -0.798836
   35       -0.790382
   36       -0.789680
   37        0.029958
   38        0.030804
   39        0.746875
   40        0.748426
   41        1.505042
   42        1.539813
 
  0.3333333E+00  0.2775558E-16  0.2500000E+00  0.1388889E-01
    1      -21.606292
    2      -21.606214
    3      -19.675650
    4      -19.675409
    5      -17.834204
    6      -17.833350
    7      -17.831078
    8      -17.830904
    9      -14.154454
   10      -14.154338
   11      -14.140476
   12      -14.138563
   13      -12.368910
   14      -12.368725
   15      -10.795497
   16      -10.794308
   17      -10.776047
   18      -10.775184
   19       -9.585750
   20       -9.585707
   21       -8.529846
   22       -8.529441
   23       -8.064037
   24       -8.063619
   25       -7.369561
   26       -7.369531
   27       -6.917427
   28       -6.916514
   29       -5.404024
   30       -5.403928
   31       -5.401501
   32       -5.400619
   33       -0.235931
   34       -0.233564
   35       -0.227639
   36       -0.227419
   37        1.415047
   38        1.416473
   39        2.161519
   40        2.162029
   41        2.182742
   42        2.215886
 
  0.5000000E+00  0.0000000E+00  0.2500000E+00  0.1388889E-01
    1      -20.797021
    2      -20.795154
    3      -20.795154
    4      -20.793030
    5      -17.981412
    6      -17.979866
    7      -17.979866
    8      -17.978916
    9      -13.273556
   10      -13.273555
   11      -13.273520
   12      -13.270592
   13      -11.693638
   14      -11.691760
   15      -11.691760
   16      -11.691582
   17      -10.166124
   18      -10.164018
   19      -10.164018
   20      -10.161667
   21       -8.637765
   22       -8.636140
   23       -8.636140
   24       -8.634445
   25       -7.800249
   26       -7.796244
   27       -7.796244
   28       -7.793442
   29       -5.487706
   30       -5.486681
   31       -5.486681
   32       -5.484758
   33        0.063182
   34        0.066302
   35        0.066302
   36        0.067211
   37        2.526584
   38        2.526781
   39        2.527864
   40        2.528051
   41        3.298515
   42        3.298597
 
 -0.3333333E+00 -0.2775558E-16  0.2500000E+00  0.1388889E-01
    1      -21.606292
    2      -21.606214
    3      -19.675650
    4      -19.675409
    5      -17.834204
    6      -17.833350
    7      -17.831078
    8      -17.830904
    9      -14.154454
   10      -14.154338
   11      -14.140476
   12      -14.138563
   13      -12.368910
   14      -12.368725
   15      -10.795497
   16      -10.794308
   17      -10.776047
   18      -10.775184
   19       -9.585750
   20       -9.585707
   21       -8.529846
   22       -8.529441
   23       -8.064037
   24       -8.063619
   25       -7.369561
   26       -7.369531
   27       -6.917427
   28       -6.916514
   29       -5.404024
   30       -5.403928
   31       -5.401501
   32       -5.400619
   33       -0.235931
   34       -0.233564
   35       -0.227639
   36       -0.227419
   37        1.415047
   38        1.416473
   39        2.161519
   40        2.162026
   41        2.182751
   42        2.215879
 
 -0.1666667E+00 -0.1387779E-16  0.2500000E+00  0.1388889E-01
    1      -22.096824
    2      -22.096767
    3      -18.279369
    4      -18.278800
    5      -17.419007
    6      -17.418273
    7      -17.414621
    8      -17.414262
    9      -15.323323
   10      -15.322883
   11      -15.309383
   12      -15.307215
   13      -14.470340
   14      -14.469720
   15      -10.168089
   16      -10.168033
   17       -9.650338
   18       -9.649322
   19       -9.628048
   20       -9.626684
   21       -9.002451
   22       -9.002165
   23       -6.425007
   24       -6.424390
   25       -6.124892
   26       -6.123688
   27       -5.949175
   28       -5.948999
   29       -5.217557
   30       -5.216589
   31       -5.212955
   32       -5.212703
   33       -0.801589
   34       -0.798836
   35       -0.790382
   36       -0.789680
   37        0.029958
   38        0.030804
   39        0.746875
   40        0.748426
   41        1.505042
   42        1.539813
 
  0.0000000E+00  0.1666667E+00  0.2500000E+00  0.1388889E-01
    1      -22.096824
    2      -22.096773
    3      -18.279683
    4      -18.279369
    5      -17.418850
    6      -17.418273
    7      -17.414262
    8      -17.412550
    9      -15.323864
   10      -15.322883
   11      -15.310356
   12      -15.309384
   13      -14.469720
   14      -14.468267
   15      -10.168089
   16      -10.168031
   17       -9.649435
   18       -9.649322
   19       -9.628048
   20       -9.626602
   21       -9.003041
   22       -9.002165
   23       -6.425008
   24       -6.423843
   25       -6.125289
   26       -6.123687
   27       -5.949000
   28       -5.948985
   29       -5.217557
   30       -5.216646
   31       -5.212956
   32       -5.212951
   33       -0.801546
   34       -0.798835
   35       -0.790382
   36       -0.789064
   37        0.029957
   38        0.030262
   39        0.746870
   40        0.748419
   41        1.505042
   42        1.539812
 
  0.1666667E+00  0.1666667E+00  0.2500000E+00  0.1388889E-01
    1      -21.769272
    2      -21.769204
    3      -18.895268
    4      -18.893221
    5      -18.893221
    6      -18.891004
    7      -16.600424
    8      -16.600336
    9      -15.588561
   10      -15.587902
   11      -13.370235
   12      -13.368118
   13      -13.368118
   14      -13.365130
   15      -10.960519
   16      -10.959392
   17       -9.778646
   18       -9.778620
   19       -9.323722
   20       -9.321382
   21       -9.321382
   22       -9.320043
   23       -7.456140
   24       -7.453840
   25       -6.807734
   26       -6.804841
   27       -6.521763
   28       -6.520370
   29       -6.520369
   30       -6.518666
   31       -4.513661
   32       -4.512060
   33       -1.302249
   34       -1.299681
   35        0.973477
   36        0.975103
   37        0.975103
   38        0.975904
   39        1.193195
   40        1.195006
   41        1.957444
   42        1.991167
 
  0.3333333E+00  0.1666667E+00  0.2500000E+00  0.1388889E-01
    1      -21.118210
    2      -21.118108
    3      -20.154128
    4      -20.153971
    5      -19.207262
    6      -19.207133
    7      -16.559062
    8      -16.558606
    9      -14.699262
   10      -14.698773
   11      -12.393745
   12      -12.393395
   13      -12.231233
   14      -12.229661
   15      -11.245306
   16      -11.244811
   17      -10.217629
   18      -10.216477
   19       -9.170173
   20       -9.169058
   21       -9.011277
   22       -9.011233
   23       -8.686368
   24       -8.686202
   25       -7.898013
   26       -7.897991
   27       -7.801659
   28       -7.800237
   29       -6.826265
   30       -6.825970
   31       -4.104191
   32       -4.103087
   33       -1.454060
   34       -1.452282
   35        1.679071
   36        1.680220
   37        2.084100
   38        2.085441
   39        2.858936
   40        2.890193
   41        3.170016
   42        3.170863
 
  0.5000000E+00  0.1666667E+00  0.2500000E+00  0.1388889E-01
    1      -21.119398
    2      -21.119320
    3      -20.152485
    4      -20.152302
    5      -19.208340
    6      -19.208217
    7      -16.558828
    8      -16.557771
    9      -14.688489
   10      -14.685939
   11      -12.407346
   12      -12.406124
   13      -12.243422
   14      -12.243210
   15      -11.246192
   16      -11.245879
   17      -10.201956
   18      -10.201594
   19       -9.174150
   20       -9.173217
   21       -9.012384
   22       -9.012232
   23       -8.685991
   24       -8.685255
   25       -7.896738
   26       -7.896553
   27       -7.797418
   28       -7.796640
   29       -6.827338
   30       -6.826818
   31       -4.102324
   32       -4.102286
   33       -1.450516
   34       -1.450269
   35        1.674588
   36        1.676370
   37        2.082602
   38        2.083946
   39        2.857463
   40        2.888712
   41        3.170942
   42        3.171052
 
 -0.3333333E+00  0.1666667E+00  0.2500000E+00  0.1388889E-01
    1      -21.769990
    2      -21.769937
    3      -18.896547
    4      -18.896427
    5      -18.891174
    6      -18.890820