<?xml version="1.0" encoding="ISO-8859-1"?>
<modeling>
 <generator>
  <i name="program" type="string">vasp </i>
  <i name="version" type="string">5.3.5  </i>
  <i name="subversion" type="string">31Mar14 (build Nov 02 2014 15:17:37) complex                          parallel </i>
  <i name="platform" type="string">ion-Intel-MKL </i>
  <i name="date" type="string">2016 10 11 </i>
  <i name="time" type="string">15:42:00 </i>
 </generator>
 <incar>
  <i type="string" name="SYSTEM">graphite</i>
  <i type="string" name="PREC">accurate</i>
  <i type="int" name="NELM">   200</i>
  <i type="int" name="IBRION">    -1</i>
  <i name="EDIFF">      0.00000100</i>
  <i name="EDIFFG">      0.00100000</i>
  <i type="int" name="NSW">     0</i>
  <i type="int" name="ISIF">     2</i>
  <i name="ENCUT">    600.00000000</i>
  <i type="int" name="ISMEAR">    -5</i>
  <i type="logical" name="LWAVE"> F  </i>
  <i type="logical" name="LCHARG"> F  </i>
  <i type="int" name="NELM">   200</i>
  <i type="string" name="GGA">PE</i>
 </incar>
 <kpoints>
  <generation param="Gamma">
   <v type="int" name="divisions">       6        6        4 </v>
   <v name="usershift">      0.00000000       0.00000000       0.00000000 </v>
   <v name="genvec1">      0.16666667       0.00000000       0.00000000 </v>
   <v name="genvec2">      0.00000000       0.16666667       0.00000000 </v>
   <v name="genvec3">      0.00000000       0.00000000       0.25000000 </v>
   <v name="shift">      0.00000000       0.00000000       0.00000000 </v>
  </generation>
  <varray name="kpointlist" >
   <v>       0.00000000       0.00000000       0.00000000 </v>
   <v>       0.16666667       0.00000000       0.00000000 </v>
   <v>       0.33333333       0.00000000       0.00000000 </v>
   <v>       0.50000000       0.00000000       0.00000000 </v>
   <v>       0.00000000       0.16666667       0.00000000 </v>
   <v>       0.16666667       0.16666667       0.00000000 </v>
   <v>       0.33333333       0.16666667       0.00000000 </v>
   <v>       0.50000000       0.16666667       0.00000000 </v>
   <v>      -0.33333333       0.16666667       0.00000000 </v>
   <v>      -0.16666667       0.16666667       0.00000000 </v>
   <v>       0.00000000       0.33333333       0.00000000 </v>
   <v>       0.16666667       0.33333333       0.00000000 </v>
   <v>       0.33333333       0.33333333       0.00000000 </v>
   <v>       0.50000000       0.33333333       0.00000000 </v>
   <v>      -0.33333333       0.33333333       0.00000000 </v>
   <v>      -0.16666667       0.33333333       0.00000000 </v>
   <v>       0.00000000       0.50000000       0.00000000 </v>
   <v>       0.16666667       0.50000000       0.00000000 </v>
   <v>       0.33333333       0.50000000       0.00000000 </v>
   <v>       0.50000000       0.50000000       0.00000000 </v>
   <v>       0.00000000       0.00000000       0.25000000 </v>
   <v>       0.16666667       0.00000000       0.25000000 </v>
   <v>       0.33333333       0.00000000       0.25000000 </v>
   <v>       0.50000000       0.00000000       0.25000000 </v>
   <v>      -0.33333333      -0.00000000       0.25000000 </v>
   <v>      -0.16666667      -0.00000000       0.25000000 </v>
   <v>       0.00000000       0.16666667       0.25000000 </v>
   <v>       0.16666667       0.16666667       0.25000000 </v>
   <v>       0.33333333       0.16666667       0.25000000 </v>
   <v>       0.50000000       0.16666667       0.25000000 </v>
   <v>      -0.33333333       0.16666667       0.25000000 </v>
   <v>      -0.16666667       0.16666667       0.25000000 </v>
   <v>       0.00000000       0.33333333       0.25000000 </v>
   <v>       0.16666667       0.33333333       0.25000000 </v>
   <v>       0.33333333       0.33333333       0.25000000 </v>
   <v>       0.50000000       0.33333333       0.25000000 </v>
   <v>      -0.33333333       0.33333333       0.25000000 </v>
   <v>      -0.16666667       0.33333333       0.25000000 </v>
   <v>       0.00000000       0.50000000       0.25000000 </v>
   <v>       0.16666667       0.50000000       0.25000000 </v>
   <v>       0.33333333       0.50000000       0.25000000 </v>
   <v>       0.50000000       0.50000000       0.25000000 </v>
   <v>      -0.33333333       0.50000000       0.25000000 </v>
   <v>      -0.16666667       0.50000000       0.25000000 </v>
   <v>       0.00000000      -0.33333333       0.25000000 </v>
   <v>       0.16666667      -0.33333333       0.25000000 </v>
   <v>       0.33333333      -0.33333333       0.25000000 </v>
   <v>       0.50000000      -0.33333333       0.25000000 </v>
   <v>      -0.33333333      -0.33333333       0.25000000 </v>
   <v>      -0.16666667      -0.33333333       0.25000000 </v>
   <v>       0.00000000      -0.16666667       0.25000000 </v>
   <v>       0.16666667      -0.16666667       0.25000000 </v>
   <v>       0.33333333      -0.16666667       0.25000000 </v>
   <v>       0.50000000      -0.16666667       0.25000000 </v>
   <v>      -0.33333333      -0.16666667       0.25000000 </v>
   <v>      -0.16666667      -0.16666667       0.25000000 </v>
   <v>       0.00000000       0.00000000       0.50000000 </v>
   <v>       0.16666667       0.00000000       0.50000000 </v>
   <v>       0.33333333       0.00000000       0.50000000 </v>
   <v>       0.50000000       0.00000000       0.50000000 </v>
   <v>       0.00000000       0.16666667       0.50000000 </v>
   <v>       0.16666667       0.16666667       0.50000000 </v>
   <v>       0.33333333       0.16666667       0.50000000 </v>
   <v>       0.50000000       0.16666667       0.50000000 </v>
   <v>      -0.33333333       0.16666667       0.50000000 </v>
   <v>      -0.16666667       0.16666667       0.50000000 </v>
   <v>       0.00000000       0.33333333       0.50000000 </v>
   <v>       0.16666667       0.33333333       0.50000000 </v>
   <v>       0.33333333       0.33333333       0.50000000 </v>
   <v>       0.50000000       0.33333333       0.50000000 </v>
   <v>      -0.33333333       0.33333333       0.50000000 </v>
   <v>      -0.16666667       0.33333333       0.50000000 </v>
   <v>       0.00000000       0.50000000       0.50000000 </v>
   <v>       0.16666667       0.50000000       0.50000000 </v>
   <v>       0.33333333       0.50000000       0.50000000 </v>
   <v>       0.50000000       0.50000000       0.50000000 </v>
  </varray>
  <varray name="weights" >
   <v>       0.00694444 </v>
   <v>       0.01388889 </v>
   <v>       0.01388889 </v>
   <v>       0.00694444 </v>
   <v>       0.01388889 </v>
   <v>       0.01388889 </v>
   <v>       0.01388889 </v>
   <v>       0.01388889 </v>
   <v>       0.01388889 </v>
   <v>       0.01388889 </v>
   <v>       0.01388889 </v>
   <v>       0.01388889 </v>
   <v>       0.01388889 </v>
   <v>       0.01388889 </v>
   <v>       0.01388889 </v>
   <v>       0.01388889 </v>
   <v>       0.00694444 </v>
   <v>       0.01388889 </v>
   <v>       0.01388889 </v>
   <v>       0.00694444 </v>
   <v>       0.01388889 </v>
   <v>       0.01388889 </v>
   <v>       0.01388889 </v>
   <v>       0.01388889 </v>
   <v>       0.01388889 </v>
   <v>       0.01388889 </v>
   <v>       0.01388889 </v>
   <v>       0.01388889 </v>
   <v>       0.01388889 </v>
   <v>       0.01388889 </v>
   <v>       0.01388889 </v>
   <v>       0.01388889 </v>
   <v>       0.01388889 </v>
   <v>       0.01388889 </v>
   <v>       0.01388889 </v>
   <v>       0.01388889 </v>
   <v>       0.01388889 </v>
   <v>       0.01388889 </v>
   <v>       0.01388889 </v>
   <v>       0.01388889 </v>
   <v>       0.01388889 </v>
   <v>       0.01388889 </v>
   <v>       0.01388889 </v>
   <v>       0.01388889 </v>
   <v>       0.01388889 </v>
   <v>       0.01388889 </v>
   <v>       0.01388889 </v>
   <v>       0.01388889 </v>
   <v>       0.01388889 </v>
   <v>       0.01388889 </v>
   <v>       0.01388889 </v>
   <v>       0.01388889 </v>
   <v>       0.01388889 </v>
   <v>       0.01388889 </v>
   <v>       0.01388889 </v>
   <v>       0.01388889 </v>
   <v>       0.00694444 </v>
   <v>       0.01388889 </v>
   <v>       0.01388889 </v>
   <v>       0.00694444 </v>
   <v>       0.01388889 </v>
   <v>       0.01388889 </v>
   <v>       0.01388889 </v>
   <v>       0.01388889 </v>
   <v>       0.01388889 </v>
   <v>       0.01388889 </v>
   <v>       0.01388889 </v>
   <v>       0.01388889 </v>
   <v>       0.01388889 </v>
   <v>       0.01388889 </v>
   <v>       0.01388889 </v>
   <v>       0.01388889 </v>
   <v>       0.00694444 </v>
   <v>       0.01388889 </v>
   <v>       0.01388889 </v>
   <v>       0.00694444 </v>
  </varray>
  <varray name="tetrahedronlist"  type="int" >
   <v type="int" >        2        2        5        6       27 </v>
   <v type="int" >        2        1        2        5       27 </v>
   <v type="int" >        2        1        2       21       27 </v>
   <v type="int" >        2        2        6       27       28 </v>
   <v type="int" >        2        2       22       27       28 </v>
   <v type="int" >        2        2       21       22       27 </v>
   <v type="int" >        2        3        6        7       28 </v>
   <v type="int" >        2        2        3        6       28 </v>
   <v type="int" >        2        2        3       22       28 </v>
   <v type="int" >        2        3        7       28       29 </v>
   <v type="int" >        2        3       23       28       29 </v>
   <v type="int" >        2        3       22       23       28 </v>
   <v type="int" >        2        4        7        8       29 </v>
   <v type="int" >        2        3        4        7       29 </v>
   <v type="int" >        2        3        4       23       29 </v>
   <v type="int" >        2        4        8       29       30 </v>
   <v type="int" >        2        4       24       29       30 </v>
   <v type="int" >        2        4       23       24       29 </v>
   <v type="int" >        2        3        8        9       30 </v>
   <v type="int" >        2        3        4        8       30 </v>
   <v type="int" >        2        3        4       24       30 </v>
   <v type="int" >        2        3        9       30       31 </v>
   <v type="int" >        2        3       25       30       31 </v>
   <v type="int" >        2        3       24       25       30 </v>
   <v type="int" >        2        2        9       10       31 </v>
   <v type="int" >        2        2        3        9       31 </v>
   <v type="int" >        2        2        3       25       31 </v>
   <v type="int" >        2        2       10       31       32 </v>
   <v type="int" >        2        2       26       31       32 </v>
   <v type="int" >        2        2       25       26       31 </v>
   <v type="int" >        2        1        5       10       32 </v>
   <v type="int" >        2        1        2       10       32 </v>
   <v type="int" >        2        1        2       26       32 </v>
   <v type="int" >        2        1        5       27       32 </v>
   <v type="int" >        2        1       21       27       32 </v>
   <v type="int" >        2        1       21       26       32 </v>
   <v type="int" >        2        6       11       12       33 </v>
   <v type="int" >        2        5        6       11       33 </v>
   <v type="int" >        2        5        6       27       33 </v>
   <v type="int" >        2        6       12       33       34 </v>
   <v type="int" >        2        6       28       33       34 </v>
   <v type="int" >        2        6       27       28       33 </v>
   <v type="int" >        2        7       12       13       34 </v>
   <v type="int" >        2        6        7       12       34 </v>
   <v type="int" >        2        6        7       28       34 </v>
   <v type="int" >        2        7       13       34       35 </v>
   <v type="int" >        2        7       29       34       35 </v>
   <v type="int" >        2        7       28       29       34 </v>
   <v type="int" >        2        8       13       14       35 </v>
   <v type="int" >        2        7        8       13       35 </v>
   <v type="int" >        2        7        8       29       35 </v>
   <v type="int" >        2        8       14       35       36 </v>
   <v type="int" >        2        8       30       35       36 </v>
   <v type="int" >        2        8       29       30       35 </v>
   <v type="int" >        2        9       14       15       36 </v>
   <v type="int" >        2        8        9       14       36 </v>
   <v type="int" >        2        8        9       30       36 </v>
   <v type="int" >        2        9       15       36       37 </v>
   <v type="int" >        2        9       31       36       37 </v>
   <v type="int" >        2        9       30       31       36 </v>
   <v type="int" >        2       10       15       16       37 </v>
   <v type="int" >        2        9       10       15       37 </v>
   <v type="int" >        2        9       10       31       37 </v>
   <v type="int" >        2       10       16       37       38 </v>
   <v type="int" >        2       10       32       37       38 </v>
   <v type="int" >        2       10       31       32       37 </v>
   <v type="int" >        2        5       11       16       38 </v>
   <v type="int" >        2        5       10       16       38 </v>
   <v type="int" >        2        5       10       32       38 </v>
   <v type="int" >        2        5       11       33       38 </v>
   <v type="int" >        2        5       27       33       38 </v>
   <v type="int" >        2        5       27       32       38 </v>
   <v type="int" >        2       12       17       18       39 </v>
   <v type="int" >        2       11       12       17       39 </v>
   <v type="int" >        2       11       12       33       39 </v>
   <v type="int" >        2       12       18       39       40 </v>
   <v type="int" >        2       12       34       39       40 </v>
   <v type="int" >        2       12       33       34       39 </v>
   <v type="int" >        2       13       18       19       40 </v>
   <v type="int" >        2       12       13       18       40 </v>
   <v type="int" >        2       12       13       34       40 </v>
   <v type="int" >        2       13       19       40       41 </v>
   <v type="int" >        2       13       35       40       41 </v>
   <v type="int" >        2       13       34       35       40 </v>
   <v type="int" >        2       14       19       20       41 </v>
   <v type="int" >        2       13       14       19       41 </v>
   <v type="int" >        2       13       14       35       41 </v>
   <v type="int" >        2       14       20       41       42 </v>
   <v type="int" >        2       14       36       41       42 </v>
   <v type="int" >        2       14       35       36       41 </v>
   <v type="int" >        2       15       19       20       42 </v>
   <v type="int" >        2       14       15       20       42 </v>
   <v type="int" >        2       14       15       36       42 </v>
   <v type="int" >        2       15       19       42       43 </v>
   <v type="int" >        2       15       37       42       43 </v>
   <v type="int" >        2       15       36       37       42 </v>
   <v type="int" >        2       16       18       19       43 </v>
   <v type="int" >        2       15       16       19       43 </v>
   <v type="int" >        2       15       16       37       43 </v>
   <v type="int" >        2       16       18       43       44 </v>
   <v type="int" >        2       16       38       43       44 </v>
   <v type="int" >        2       16       37       38       43 </v>
   <v type="int" >        2       11       17       18       44 </v>
   <v type="int" >        2       11       16       18       44 </v>
   <v type="int" >        2       11       16       38       44 </v>
   <v type="int" >        2       11       17       39       44 </v>
   <v type="int" >        2       11       33       39       44 </v>
   <v type="int" >        2       11       33       38       44 </v>
   <v type="int" >        2       11       16       18       45 </v>
   <v type="int" >        2       11       17       18       45 </v>
   <v type="int" >        2       17       18       39       45 </v>
   <v type="int" >        2       16       18       45       46 </v>
   <v type="int" >        2       18       40       45       46 </v>
   <v type="int" >        2       18       39       40       45 </v>
   <v type="int" >        2       15       16       19       46 </v>
   <v type="int" >        2       16       18       19       46 </v>
   <v type="int" >        2       18       19       40       46 </v>
   <v type="int" >        2       15       19       46       47 </v>
   <v type="int" >        2       19       41       46       47 </v>
   <v type="int" >        2       19       40       41       46 </v>
   <v type="int" >        2       14       15       20       47 </v>
   <v type="int" >        2       15       19       20       47 </v>
   <v type="int" >        2       19       20       41       47 </v>
   <v type="int" >        2       14       20       47       48 </v>
   <v type="int" >        2       20       42       47       48 </v>
   <v type="int" >        2       20       41       42       47 </v>
   <v type="int" >        2       13       14       19       48 </v>
   <v type="int" >        2       14       19       20       48 </v>
   <v type="int" >        2       19       20       42       48 </v>
   <v type="int" >        2       13       19       48       49 </v>
   <v type="int" >        2       19       43       48       49 </v>
   <v type="int" >        2       19       42       43       48 </v>
   <v type="int" >        2       12       13       18       49 </v>
   <v type="int" >        2       13       18       19       49 </v>
   <v type="int" >        2       18       19       43       49 </v>
   <v type="int" >        2       12       18       49       50 </v>
   <v type="int" >        2       18       44       49       50 </v>
   <v type="int" >        2       18       43       44       49 </v>
   <v type="int" >        2       11       12       17       50 </v>
   <v type="int" >        2       12       17       18       50 </v>
   <v type="int" >        2       17       18       44       50 </v>
   <v type="int" >        2       11       17       45       50 </v>
   <v type="int" >        2       17       39       45       50 </v>
   <v type="int" >        2       17       39       44       50 </v>
   <v type="int" >        2        5       10       16       51 </v>
   <v type="int" >        2        5       11       16       51 </v>
   <v type="int" >        2       11       16       45       51 </v>
   <v type="int" >        2       10       16       51       52 </v>
   <v type="int" >        2       16       46       51       52 </v>
   <v type="int" >        2       16       45       46       51 </v>
   <v type="int" >        2        9       10       15       52 </v>
   <v type="int" >        2       10       15       16       52 </v>
   <v type="int" >        2       15       16       46       52 </v>
   <v type="int" >        2        9       15       52       53 </v>
   <v type="int" >        2       15       47       52       53 </v>
   <v type="int" >        2       15       46       47       52 </v>
   <v type="int" >        2        8        9       14       53 </v>
   <v type="int" >        2        9       14       15       53 </v>
   <v type="int" >        2       14       15       47       53 </v>
   <v type="int" >        2        8       14       53       54 </v>
   <v type="int" >        2       14       48       53       54 </v>
   <v type="int" >        2       14       47       48       53 </v>
   <v type="int" >        2        7        8       13       54 </v>
   <v type="int" >        2        8       13       14       54 </v>
   <v type="int" >        2       13       14       48       54 </v>
   <v type="int" >        2        7       13       54       55 </v>
   <v type="int" >        2       13       49       54       55 </v>
   <v type="int" >        2       13       48       49       54 </v>
   <v type="int" >        2        6        7       12       55 </v>
   <v type="int" >        2        7       12       13       55 </v>
   <v type="int" >        2       12       13       49       55 </v>
   <v type="int" >        2        6       12       55       56 </v>
   <v type="int" >        2       12       50       55       56 </v>
   <v type="int" >        2       12       49       50       55 </v>
   <v type="int" >        2        5        6       11       56 </v>
   <v type="int" >        2        6       11       12       56 </v>
   <v type="int" >        2       11       12       50       56 </v>
   <v type="int" >        2        5       11       51       56 </v>
   <v type="int" >        2       11       45       51       56 </v>
   <v type="int" >        2       11       45       50       56 </v>
   <v type="int" >        2        1        2       10       21 </v>
   <v type="int" >        2        1        5       10       21 </v>
   <v type="int" >        2        5       10       21       51 </v>
   <v type="int" >        2        2       10       21       22 </v>
   <v type="int" >        2       10       21       22       52 </v>
   <v type="int" >        2       10       21       51       52 </v>
   <v type="int" >        2        2        3        9       22 </v>
   <v type="int" >        2        2        9       10       22 </v>
   <v type="int" >        2        9       10       22       52 </v>
   <v type="int" >        2        3        9       22       23 </v>
   <v type="int" >        2        9       22       23       53 </v>
   <v type="int" >        2        9       22       52       53 </v>
   <v type="int" >        2        3        4        8       23 </v>
   <v type="int" >        2        3        8        9       23 </v>
   <v type="int" >        2        8        9       23       53 </v>
   <v type="int" >        2        4        8       23       24 </v>
   <v type="int" >        2        8       23       24       54 </v>
   <v type="int" >        2        8       23       53       54 </v>
   <v type="int" >        2        3        4        7       24 </v>
   <v type="int" >        2        4        7        8       24 </v>
   <v type="int" >        2        7        8       24       54 </v>
   <v type="int" >        2        3        7       24       25 </v>
   <v type="int" >        2        7       24       25       55 </v>
   <v type="int" >        2        7       24       54       55 </v>
   <v type="int" >        2        2        3        6       25 </v>
   <v type="int" >        2        3        6        7       25 </v>
   <v type="int" >        2        6        7       25       55 </v>
   <v type="int" >        2        2        6       25       26 </v>
   <v type="int" >        2        6       25       26       56 </v>
   <v type="int" >        2        6       25       55       56 </v>
   <v type="int" >        2        1        2        5       26 </v>
   <v type="int" >        2        2        5        6       26 </v>
   <v type="int" >        2        5        6       26       56 </v>
   <v type="int" >        2        1        5       21       26 </v>
   <v type="int" >        2        5       21       26       51 </v>
   <v type="int" >        2        5       26       51       56 </v>
   <v type="int" >        2       22       27       28       61 </v>
   <v type="int" >        2       21       22       27       61 </v>
   <v type="int" >        2       21       22       57       61 </v>
   <v type="int" >        2       22       28       61       62 </v>
   <v type="int" >        2       22       58       61       62 </v>
   <v type="int" >        2       22       57       58       61 </v>
   <v type="int" >        2       23       28       29       62 </v>
   <v type="int" >        2       22       23       28       62 </v>
   <v type="int" >        2       22       23       58       62 </v>
   <v type="int" >        2       23       29       62       63 </v>
   <v type="int" >        2       23       59       62       63 </v>
   <v type="int" >        2       23       58       59       62 </v>
   <v type="int" >        2       24       29       30       63 </v>
   <v type="int" >        2       23       24       29       63 </v>
   <v type="int" >        2       23       24       59       63 </v>
   <v type="int" >        2       24       30       63       64 </v>
   <v type="int" >        2       24       60       63       64 </v>
   <v type="int" >        2       24       59       60       63 </v>
   <v type="int" >        2       25       30       31       64 </v>
   <v type="int" >        2       24       25       30       64 </v>
   <v type="int" >        2       24       25       60       64 </v>
   <v type="int" >        2       25       31       64       65 </v>
   <v type="int" >        2       25       59       64       65 </v>
   <v type="int" >        2       25       59       60       64 </v>
   <v type="int" >        2       26       31       32       65 </v>
   <v type="int" >        2       25       26       31       65 </v>
   <v type="int" >        2       25       26       59       65 </v>
   <v type="int" >        2       26       32       65       66 </v>
   <v type="int" >        2       26       58       65       66 </v>
   <v type="int" >        2       26       58       59       65 </v>
   <v type="int" >        2       21       27       32       66 </v>
   <v type="int" >        2       21       26       32       66 </v>
   <v type="int" >        2       21       26       58       66 </v>
   <v type="int" >        2       21       27       61       66 </v>
   <v type="int" >        2       21       57       61       66 </v>
   <v type="int" >        2       21       57       58       66 </v>
   <v type="int" >        2       28       33       34       67 </v>
   <v type="int" >        2       27       28       33       67 </v>
   <v type="int" >        2       27       28       61       67 </v>
   <v type="int" >        2       28       34       67       68 </v>
   <v type="int" >        2       28       62       67       68 </v>
   <v type="int" >        2       28       61       62       67 </v>
   <v type="int" >        2       29       34       35       68 </v>
   <v type="int" >        2       28       29       34       68 </v>
   <v type="int" >        2       28       29       62       68 </v>
   <v type="int" >        2       29       35       68       69 </v>
   <v type="int" >        2       29       63       68       69 </v>
   <v type="int" >        2       29       62       63       68 </v>
   <v type="int" >        2       30       35       36       69 </v>
   <v type="int" >        2       29       30       35       69 </v>
   <v type="int" >        2       29       30       63       69 </v>
   <v type="int" >        2       30       36       69       70 </v>
   <v type="int" >        2       30       64       69       70 </v>
   <v type="int" >        2       30       63       64       69 </v>
   <v type="int" >        2       31       36       37       70 </v>
   <v type="int" >        2       30       31       36       70 </v>
   <v type="int" >        2       30       31       64       70 </v>
   <v type="int" >        2       31       37       70       71 </v>
   <v type="int" >        2       31       65       70       71 </v>
   <v type="int" >        2       31       64       65       70 </v>
   <v type="int" >        2       32       37       38       71 </v>
   <v type="int" >        2       31       32       37       71 </v>
   <v type="int" >        2       31       32       65       71 </v>
   <v type="int" >        2       32       38       71       72 </v>
   <v type="int" >        2       32       66       71       72 </v>
   <v type="int" >        2       32       65       66       71 </v>
   <v type="int" >        2       27       33       38       72 </v>
   <v type="int" >        2       27       32       38       72 </v>
   <v type="int" >        2       27       32       66       72 </v>
   <v type="int" >        2       27       33       67       72 </v>
   <v type="int" >        2       27       61       67       72 </v>
   <v type="int" >        2       27       61       66       72 </v>
   <v type="int" >        2       34       39       40       73 </v>
   <v type="int" >        2       33       34       39       73 </v>
   <v type="int" >        2       33       34       67       73 </v>
   <v type="int" >        2       34       40       73       74 </v>
   <v type="int" >        2       34       68       73       74 </v>
   <v type="int" >        2       34       67       68       73 </v>
   <v type="int" >        2       35       40       41       74 </v>
   <v type="int" >        2       34       35       40       74 </v>
   <v type="int" >        2       34       35       68       74 </v>
   <v type="int" >        2       35       41       74       75 </v>
   <v type="int" >        2       35       69       74       75 </v>
   <v type="int" >        2       35       68       69       74 </v>
   <v type="int" >        2       36       41       42       75 </v>
   <v type="int" >        2       35       36       41       75 </v>
   <v type="int" >        2       35       36       69       75 </v>
   <v type="int" >        2       36       42       75       76 </v>
   <v type="int" >        2       36       70       75       76 </v>
   <v type="int" >        2       36       69       70       75 </v>
   <v type="int" >        2       37       42       43       76 </v>
   <v type="int" >        2       36       37       42       76 </v>
   <v type="int" >        2       36       37       70       76 </v>
   <v type="int" >        2       37       43       75       76 </v>
   <v type="int" >        2       37       71       75       76 </v>
   <v type="int" >        2       37       70       71       76 </v>
   <v type="int" >        2       38       43       44       75 </v>
   <v type="int" >        2       37       38       43       75 </v>
   <v type="int" >        2       37       38       71       75 </v>
   <v type="int" >        2       38       44       74       75 </v>
   <v type="int" >        2       38       72       74       75 </v>
   <v type="int" >        2       38       71       72       75 </v>
   <v type="int" >        2       33       39       44       74 </v>
   <v type="int" >        2       33       38       44       74 </v>
   <v type="int" >        2       33       38       72       74 </v>
   <v type="int" >        2       33       39       73       74 </v>
   <v type="int" >        2       33       67       73       74 </v>
   <v type="int" >        2       33       67       72       74 </v>
   <v type="int" >        2       40       45       46       67 </v>
   <v type="int" >        2       39       40       45       67 </v>
   <v type="int" >        2       39       40       67       73 </v>
   <v type="int" >        2       40       46       67       72 </v>
   <v type="int" >        2       40       67       72       74 </v>
   <v type="int" >        2       40       67       73       74 </v>
   <v type="int" >        2       41       46       47       72 </v>
   <v type="int" >        2       40       41       46       72 </v>
   <v type="int" >        2       40       41       72       74 </v>
   <v type="int" >        2       41       47       71       72 </v>
   <v type="int" >        2       41       71       72       75 </v>
   <v type="int" >        2       41       72       74       75 </v>
   <v type="int" >        2       42       47       48       71 </v>
   <v type="int" >        2       41       42       47       71 </v>
   <v type="int" >        2       41       42       71       75 </v>
   <v type="int" >        2       42       48       70       71 </v>
   <v type="int" >        2       42       70       71       76 </v>
   <v type="int" >        2       42       71       75       76 </v>
   <v type="int" >        2       43       48       49       70 </v>
   <v type="int" >        2       42       43       48       70 </v>
   <v type="int" >        2       42       43       70       76 </v>
   <v type="int" >        2       43       49       69       70 </v>
   <v type="int" >        2       43       69       70       75 </v>
   <v type="int" >        2       43       70       75       76 </v>
   <v type="int" >        2       44       49       50       69 </v>
   <v type="int" >        2       43       44       49       69 </v>
   <v type="int" >        2       43       44       69       75 </v>
   <v type="int" >        2       44       50       68       69 </v>
   <v type="int" >        2       44       68       69       74 </v>
   <v type="int" >        2       44       69       74       75 </v>
   <v type="int" >        2       39       45       50       68 </v>
   <v type="int" >        2       39       44       50       68 </v>
   <v type="int" >        2       39       44       68       74 </v>
   <v type="int" >        2       39       45       67       68 </v>
   <v type="int" >        2       39       67       68       73 </v>
   <v type="int" >        2       39       68       73       74 </v>
   <v type="int" >        2       46       51       52       61 </v>
   <v type="int" >        2       45       46       51       61 </v>
   <v type="int" >        2       45       46       61       67 </v>
   <v type="int" >        2       46       52       61       66 </v>
   <v type="int" >        2       46       61       66       72 </v>
   <v type="int" >        2       46       61       67       72 </v>
   <v type="int" >        2       47       52       53       66 </v>
   <v type="int" >        2       46       47       52       66 </v>
   <v type="int" >        2       46       47       66       72 </v>
   <v type="int" >        2       47       53       65       66 </v>
   <v type="int" >        2       47       65       66       71 </v>
   <v type="int" >        2       47       66       71       72 </v>
   <v type="int" >        2       48       53       54       65 </v>
   <v type="int" >        2       47       48       53       65 </v>
   <v type="int" >        2       47       48       65       71 </v>
   <v type="int" >        2       48       54       64       65 </v>
   <v type="int" >        2       48       64       65       70 </v>
   <v type="int" >        2       48       65       70       71 </v>
   <v type="int" >        2       49       54       55       64 </v>
   <v type="int" >        2       48       49       54       64 </v>
   <v type="int" >        2       48       49       64       70 </v>
   <v type="int" >        2       49       55       63       64 </v>
   <v type="int" >        2       49       63       64       69 </v>
   <v type="int" >        2       49       64       69       70 </v>
   <v type="int" >        2       50       55       56       63 </v>
   <v type="int" >        2       49       50       55       63 </v>
   <v type="int" >        2       49       50       63       69 </v>
   <v type="int" >        2       50       56       62       63 </v>
   <v type="int" >        2       50       62       63       68 </v>
   <v type="int" >        2       50       63       68       69 </v>
   <v type="int" >        2       45       51       56       62 </v>
   <v type="int" >        2       45       50       56       62 </v>
   <v type="int" >        2       45       50       62       68 </v>
   <v type="int" >        2       45       51       61       62 </v>
   <v type="int" >        2       45       61       62       67 </v>
   <v type="int" >        2       45       62       67       68 </v>
   <v type="int" >        2       21       22       52       57 </v>
   <v type="int" >        2       21       51       52       57 </v>
   <v type="int" >        2       51       52       57       61 </v>
   <v type="int" >        2       22       52       57       58 </v>
   <v type="int" >        2       52       57       58       66 </v>
   <v type="int" >        2       52       57       61       66 </v>
   <v type="int" >        2       22       23       53       58 </v>
   <v type="int" >        2       22       52       53       58 </v>
   <v type="int" >        2       52       53       58       66 </v>
   <v type="int" >        2       23       53       58       59 </v>
   <v type="int" >        2       53       58       59       65 </v>
   <v type="int" >        2       53       58       65       66 </v>
   <v type="int" >        2       23       24       54       59 </v>
   <v type="int" >        2       23       53       54       59 </v>
   <v type="int" >        2       53       54       59       65 </v>
   <v type="int" >        2       24       54       59       60 </v>
   <v type="int" >        2       54       59       60       64 </v>
   <v type="int" >        2       54       59       64       65 </v>
   <v type="int" >        2       24       25       55       60 </v>
   <v type="int" >        2       24       54       55       60 </v>
   <v type="int" >        2       54       55       60       64 </v>
   <v type="int" >        2       25       55       59       60 </v>
   <v type="int" >        2       55       59       60       63 </v>
   <v type="int" >        2       55       60       63       64 </v>
   <v type="int" >        2       25       26       56       59 </v>
   <v type="int" >        2       25       55       56       59 </v>
   <v type="int" >        2       55       56       59       63 </v>
   <v type="int" >        2       26       56       58       59 </v>
   <v type="int" >        2       56       58       59       62 </v>
   <v type="int" >        2       56       59       62       63 </v>
   <v type="int" >        2       21       26       51       58 </v>
   <v type="int" >        2       26       51       56       58 </v>
   <v type="int" >        2       51       56       58       62 </v>
   <v type="int" >        2       21       51       57       58 </v>
   <v type="int" >        2       51       57       58       61 </v>
   <v type="int" >        2       51       58       61       62 </v>
  </varray>
  <i name="volumeweight">      0.00115741 </i>
 </kpoints>
 <parameters>
  <separator name="general" >
   <i type="string" name="SYSTEM">graphite</i>
   <i type="logical" name="LCOMPAT"> F  </i>
  </separator>
  <separator name="electronic" >
   <i type="string" name="PREC">accura</i>
   <i name="ENMAX">    600.00000000</i>
   <i name="ENAUG">    644.87300000</i>
   <i name="EDIFF">      0.00000100</i>
   <i type="int" name="IALGO">    38</i>
   <i type="int" name="IWAVPR">    10</i>
   <i type="int" name="NBANDS">    42</i>
   <i name="NELECT">     64.00000000</i>
   <i type="int" name="TURBO">     0</i>
   <i type="int" name="IRESTART">     0</i>
   <i type="int" name="NREBOOT">     0</i>
   <i type="int" name="NMIN">     0</i>
   <i name="EREF">      0.00000000</i>
   <separator name="electronic smearing" >
    <i type="int" name="ISMEAR">    -5</i>
    <i name="SIGMA">      0.20000000</i>
    <i name="KSPACING">      0.50000000</i>
    <i type="logical" name="KGAMMA"> T  </i>
   </separator>
   <separator name="electronic projectors" >
    <i type="logical" name="LREAL"> F  </i>
    <v name="ROPT">      0.00000000</v>
    <i type="int" name="LMAXPAW">  -100</i>
    <i type="int" name="LMAXMIX">     2</i>
    <i type="logical" name="NLSPLINE"> F  </i>
   </separator>
   <separator name="electronic startup" >
    <i type="int" name="ISTART">     0</i>
    <i type="int" name="ICHARG">     2</i>
    <i type="int" name="INIWAV">     1</i>
   </separator>
   <separator name="electronic spin" >
    <i type="int" name="ISPIN">     1</i>
    <i type="logical" name="LNONCOLLINEAR"> F  </i>
    <v name="MAGMOM">      1.00000000      1.00000000      1.00000000      1.00000000      1.00000000      1.00000000      1.00000000      1.00000000      1.00000000      1.00000000      1.00000000      1.00000000      1.00000000      1.00000000      1.00000000      1.00000000</v>
    <i name="NUPDOWN">     -1.00000000</i>
    <i type="logical" name="LSORBIT"> F  </i>
    <v name="SAXIS">      0.00000000      0.00000000      1.00000000</v>
    <i type="logical" name="LSPIRAL"> F  </i>
    <v name="QSPIRAL">      0.00000000      0.00000000      0.00000000</v>
    <i type="logical" name="LZEROZ"> F  </i>
   </separator>
   <separator name="electronic exchange-correlation" >
    <i type="logical" name="LASPH"> F  </i>
    <i type="logical" name="LMETAGGA"> F  </i>
   </separator>
   <separator name="electronic convergence" >
    <i type="int" name="NELM">   200</i>
    <i type="int" name="NELMDL">     0</i>
    <i type="int" name="NELMIN">     2</i>
    <i name="ENINI">    600.00000000</i>
    <separator name="electronic convergence detail" >
     <i type="logical" name="LDIAG"> T  </i>
     <i type="logical" name="LSUBROT"> F  </i>
     <i name="WEIMIN">      0.00000000</i>
     <i name="EBREAK">      0.00000001</i>
     <i name="DEPER">      0.30000000</i>
     <i type="int" name="NRMM">     4</i>
     <i name="TIME">      0.40000000</i>
    </separator>
   </separator>
   <separator name="electronic mixer" >
    <i name="AMIX">      0.40000000</i>
    <i name="BMIX">      1.00000000</i>
    <i name="AMIN">      0.10000000</i>
    <i name="AMIX_MAG">      1.60000000</i>
    <i name="BMIX_MAG">      1.00000000</i>
    <separator name="electronic mixer details" >
     <i type="int" name="IMIX">     4</i>
     <i type="int" name="MAXMIX">   -45</i>
     <i name="WC">    100.00000000</i>
     <i type="int" name="INIMIX">     1</i>
     <i type="int" name="MIXPRE">     1</i>
     <i type="int" name="MREMOVE">     5</i>
    </separator>
   </separator>
   <separator name="electronic dipolcorrection" >
    <i type="logical" name="LDIPOL"> F  </i>
    <i type="logical" name="LMONO"> F  </i>
    <i type="int" name="IDIPOL">     0</i>
    <i name="EPSILON">      1.00000000</i>
    <v name="DIPOL">   -100.00000000   -100.00000000   -100.00000000</v>
    <i name="EFIELD">      0.00000000</i>
   </separator>
  </separator>
  <separator name="grids" >
   <i type="int" name="NGX">    40</i>
   <i type="int" name="NGY">    40</i>
   <i type="int" name="NGZ">   320</i>
   <i type="int" name="NGXF">    80</i>
   <i type="int" name="NGYF">    80</i>
   <i type="int" name="NGZF">   640</i>
   <i type="logical" name="ADDGRID"> F  </i>
  </separator>
  <separator name="ionic" >
   <i type="int" name="NSW">     0</i>
   <i type="int" name="IBRION">    -1</i>
   <i type="int" name="ISIF">     2</i>
   <i name="PSTRESS">      0.00000000</i>
   <i name="EDIFFG">      0.00100000</i>
   <i type="int" name="NFREE">     0</i>
   <i name="POTIM">      0.50000000</i>
   <i name="SMASS">     -3.00000000</i>
   <i name="SCALEE">      1.00000000</i>
  </separator>
  <separator name="ionic md" >
   <i name="TEBEG">      0.00010000</i>
   <i name="TEEND">      0.00010000</i>
   <i type="int" name="NBLOCK">     1</i>
   <i type="int" name="KBLOCK">     1</i>
   <i type="int" name="NPACO">   256</i>
   <i name="APACO">     16.00000000</i>
  </separator>
  <separator name="symmetry" >
   <i type="int" name="ISYM">     2</i>
   <i name="SYMPREC">      0.00001000</i>
  </separator>
  <separator name="dos" >
   <i type="logical" name="LORBIT"> F  </i>
   <v name="RWIGS">     -1.00000000</v>
   <i type="int" name="NEDOS">   301</i>
   <i name="EMIN">     10.00000000</i>
   <i name="EMAX">    -10.00000000</i>
   <i name="EFERMI">      0.00000000</i>
  </separator>
  <separator name="writing" >
   <i type="int" name="NWRITE">     2</i>
   <i type="logical" name="LWAVE"> F  </i>
   <i type="logical" name="LCHARG"> F  </i>
   <i type="logical" name="LPARD"> F  </i>
   <i type="logical" name="LVTOT"> F  </i>
   <i type="logical" name="LVHAR"> F  </i>
   <i type="logical" name="LELF"> F  </i>
   <i type="logical" name="LOPTICS"> F  </i>
   <v name="STM">      0.00000000      0.00000000      0.00000000      0.00000000      0.00000000      0.00000000      0.00000000</v>
  </separator>
  <separator name="performance" >
   <i type="int" name="NPAR">     2</i>
   <i type="int" name="NSIM">     4</i>
   <i type="int" name="NBLK">    -1</i>
   <i type="logical" name="LPLANE"> T  </i>
   <i type="logical" name="LSCALAPACK"> T  </i>
   <i type="logical" name="LSCAAWARE"> F  </i>
   <i type="logical" name="LSCALU"> F  </i>
   <i type="logical" name="LASYNC"> F  </i>
   <i type="logical" name="LORBITALREAL"> F  </i>
  </separator>
  <separator name="miscellaneous" >
   <i type="int" name="IDIOT">     3</i>
   <i type="logical" name="LMUSIC"> F  </i>
   <v name="POMASS">     12.01100000</v>
   <v name="DARWINR">      0.00000000</v>
   <v name="DARWINV">      1.00000000</v>
   <i type="logical" name="LCORR"> T  </i>
  </separator>
  <i type="logical" name="GGA_COMPAT"> T  </i>
  <i type="logical" name="LBERRY"> F  </i>
  <i type="int" name="ICORELEVEL">     0</i>
  <i type="logical" name="LDAU"> F  </i>
  <i type="int" name="I_CONSTRAINED_M">     0</i>
  <separator name="electronic exchange-correlation" >
   <i type="string" name="GGA">PE</i>
   <i type="int" name="VOSKOWN">     0</i>
   <i type="logical" name="LHFCALC"> F  </i>
   <i type="string" name="PRECFOCK"></i>
   <i type="logical" name="LSYMGRAD"> F  </i>
   <i type="logical" name="LHFONE"> F  </i>
   <i type="logical" name="LRHFCALC"> F  </i>
   <i type="logical" name="LTHOMAS"> F  </i>
   <i type="logical" name="LMODELHF"> F  </i>
   <i name="ENCUT4O">     -1.00000000</i>
   <i type="int" name="EXXOEP">     0</i>
   <i type="int" name="FOURORBIT">     0</i>
   <i name="AEXX">      0.00000000</i>
   <i name="HFALPHA">      0.00000000</i>
   <i name="MCALPHA">      0.00000000</i>
   <i name="ALDAX">      1.00000000</i>
   <i name="AGGAX">      1.00000000</i>
   <i name="ALDAC">      1.00000000</i>
   <i name="AGGAC">      1.00000000</i>
   <i type="int" name="NKREDX">     1</i>
   <i type="int" name="NKREDY">     1</i>
   <i type="int" name="NKREDZ">     1</i>
   <i type="logical" name="SHIFTRED"> F  </i>
   <i type="logical" name="ODDONLY"> F  </i>
   <i type="logical" name="EVENONLY"> F  </i>
   <i type="int" name="LMAXFOCK">     0</i>
   <i type="int" name="NMAXFOCKAE">     0</i>
   <i type="logical" name="LFOCKAEDFT"> F  </i>
   <i name="HFSCREEN">      0.00000000</i>
   <i name="HFSCREENC">      0.00000000</i>
   <i type="int" name="NBANDSGWLOW">     0</i>
  </separator>
  <separator name="vdW DFT" >
   <i type="logical" name="LUSE_VDW"> F  </i>
   <i name="Zab_VDW">     -0.84910000</i>
   <i name="PARAM1">      0.12340000</i>
   <i name="PARAM2">      1.00000000</i>
   <i name="PARAM3">      0.00000000</i>
  </separator>
  <separator name="model GW" >
   <i type="int" name="MODEL_GW">     0</i>
   <i name="MODEL_EPS0">     31.59561114</i>
   <i name="MODEL_ALPHA">      1.00000000</i>
  </separator>
  <separator name="linear response parameters" >
   <i type="logical" name="LEPSILON"> F  </i>
   <i type="logical" name="LRPA"> F  </i>
   <i type="logical" name="LNABLA"> F  </i>
   <i type="logical" name="LVEL"> F  </i>
   <i type="int" name="KINTER">     0</i>
   <i name="CSHIFT">      0.10000000</i>
   <i name="OMEGAMAX">     -1.00000000</i>
   <i name="DEG_THRESHOLD">      0.00200000</i>
  </separator>
  <separator name="orbital magnetization" >
   <i type="logical" name="NUCIND"> F  </i>
   <v name="MAGPOS">      0.00000000      0.00000000      0.00000000</v>
   <i type="logical" name="LNICSALL"> T  </i>
   <i type="logical" name="ORBITALMAG"> F  </i>
   <i type="logical" name="LMAGBLOCH"> F  </i>
   <i type="logical" name="LCHIMAG"> F  </i>
   <i type="logical" name="LGAUGE"> T  </i>
   <i type="int" name="MAGATOM">     0</i>
   <v name="MAGDIPOL">      0.00000000      0.00000000      0.00000000</v>
   <v name="AVECCONST">      0.00000000      0.00000000      0.00000000</v>
  </separator>
  <separator name="response functions" >
   <i type="logical" name="LADDER"> F  </i>
   <i type="logical" name="LFXC"> F  </i>
   <i type="logical" name="LHARTREE"> T  </i>
   <i type="int" name="IBSE">     0</i>
   <i type="logical" name="LTCTE"> F  </i>
   <i type="logical" name="LTETE"> F  </i>
   <i type="logical" name="LTRIPLET"> F  </i>
   <i type="logical" name="LFXCEPS"> F  </i>
   <i type="logical" name="LFXHEG"> F  </i>
   <i type="logical" name="L2ORDER"> F  </i>
   <i type="logical" name="LUSEW"> F  </i>
   <i name="ENCUTGW">     -2.00000000</i>
   <i name="ENCUTGWSOFT">     -2.00000000</i>
   <i name="ENCUTLF">     -1.00000000</i>
   <i type="int" name="LMAXMP2">    -1</i>
   <i name="SCISSOR">      0.00000000</i>
   <i type="int" name="NOMEGA">     0</i>
   <i type="int" name="NOMEGAR">     0</i>
   <i type="int" name="NBANDSGW">    -1</i>
   <i type="int" name="NBANDSO">    -1</i>
   <i type="int" name="NBANDSV">    -1</i>
   <i type="int" name="NELM">   200</i>
   <i type="int" name="DIM">     3</i>
   <i type="int" name="ANTIRES">     0</i>
   <i name="OMEGAMAX">    -30.00000000</i>
   <i name="OMEGAMIN">    -30.00000000</i>
   <i name="OMEGATL">   -200.00000000</i>
   <i type="int" name="OMEGAGRID">     0</i>
   <i name="CSHIFT">     -0.10000000</i>
   <i type="logical" name="SELFENERGY"> F  </i>
   <i type="logical" name="LSPECTRAL"> F  </i>
   <i type="logical" name="ODDONLYGW"> F  </i>
   <i type="logical" name="EVENONLYGW"> F  </i>
   <i type="int" name="NKREDLFX">     1</i>
   <i type="int" name="NKREDLFY">     1</i>
   <i type="int" name="NKREDLFZ">     1</i>
   <i type="int" name="MAXMEM">  1800</i>
   <i type="int" name="TELESCOPE">     0</i>
   <i type="int" name="TAUPAR">     1</i>
  </separator>
  <separator name="External order field" >
   <i name="OFIELD_KAPPA">      0.00000000</i>
   <v name="OFIELD_K">      0.00000000      0.00000000      0.00000000</v>
   <i name="OFIELD_Q6_NEAR">      0.00000000</i>
   <i name="OFIELD_Q6_FAR">      0.00000000</i>
   <i name="OFIELD_A">      0.00000000</i>
  </separator>
 </parameters>
 <atominfo>
  <atoms>      16 </atoms>
  <types>       1 </types>
  <array name="atoms" >
   <dimension dim="1">ion</dimension>
   <field type="string">element</field>
   <field type="int">atomtype</field>
   <set>
    <rc><c>C </c><c>   1</c></rc>
    <rc><c>C </c><c>   1</c></rc>
    <rc><c>C </c><c>   1</c></rc>
    <rc><c>C </c><c>   1</c></rc>
    <rc><c>C </c><c>   1</c></rc>
    <rc><c>C </c><c>   1</c></rc>
    <rc><c>C </c><c>   1</c></rc>
    <rc><c>C </c><c>   1</c></rc>
    <rc><c>C </c><c>   1</c></rc>
    <rc><c>C </c><c>   1</c></rc>
    <rc><c>C </c><c>   1</c></rc>
    <rc><c>C </c><c>   1</c></rc>
    <rc><c>C </c><c>   1</c></rc>
    <rc><c>C </c><c>   1</c></rc>
    <rc><c>C </c><c>   1</c></rc>
    <rc><c>C </c><c>   1</c></rc>
   </set>
  </array>
  <array name="atomtypes" >
   <dimension dim="1">type</dimension>
   <field type="int">atomspertype</field>
   <field type="string">element</field>
   <field>mass</field>
   <field>valence</field>
   <field type="string">pseudopotential</field>
   <set>
    <rc><c>  16</c><c>C </c><c>     12.01100000</c><c>      4.00000000</c><c> PAW_PBE C 08Apr2002                    </c></rc>
   </set>
  </array>
 </atominfo>
 <structure name="initialpos" >
  <crystal>
   <varray name="basis" >
    <v>       4.93287468       0.00000000       0.00000000 </v>
    <v>      -2.46976095       4.27007417       0.00000000 </v>
    <v>       0.00000000       0.00000000      40.00000000 </v>
   </varray>
   <i name="volume">    842.54963040 </i>
   <varray name="rec_basis" >
    <v>       0.20272155       0.11725177       0.00000000 </v>
    <v>       0.00000000       0.23418797       0.00000000 </v>
    <v>       0.00000000       0.00000000       0.02500000 </v>
   </varray>
  </crystal>
  <varray name="positions" >
   <v>       0.49992143       0.00032672       0.04169656 </v>
   <v>       0.99967331       0.00032672       0.04144844 </v>
   <v>       0.49967331       0.50032672       0.04144844 </v>
   <v>       0.99967331       0.50032672       0.04144844 </v>
   <v>       0.49967331       0.00032672       0.54144844 </v>
   <v>       0.99967331       0.00032672       0.54144844 </v>
   <v>       0.49967331       0.50032672       0.54144844 </v>
   <v>       0.99967331       0.50032672       0.54144844 </v>
   <v>       0.16629246       0.33370754       0.04144844 </v>
   <v>       0.66629246       0.33370754       0.04144844 </v>
   <v>       0.16629246       0.83370754       0.04144844 </v>
   <v>       0.66629246       0.83370754       0.04144844 </v>
   <v>       0.16629246       0.33370754       0.54144844 </v>
   <v>       0.66629246       0.33370754       0.54144844 </v>
   <v>       0.16629246       0.83370754       0.54144844 </v>
   <v>       0.66629246       0.83370754       0.54144844 </v>
  </varray>
 </structure>
 <calculation>
  <scstep>
   <time name="dav">  298.37  596.93</time>
   <time name="total">  300.22  600.62</time>
   <energy>
    <i name="alphaZ">     24.75690598 </i>
    <i name="ewald">  10359.33382077 </i>
    <i name="hartreedc"> -12060.23053924 </i>
    <i name="XCdc">    220.44223766 </i>
    <i name="pawpsdc">    605.30308954 </i>
    <i name="pawaedc">   -623.71076428 </i>
    <i name="eentropy">      0.00000000 </i>
    <i name="bandstr">   -245.50147182 </i>
    <i name="atom">   2354.40460413 </i>
    <i name="e_fr_energy">    634.79788274 </i>
    <i name="e_wo_entrp">    634.79788274 </i>
    <i name="e_0_energy">    634.79788274 </i>
   </energy>
  </scstep>
  <scstep>
   <time name="dav">  387.01  774.40</time>
   <time name="total">  387.05  774.50</time>
   <energy>
    <i name="e_fr_energy">    -30.50065309 </i>
    <i name="e_wo_entrp">    -30.50065309 </i>
    <i name="e_0_energy">    -30.50065309 </i>
   </energy>
  </scstep>
  <scstep>
   <time name="dav">  315.05  630.34</time>
   <time name="total">  315.08  630.41</time>
   <energy>
    <i name="e_fr_energy">   -153.06785508 </i>
    <i name="e_wo_entrp">   -153.06785508 </i>
    <i name="e_0_energy">   -153.06785508 </i>
   </energy>
  </scstep>
  <scstep>
   <time name="dav">  333.45  667.20</time>
   <time name="total">  333.47  667.26</time>
   <energy>
    <i name="e_fr_energy">   -157.63861748 </i>
    <i name="e_wo_entrp">   -157.63861748 </i>
    <i name="e_0_energy">   -157.63861748 </i>
   </energy>
  </scstep>
  <scstep>
   <time name="dav">  357.15  714.64</time>
   <time name="total">  372.14  744.64</time>
   <energy>
    <i name="e_fr_energy">   -157.76114933 </i>
    <i name="e_wo_entrp">   -157.76114933 </i>
    <i name="e_0_energy">   -157.76114933 </i>
   </energy>
  </scstep>
  <scstep>
   <time name="dav">  318.17  636.66</time>
   <time name="total">  334.83  670.01</time>
   <energy>
    <i name="e_fr_energy">   -150.41049179 </i>
    <i name="e_wo_entrp">   -150.41049179 </i>
    <i name="e_0_energy">   -150.41049179 </i>
   </energy>
  </scstep>
  <scstep>
   <time name="dav">  307.21  614.72</time>
   <time name="total">  323.70  647.69</time>
   <energy>
    <i name="e_fr_energy">   -147.59426230 </i>
    <i name="e_wo_entrp">   -147.59426230 </i>
    <i name="e_0_energy">   -147.59426230 </i>
   </energy>
  </scstep>
  <scstep>
   <time name="dav">  344.27  688.88</time>
   <time name="total">  360.72  721.81</time>
   <energy>
    <i name="e_fr_energy">   -147.55125632 </i>
    <i name="e_wo_entrp">   -147.55125632 </i>
    <i name="e_0_energy">   -147.55125632 </i>
   </energy>
  </scstep>
  <scstep>
   <time name="dav">  328.17  656.66</time>
   <time name="total">  344.78  689.90</time>
   <energy>
    <i name="e_fr_energy">   -147.52213476 </i>
    <i name="e_wo_entrp">   -147.52213476 </i>
    <i name="e_0_energy">   -147.52213476 </i>
   </energy>
  </scstep>
  <scstep>
   <time name="dav">  359.40  719.15</time>
   <time name="total">  376.01  752.38</time>
   <energy>
    <i name="e_fr_energy">   -147.51773409 </i>
    <i name="e_wo_entrp">   -147.51773409 </i>
    <i name="e_0_energy">   -147.51773409 </i>
   </energy>
  </scstep>
  <scstep>
   <time name="dav">  300.21  600.72</time>
   <time name="total">  316.73  633.78</time>
   <energy>
    <i name="e_fr_energy">   -147.50956132 </i>
    <i name="e_wo_entrp">   -147.50956132 </i>
    <i name="e_0_energy">   -147.50956132 </i>
   </energy>
  </scstep>
  <scstep>
   <time name="dav">  303.46  607.23</time>
   <time name="total">  320.22  640.74</time>
   <energy>
    <i name="e_fr_energy">   -147.50284972 </i>
    <i name="e_wo_entrp">   -147.50284972 </i>
    <i name="e_0_energy">   -147.50284972 </i>
   </energy>
  </scstep>
  <scstep>
   <time name="dav">  298.88  598.06</time>
   <time name="total">  315.55  631.43</time>
   <energy>
    <i name="e_fr_energy">   -147.50405043 </i>
    <i name="e_wo_entrp">   -147.50405043 </i>
    <i name="e_0_energy">   -147.50405043 </i>
   </energy>
  </scstep>
  <scstep>
   <time name="dav">  297.30  594.91</time>
   <time name="total">  314.06  628.45</time>
   <energy>
    <i name="e_fr_energy">   -147.50496284 </i>
    <i name="e_wo_entrp">   -147.50496284 </i>
    <i name="e_0_energy">   -147.50496284 </i>
   </energy>
  </scstep>
  <scstep>
   <time name="dav">  311.45  623.19</time>
   <time name="total">  328.18  656.69</time>
   <energy>
    <i name="e_fr_energy">   -147.50845769 </i>
    <i name="e_wo_entrp">   -147.50845769 </i>
    <i name="e_0_energy">   -147.50845769 </i>
   </energy>
  </scstep>
  <scstep>
   <time name="dav">  301.10  602.50</time>
   <time name="total">  317.58  635.46</time>
   <energy>
    <i name="e_fr_energy">   -147.51055112 </i>
    <i name="e_wo_entrp">   -147.51055112 </i>
    <i name="e_0_energy">   -147.51055112 </i>
   </energy>
  </scstep>
  <scstep>
   <time name="dav">  312.50  625.30</time>
   <time name="total">  328.94  658.21</time>
   <energy>
    <i name="e_fr_energy">   -147.51353810 </i>
    <i name="e_wo_entrp">   -147.51353810 </i>
    <i name="e_0_energy">   -147.51353810 </i>
   </energy>
  </scstep>
  <scstep>
   <time name="dav">  300.98  602.25</time>
   <time name="total">  317.40  635.05</time>
   <energy>
    <i name="e_fr_energy">   -147.51451697 </i>
    <i name="e_wo_entrp">   -147.51451697 </i>
    <i name="e_0_energy">   -147.51451697 </i>
   </energy>
  </scstep>
  <scstep>
   <time name="dav">  299.07  598.41</time>
   <time name="total">  315.96  632.22</time>
   <energy>
    <i name="e_fr_energy">   -147.51494474 </i>
    <i name="e_wo_entrp">   -147.51494474 </i>
    <i name="e_0_energy">   -147.51494474 </i>
   </energy>
  </scstep>
  <scstep>
   <time name="dav">  315.35  631.01</time>
   <time name="total">  331.94  664.21</time>
   <energy>
    <i name="e_fr_energy">   -147.51503190 </i>
    <i name="e_wo_entrp">   -147.51503190 </i>
    <i name="e_0_energy">   -147.51503190 </i>
   </energy>
  </scstep>
  <scstep>
   <time name="dav">  299.46  599.22</time>
   <time name="total">  316.37  633.06</time>
   <energy>
    <i name="e_fr_energy">   -147.51524254 </i>
    <i name="e_wo_entrp">   -147.51524254 </i>
    <i name="e_0_energy">   -147.51524254 </i>
   </energy>
  </scstep>
  <scstep>
   <time name="dav">  305.22  610.78</time>
   <time name="total">  321.70  643.76</time>
   <energy>
    <i name="e_fr_energy">   -147.51529298 </i>
    <i name="e_wo_entrp">   -147.51529298 </i>
    <i name="e_0_energy">   -147.51529298 </i>
   </energy>
  </scstep>
  <scstep>
   <time name="dav">  300.31  600.91</time>
   <time name="total">  317.30  634.92</time>
   <energy>
    <i name="e_fr_energy">   -147.51532263 </i>
    <i name="e_wo_entrp">   -147.51532263 </i>
    <i name="e_0_energy">   -147.51532263 </i>
   </energy>
  </scstep>
  <scstep>
   <time name="dav">  270.33  540.91</time>
   <time name="total">  287.13  574.53</time>
   <energy>
    <i name="e_fr_energy">   -147.51538555 </i>
    <i name="e_wo_entrp">   -147.51538555 </i>
    <i name="e_0_energy">   -147.51538555 </i>
   </energy>
  </scstep>
  <scstep>
   <time name="dav">  308.73  617.71</time>
   <time name="total">  325.36  650.98</time>
   <energy>
    <i name="e_fr_energy">   -147.51541631 </i>
    <i name="e_wo_entrp">   -147.51541631 </i>
    <i name="e_0_energy">   -147.51541631 </i>
   </energy>
  </scstep>
  <scstep>
   <time name="dav">  296.45  593.23</time>
   <time name="total">  313.29  626.93</time>
   <energy>
    <i name="e_fr_energy">   -147.51543673 </i>
    <i name="e_wo_entrp">   -147.51543673 </i>
    <i name="e_0_energy">   -147.51543673 </i>
   </energy>
  </scstep>
  <scstep>
   <time name="dav">  231.27  462.76</time>
   <time name="total">  247.91  496.06</time>
   <energy>
    <i name="e_fr_energy">   -147.51544664 </i>
    <i name="e_wo_entrp">   -147.51544664 </i>
    <i name="e_0_energy">   -147.51544664 </i>
   </energy>
  </scstep>
  <scstep>
   <time name="dav">  226.26  452.73</time>
   <time name="total">  243.19  486.58</time>
   <energy>
    <i name="e_fr_energy">   -147.51543991 </i>
    <i name="e_wo_entrp">   -147.51543991 </i>
    <i name="e_0_energy">   -147.51543991 </i>
   </energy>
  </scstep>
  <scstep>
   <time name="dav">  253.09  506.42</time>
   <time name="total">  269.83  539.91</time>
   <energy>
    <i name="e_fr_energy">   -147.51543432 </i>
    <i name="e_wo_entrp">   -147.51543432 </i>
    <i name="e_0_energy">   -147.51543432 </i>
   </energy>
  </scstep>
  <scstep>
   <time name="dav">  256.92  514.09</time>
   <time name="total">  273.85  547.97</time>
   <energy>
    <i name="e_fr_energy">   -147.51544172 </i>
    <i name="e_wo_entrp">   -147.51544172 </i>
    <i name="e_0_energy">   -147.51544172 </i>
   </energy>
  </scstep>
  <scstep>
   <time name="dav">  235.78  471.71</time>
   <time name="total">  252.49  505.14</time>
   <energy>
    <i name="e_fr_energy">   -147.51545103 </i>
    <i name="e_wo_entrp">   -147.51545103 </i>
    <i name="e_0_energy">   -147.51545103 </i>
   </energy>
  </scstep>
  <scstep>
   <time name="dav">  224.26  448.78</time>
   <time name="total">  225.95  452.17</time>
   <energy>
    <i name="alphaZ">     24.75690598 </i>
    <i name="ewald">  10359.33382077 </i>
    <i name="hartreedc"> -12335.03537410 </i>
    <i name="XCdc">    230.15288896 </i>
    <i name="pawpsdc">   1110.72204966 </i>
    <i name="pawaedc">  -1131.38184723 </i>
    <i name="eentropy">      0.00000000 </i>
    <i name="bandstr">   -760.46849943 </i>
    <i name="atom">   2354.40460413 </i>
    <i name="e_fr_energy">   -147.51545125 </i>
    <i name="e_wo_entrp">   -147.51545125 </i>
    <i name="e_0_energy">   -147.51545125 </i>
   </energy>
  </scstep>
  <structure>
   <crystal>
    <varray name="basis" >
     <v>       4.93287468       0.00000000       0.00000000 </v>
     <v>      -2.46976095       4.27007417       0.00000000 </v>
     <v>       0.00000000       0.00000000      40.00000000 </v>
    </varray>
    <i name="volume">    842.54963040 </i>
    <varray name="rec_basis" >
     <v>       0.20272155       0.11725177       0.00000000 </v>
     <v>       0.00000000       0.23418797       0.00000000 </v>
     <v>       0.00000000       0.00000000       0.02500000 </v>
    </varray>
   </crystal>
   <varray name="positions" >
    <v>       0.49992143       0.00032672       0.04169656 </v>
    <v>       0.99967331       0.00032672       0.04144844 </v>
    <v>       0.49967331       0.50032672       0.04144844 </v>
    <v>       0.99967331       0.50032672       0.04144844 </v>
    <v>       0.49967331       0.00032672       0.54144844 </v>
    <v>       0.99967331       0.00032672       0.54144844 </v>
    <v>       0.49967331       0.50032672       0.54144844 </v>
    <v>       0.99967331       0.50032672       0.54144844 </v>
    <v>       0.16629246       0.33370754       0.04144844 </v>
    <v>       0.66629246       0.33370754       0.04144844 </v>
    <v>       0.16629246       0.83370754       0.04144844 </v>
    <v>       0.66629246       0.83370754       0.04144844 </v>
    <v>       0.16629246       0.33370754       0.54144844 </v>
    <v>       0.66629246       0.33370754       0.54144844 </v>
    <v>       0.16629246       0.83370754       0.54144844 </v>
    <v>       0.66629246       0.83370754       0.54144844 </v>
   </varray>
  </structure>
  <varray name="forces" >
   <v>      -0.15905420       0.17767594      -0.14181965 </v>
   <v>      -0.07008708       0.17739356      -0.00828887 </v>
   <v>      -0.08244327       0.17005684      -0.00804009 </v>
   <v>      -0.08247989       0.18497563      -0.00805190 </v>
   <v>      -0.17083871       0.09857564      -0.00000235 </v>
   <v>      -0.17083880       0.09857571      -0.00000225 </v>
   <v>      -0.17083885       0.09857585      -0.00000229 </v>
   <v>      -0.17083875       0.09857579      -0.00000146 </v>
   <v>       0.08297639      -0.17745081       0.01251629 </v>
   <v>       0.09264262      -0.17824798       0.05199852 </v>
   <v>       0.10972310      -0.16787814       0.05133124 </v>
   <v>       0.10875882      -0.18659140       0.05046408 </v>
   <v>       0.17082970      -0.09855915      -0.00002523 </v>
   <v>       0.17082966      -0.09855924      -0.00002529 </v>
   <v>       0.17082972      -0.09855909      -0.00002534 </v>
   <v>       0.17082956      -0.09855914      -0.00002541 </v>
  </varray>
  <varray name="stress" >
   <v>       2.20812091      -1.20586623      -0.00302356 </v>
   <v>      -1.20586622      -1.09452125       0.00337481 </v>
   <v>      -0.00302356       0.00337481      -0.59311656 </v>
  </varray>
  <energy>
   <i name="e_fr_energy">   -148.93324701 </i>
   <i name="e_wo_entrp">   -148.93324701 </i>
   <i name="e_0_energy">      0.00000000 </i>
  </energy>
  <time name="totalsc">10202.1920414.19</time>
  <eigenvalues>
   <array>
    <dimension dim="1">band</dimension>
    <dimension dim="2">kpoint</dimension>
    <dimension dim="3">spin</dimension>
    <field>eigene</field>
    <field>occ</field>
    <set>
     <set comment="spin 1">
      <set comment="kpoint 1">
       <r>  -22.2611    1.0000 </r>
       <r>  -22.2611    1.0000 </r>
       <r>  -17.0232    1.0000 </r>
       <r>  -17.0217    1.0000 </r>
       <r>  -17.0193    1.0000 </r>
       <r>  -17.0179    1.0000 </r>
       <r>  -17.0179    1.0000 </r>
       <r>  -17.0147    1.0000 </r>
       <r>  -15.9852    1.0000 </r>
       <r>  -15.9848    1.0000 </r>
       <r>  -15.9735    1.0000 </r>
       <r>  -15.9709    1.0000 </r>
       <r>  -15.9709    1.0000 </r>
       <r>  -15.9676    1.0000 </r>
       <r>  -10.3625    1.0000 </r>
       <r>  -10.3624    1.0000 </r>
       <r>   -9.1631    1.0000 </r>
       <r>   -9.1610    1.0000 </r>
       <r>   -9.1610    1.0000 </r>
       <r>   -9.1601    1.0000 </r>
       <r>   -9.1389    1.0000 </r>
       <r>   -9.1375    1.0000 </r>
       <r>   -5.7909    1.0000 </r>
       <r>   -5.7877    1.0000 </r>
       <r>   -5.7635    1.0000 </r>
       <r>   -5.7607    1.0000 </r>
       <r>   -5.1098    1.0000 </r>
       <r>   -5.1085    1.0000 </r>
       <r>   -5.1062    1.0000 </r>
       <r>   -5.1044    1.0000 </r>
       <r>   -5.1044    1.0000 </r>
       <r>   -5.1032    1.0000 </r>
       <r>   -1.0763    0.0000 </r>
       <r>   -1.0734    0.0000 </r>
       <r>   -1.0646    0.0000 </r>
       <r>   -1.0645    0.0000 </r>
       <r>   -1.0645    0.0000 </r>
       <r>   -1.0621    0.0000 </r>
       <r>    0.5215    0.0000 </r>
       <r>    0.5240    0.0000 </r>
       <r>    1.2576    0.0000 </r>
       <r>    1.3174    0.0000 </r>
      </set>
      <set comment="kpoint 2">
       <r>  -22.0969    1.0000 </r>
       <r>  -22.0969    1.0000 </r>
       <r>  -18.2783    1.0000 </r>
       <r>  -18.2778    1.0000 </r>
       <r>  -17.4179    1.0000 </r>
       <r>  -17.4171    1.0000 </r>
       <r>  -17.4134    1.0000 </r>
       <r>  -17.4132    1.0000 </r>
       <r>  -15.3214    1.0000 </r>
       <r>  -15.3211    1.0000 </r>
       <r>  -15.3076    1.0000 </r>
       <r>  -15.3056    1.0000 </r>
       <r>  -14.4685    1.0000 </r>
       <r>  -14.4678    1.0000 </r>
       <r>  -10.1666    1.0000 </r>
       <r>  -10.1666    1.0000 </r>
       <r>   -9.6471    1.0000 </r>
       <r>   -9.6462    1.0000 </r>
       <r>   -9.6249    1.0000 </r>
       <r>   -9.6236    1.0000 </r>
       <r>   -8.9991    1.0000 </r>
       <r>   -8.9988    1.0000 </r>
       <r>   -6.4214    1.0000 </r>
       <r>   -6.4207    1.0000 </r>
       <r>   -6.1212    1.0000 </r>
       <r>   -6.1199    1.0000 </r>
       <r>   -5.9476    1.0000 </r>
       <r>   -5.9475    1.0000 </r>
       <r>   -5.2160    1.0000 </r>
       <r>   -5.2150    1.0000 </r>
       <r>   -5.2114    1.0000 </r>
       <r>   -5.2111    1.0000 </r>
       <r>   -0.8002    0.0000 </r>
       <r>   -0.7975    0.0000 </r>
       <r>   -0.7891    0.0000 </r>
       <r>   -0.7884    0.0000 </r>
       <r>    0.0313    0.0000 </r>
       <r>    0.0322    0.0000 </r>
       <r>    0.7444    0.0000 </r>
       <r>    0.7469    0.0000 </r>
       <r>    1.4842    0.0000 </r>
       <r>    1.5431    0.0000 </r>
      </set>
      <set comment="kpoint 3">
       <r>  -21.6062    1.0000 </r>
       <r>  -21.6061    1.0000 </r>
       <r>  -19.6748    1.0000 </r>
       <r>  -19.6746    1.0000 </r>
       <r>  -17.8331    1.0000 </r>
       <r>  -17.8323    1.0000 </r>
       <r>  -17.8300    1.0000 </r>
       <r>  -17.8298    1.0000 </r>
       <r>  -14.1524    1.0000 </r>
       <r>  -14.1524    1.0000 </r>
       <r>  -14.1385    1.0000 </r>
       <r>  -14.1367    1.0000 </r>
       <r>  -12.3666    1.0000 </r>
       <r>  -12.3664    1.0000 </r>
       <r>  -10.7928    1.0000 </r>
       <r>  -10.7917    1.0000 </r>
       <r>  -10.7734    1.0000 </r>
       <r>  -10.7726    1.0000 </r>
       <r>   -9.5843    1.0000 </r>
       <r>   -9.5843    1.0000 </r>
       <r>   -8.5265    1.0000 </r>
       <r>   -8.5261    1.0000 </r>
       <r>   -8.0609    1.0000 </r>
       <r>   -8.0605    1.0000 </r>
       <r>   -7.3681    1.0000 </r>
       <r>   -7.3681    1.0000 </r>
       <r>   -6.9139    1.0000 </r>
       <r>   -6.9130    1.0000 </r>
       <r>   -5.4025    1.0000 </r>
       <r>   -5.4024    1.0000 </r>
       <r>   -5.4000    1.0000 </r>
       <r>   -5.3991    1.0000 </r>
       <r>   -0.2344    0.0000 </r>
       <r>   -0.2321    0.0000 </r>
       <r>   -0.2261    0.0000 </r>
       <r>   -0.2260    0.0000 </r>
       <r>    1.4127    0.0000 </r>
       <r>    1.4149    0.0000 </r>
       <r>    2.1626    0.0000 </r>
       <r>    2.1630    0.0000 </r>
       <r>    2.1636    0.0000 </r>
       <r>    2.2188    0.0000 </r>
      </set>
      <set comment="kpoint 4">
       <r>  -20.7966    1.0000 </r>
       <r>  -20.7947    1.0000 </r>
       <r>  -20.7947    1.0000 </r>
       <r>  -20.7926    1.0000 </r>
       <r>  -17.9803    1.0000 </r>
       <r>  -17.9787    1.0000 </r>
       <r>  -17.9787    1.0000 </r>
       <r>  -17.9778    1.0000 </r>
       <r>  -13.2714    1.0000 </r>
       <r>  -13.2714    1.0000 </r>
       <r>  -13.2714    1.0000 </r>
       <r>  -13.2685    1.0000 </r>
       <r>  -11.6913    1.0000 </r>
       <r>  -11.6894    1.0000 </r>
       <r>  -11.6894    1.0000 </r>
       <r>  -11.6892    1.0000 </r>
       <r>  -10.1634    1.0000 </r>
       <r>  -10.1613    1.0000 </r>
       <r>  -10.1613    1.0000 </r>
       <r>  -10.1589    1.0000 </r>
       <r>   -8.6363    1.0000 </r>
       <r>   -8.6347    1.0000 </r>
       <r>   -8.6347    1.0000 </r>
       <r>   -8.6330    1.0000 </r>
       <r>   -7.7969    1.0000 </r>
       <r>   -7.7929    1.0000 </r>
       <r>   -7.7929    1.0000 </r>
       <r>   -7.7901    1.0000 </r>
       <r>   -5.4862    1.0000 </r>
       <r>   -5.4852    1.0000 </r>
       <r>   -5.4852    1.0000 </r>
       <r>   -5.4832    1.0000 </r>
       <r>    0.0648    0.0000 </r>
       <r>    0.0679    0.0000 </r>
       <r>    0.0679    0.0000 </r>
       <r>    0.0688    0.0000 </r>
       <r>    2.5244    0.0000 </r>
       <r>    2.5245    0.0000 </r>
       <r>    2.5264    0.0000 </r>
       <r>    2.5266    0.0000 </r>
       <r>    3.2809    0.0000 </r>
       <r>    3.2810    0.0000 </r>
      </set>
      <set comment="kpoint 5">
       <r>  -22.0969    1.0000 </r>
       <r>  -22.0969    1.0000 </r>
       <r>  -18.2786    1.0000 </r>
       <r>  -18.2783    1.0000 </r>
       <r>  -17.4178    1.0000 </r>
       <r>  -17.4171    1.0000 </r>
       <r>  -17.4131    1.0000 </r>
       <r>  -17.4115    1.0000 </r>
       <r>  -15.3219    1.0000 </r>
       <r>  -15.3211    1.0000 </r>
       <r>  -15.3085    1.0000 </r>
       <r>  -15.3076    1.0000 </r>
       <r>  -14.4678    1.0000 </r>
       <r>  -14.4665    1.0000 </r>
       <r>  -10.1666    1.0000 </r>
       <r>  -10.1666    1.0000 </r>
       <r>   -9.6463    1.0000 </r>
       <r>   -9.6462    1.0000 </r>
       <r>   -9.6249    1.0000 </r>
       <r>   -9.6235    1.0000 </r>
       <r>   -8.9996    1.0000 </r>
       <r>   -8.9988    1.0000 </r>
       <r>   -6.4214    1.0000 </r>
       <r>   -6.4204    1.0000 </r>
       <r>   -6.1214    1.0000 </r>
       <r>   -6.1199    1.0000 </r>
       <r>   -5.9475    1.0000 </r>
       <r>   -5.9474    1.0000 </r>
       <r>   -5.2160    1.0000 </r>
       <r>   -5.2151    1.0000 </r>
       <r>   -5.2114    1.0000 </r>
       <r>   -5.2114    1.0000 </r>
       <r>   -0.8002    0.0000 </r>
       <r>   -0.7975    0.0000 </r>
       <r>   -0.7891    0.0000 </r>
       <r>   -0.7877    0.0000 </r>
       <r>    0.0313    0.0000 </r>
       <r>    0.0315    0.0000 </r>
       <r>    0.7444    0.0000 </r>
       <r>    0.7469    0.0000 </r>
       <r>    1.4842    0.0000 </r>
       <r>    1.5431    0.0000 </r>
      </set>
      <set comment="kpoint 6">
       <r>  -21.7692    1.0000 </r>
       <r>  -21.7692    1.0000 </r>
       <r>  -18.8943    1.0000 </r>
       <r>  -18.8922    1.0000 </r>
       <r>  -18.8922    1.0000 </r>
       <r>  -18.8900    1.0000 </r>
       <r>  -16.5993    1.0000 </r>
       <r>  -16.5992    1.0000 </r>
       <r>  -15.5865    1.0000 </r>
       <r>  -15.5862    1.0000 </r>
       <r>  -13.3681    1.0000 </r>
       <r>  -13.3660    1.0000 </r>
       <r>  -13.3660    1.0000 </r>
       <r>  -13.3631    1.0000 </r>
       <r>  -10.9579    1.0000 </r>
       <r>  -10.9569    1.0000 </r>
       <r>   -9.7772    1.0000 </r>
       <r>   -9.7772    1.0000 </r>
       <r>   -9.3205    1.0000 </r>
       <r>   -9.3182    1.0000 </r>
       <r>   -9.3182    1.0000 </r>
       <r>   -9.3169    1.0000 </r>
       <r>   -7.4528    1.0000 </r>
       <r>   -7.4507    1.0000 </r>
       <r>   -6.8040    1.0000 </r>
       <r>   -6.8012    1.0000 </r>
       <r>   -6.5203    1.0000 </r>
       <r>   -6.5189    1.0000 </r>
       <r>   -6.5189    1.0000 </r>
       <r>   -6.5172    1.0000 </r>
       <r>   -4.5120    1.0000 </r>
       <r>   -4.5105    1.0000 </r>
       <r>   -1.3008    0.0000 </r>
       <r>   -1.2983    0.0000 </r>
       <r>    0.9749    0.0000 </r>
       <r>    0.9766    0.0000 </r>
       <r>    0.9766    0.0000 </r>
       <r>    0.9773    0.0000 </r>
       <r>    1.1908    0.0000 </r>
       <r>    1.1934    0.0000 </r>
       <r>    1.9371    0.0000 </r>
       <r>    1.9942    0.0000 </r>
      </set>
      <set comment="kpoint 7">
       <r>  -21.1179    1.0000 </r>
       <r>  -21.1178    1.0000 </r>
       <r>  -20.1534    1.0000 </r>
       <r>  -20.1532    1.0000 </r>
       <r>  -19.2063    1.0000 </r>
       <r>  -19.2062    1.0000 </r>
       <r>  -16.5579    1.0000 </r>
       <r>  -16.5574    1.0000 </r>
       <r>  -14.6975    1.0000 </r>
       <r>  -14.6969    1.0000 </r>
       <r>  -12.3915    1.0000 </r>
       <r>  -12.3913    1.0000 </r>
       <r>  -12.2288    1.0000 </r>
       <r>  -12.2273    1.0000 </r>
       <r>  -11.2427    1.0000 </r>
       <r>  -11.2422    1.0000 </r>
       <r>  -10.2148    1.0000 </r>
       <r>  -10.2137    1.0000 </r>
       <r>   -9.1673    1.0000 </r>
       <r>   -9.1662    1.0000 </r>
       <r>   -9.0098    1.0000 </r>
       <r>   -9.0098    1.0000 </r>
       <r>   -8.6832    1.0000 </r>
       <r>   -8.6831    1.0000 </r>
       <r>   -7.8966    1.0000 </r>
       <r>   -7.8965    1.0000 </r>
       <r>   -7.7982    1.0000 </r>
       <r>   -7.7969    1.0000 </r>
       <r>   -6.8248    1.0000 </r>
       <r>   -6.8245    1.0000 </r>
       <r>   -4.1026    1.0000 </r>
       <r>   -4.1015    1.0000 </r>
       <r>   -1.4525    0.0000 </r>
       <r>   -1.4507    0.0000 </r>
       <r>    1.6806    0.0000 </r>
       <r>    1.6818    0.0000 </r>
       <r>    2.0818    0.0000 </r>
       <r>    2.0839    0.0000 </r>
       <r>    2.8398    0.0000 </r>
       <r>    2.8926    0.0000 </r>
       <r>    3.1716    0.0000 </r>
       <r>    3.1724    0.0000 </r>
      </set>
      <set comment="kpoint 8">
       <r>  -21.1191    1.0000 </r>
       <r>  -21.1190    1.0000 </r>
       <r>  -20.1517    1.0000 </r>
       <r>  -20.1516    1.0000 </r>
       <r>  -19.2074    1.0000 </r>
       <r>  -19.2072    1.0000 </r>
       <r>  -16.5575    1.0000 </r>
       <r>  -16.5565    1.0000 </r>
       <r>  -14.6868    1.0000 </r>
       <r>  -14.6844    1.0000 </r>
       <r>  -12.4051    1.0000 </r>
       <r>  -12.4039    1.0000 </r>
       <r>  -12.2410    1.0000 </r>
       <r>  -12.2407    1.0000 </r>
       <r>  -11.2436    1.0000 </r>
       <r>  -11.2434    1.0000 </r>
       <r>  -10.1992    1.0000 </r>
       <r>  -10.1989    1.0000 </r>
       <r>   -9.1711    1.0000 </r>
       <r>   -9.1703    1.0000 </r>
       <r>   -9.0109    1.0000 </r>
       <r>   -9.0108    1.0000 </r>
       <r>   -8.6828    1.0000 </r>
       <r>   -8.6821    1.0000 </r>
       <r>   -7.8953    1.0000 </r>
       <r>   -7.8951    1.0000 </r>
       <r>   -7.7941    1.0000 </r>
       <r>   -7.7934    1.0000 </r>
       <r>   -6.8258    1.0000 </r>
       <r>   -6.8253    1.0000 </r>
       <r>   -4.1007    1.0000 </r>
       <r>   -4.1007    1.0000 </r>
       <r>   -1.4490    0.0000 </r>
       <r>   -1.4487    0.0000 </r>
       <r>    1.6762    0.0000 </r>
       <r>    1.6780    0.0000 </r>
       <r>    2.0803    0.0000 </r>
       <r>    2.0824    0.0000 </r>
       <r>    2.8383    0.0000 </r>
       <r>    2.8912    0.0000 </r>
       <r>    3.1725    0.0000 </r>
       <r>    3.1726    0.0000 </r>
      </set>
      <set comment="kpoint 9">
       <r>  -21.7699    1.0000 </r>
       <r>  -21.7699    1.0000 </r>
       <r>  -18.8956    1.0000 </r>
       <r>  -18.8955    1.0000 </r>
       <r>  -18.8902    1.0000 </r>
       <r>  -18.8899    1.0000 </r>
       <r>  -16.5982    1.0000 </r>
       <r>  -16.5962    1.0000 </r>
       <r>  -15.5730    1.0000 </r>
       <r>  -15.5699    1.0000 </r>
       <r>  -13.3810    1.0000 </r>
       <r>  -13.3807    1.0000 </r>
       <r>  -13.3688    1.0000 </r>
       <r>  -13.3685    1.0000 </r>
       <r>  -10.9772    1.0000 </r>
       <r>  -10.9763    1.0000 </r>
       <r>   -9.7779    1.0000 </r>
       <r>   -9.7778    1.0000 </r>
       <r>   -9.3172    1.0000 </r>
       <r>   -9.3168    1.0000 </r>
       <r>   -9.2970    1.0000 </r>
       <r>   -9.2959    1.0000 </r>
       <r>   -7.4692    1.0000 </r>
       <r>   -7.4673    1.0000 </r>
       <r>   -6.7869    1.0000 </r>
       <r>   -6.7855    1.0000 </r>
       <r>   -6.5220    1.0000 </r>
       <r>   -6.5211    1.0000 </r>
       <r>   -6.5174    1.0000 </r>
       <r>   -6.5173    1.0000 </r>
       <r>   -4.5078    1.0000 </r>
       <r>   -4.5073    1.0000 </r>
       <r>   -1.2930    0.0000 </r>
       <r>   -1.2924    0.0000 </r>
       <r>    0.9657    0.0000 </r>
[...]
       <r>  -21.1198    1.0000 </r>
       <r>  -20.1552    1.0000 </r>
       <r>  -20.1552    1.0000 </r>
       <r>  -19.2025    1.0000 </r>
       <r>  -19.2024    1.0000 </r>
       <r>  -16.5508    1.0000 </r>
       <r>  -16.5501    1.0000 </r>
       <r>  -14.6918    1.0000 </r>
       <r>  -14.6910    1.0000 </r>
       <r>  -12.4054    1.0000 </r>
       <r>  -12.4052    1.0000 </r>
       <r>  -12.2302    1.0000 </r>
       <r>  -12.2292    1.0000 </r>
       <r>  -11.2594    1.0000 </r>
       <r>  -11.2581    1.0000 </r>
       <r>  -10.2159    1.0000 </r>
       <r>  -10.2148    1.0000 </r>
       <r>   -9.1845    1.0000 </r>
       <r>   -9.1837    1.0000 </r>
       <r>   -9.0116    1.0000 </r>
       <r>   -9.0114    1.0000 </r>
       <r>   -8.6633    1.0000 </r>
       <r>   -8.6615    1.0000 </r>
       <r>   -7.8983    1.0000 </r>
       <r>   -7.8980    1.0000 </r>
       <r>   -7.7792    1.0000 </r>
       <r>   -7.7780    1.0000 </r>
       <r>   -6.8219    1.0000 </r>
       <r>   -6.8218    1.0000 </r>
       <r>   -4.0987    1.0000 </r>
       <r>   -4.0976    1.0000 </r>
       <r>   -1.4503    0.0000 </r>
       <r>   -1.4489    0.0000 </r>
       <r>    1.6821    0.0000 </r>
       <r>    1.6824    0.0000 </r>
       <r>    2.0803    0.0000 </r>
       <r>    2.0806    0.0000 </r>
       <r>    2.8607    0.0000 </r>
       <r>    2.8612    0.0000 </r>
       <r>    3.1635    0.0000 </r>
       <r>    3.1655    0.0000 </r>
      </set>
      <set comment="kpoint 76">
       <r>  -20.7988    1.0000 </r>
       <r>  -20.7968    1.0000 </r>
       <r>  -20.7968    1.0000 </r>
       <r>  -20.7948    1.0000 </r>
       <r>  -17.9739    1.0000 </r>
       <r>  -17.9729    1.0000 </r>
       <r>  -17.9729    1.0000 </r>
       <r>  -17.9714    1.0000 </r>
       <r>  -13.2692    1.0000 </r>
       <r>  -13.2683    1.0000 </r>
       <r>  -13.2683    1.0000 </r>
       <r>  -13.2662    1.0000 </r>
       <r>  -11.6999    1.0000 </r>
       <r>  -11.6983    1.0000 </r>
       <r>  -11.6983    1.0000 </r>
       <r>  -11.6981    1.0000 </r>
       <r>  -10.1816    1.0000 </r>
       <r>  -10.1782    1.0000 </r>
       <r>  -10.1782    1.0000 </r>
       <r>  -10.1773    1.0000 </r>
       <r>   -8.6381    1.0000 </r>
       <r>   -8.6367    1.0000 </r>
       <r>   -8.6367    1.0000 </r>
       <r>   -8.6347    1.0000 </r>
       <r>   -7.7742    1.0000 </r>
       <r>   -7.7725    1.0000 </r>
       <r>   -7.7725    1.0000 </r>
       <r>   -7.7672    1.0000 </r>
       <r>   -5.4828    1.0000 </r>
       <r>   -5.4807    1.0000 </r>
       <r>   -5.4807    1.0000 </r>
       <r>   -5.4796    1.0000 </r>
       <r>    0.0676    0.0000 </r>
       <r>    0.0683    0.0000 </r>
       <r>    0.0683    0.0000 </r>
       <r>    0.0711    0.0000 </r>
       <r>    2.5226    0.0000 </r>
       <r>    2.5227    0.0000 </r>
       <r>    2.5228    0.0000 </r>
       <r>    2.5229    0.0000 </r>
       <r>    3.2996    0.0000 </r>
       <r>    3.2999    0.0000 </r>
      </set>
     </set>
    </set>
   </array>
  </eigenvalues>
  <separator name="orbital magnetization" >
   <v name="MAGDIPOLOUT">      0.00000000      0.00000000      0.00000000</v>
  </separator>
  <dos>
   <i name="efermi">     -2.74638299 </i>
   <total>
    <array>
     <dimension dim="1">gridpoints</dimension>
     <dimension dim="2">spin</dimension>
     <field>energy</field>
     <field>total</field>
     <field>integrated</field>
     <set>
      <set comment="spin 1">
       <r>   -24.2611     0.0000     0.0000 </r>
       <r>   -24.1615     0.0000     0.0000 </r>
       <r>   -24.0619     0.0000     0.0000 </r>
       <r>   -23.9623     0.0000     0.0000 </r>
       <r>   -23.8626     0.0000     0.0000 </r>
       <r>   -23.7630     0.0000     0.0000 </r>
       <r>   -23.6634     0.0000     0.0000 </r>
       <r>   -23.5638     0.0000     0.0000 </r>
       <r>   -23.4641     0.0000     0.0000 </r>
       <r>   -23.3645     0.0000     0.0000 </r>
       <r>   -23.2649     0.0000     0.0000 </r>
       <r>   -23.1653     0.0000     0.0000 </r>
       <r>   -23.0656     0.0000     0.0000 </r>
       <r>   -22.9660     0.0000     0.0000 </r>
       <r>   -22.8664     0.0000     0.0000 </r>
       <r>   -22.7667     0.0000     0.0000 </r>
       <r>   -22.6671     0.0000     0.0000 </r>
       <r>   -22.5675     0.0000     0.0000 </r>
       <r>   -22.4679     0.0000     0.0000 </r>
       <r>   -22.3682     0.0000     0.0000 </r>
       <r>   -22.2686     0.0000     0.0000 </r>
       <r>   -22.1690     2.2801     0.1050 </r>
       <r>   -22.0694     2.0943     0.3904 </r>
       <r>   -21.9697     2.3017     0.6094 </r>
       <r>   -21.8701     2.5092     0.8490 </r>
       <r>   -21.7705     2.7166     1.1093 </r>
       <r>   -21.6709     2.4684     1.3678 </r>
       <r>   -21.5712     2.3319     1.6032 </r>
       <r>   -21.4716     2.4063     1.8392 </r>
       <r>   -21.3720     2.4807     2.0827 </r>
       <r>   -21.2723     2.5550     2.3335 </r>
       <r>   -21.1727     2.6294     2.5918 </r>
       <r>   -21.0731     4.7497     2.9661 </r>
       <r>   -20.9735     3.3988     3.3720 </r>
       <r>   -20.8738     2.0478     3.6433 </r>
       <r>   -20.7742     1.0190     3.7835 </r>
       <r>   -20.6746     1.1597     3.8920 </r>
       <r>   -20.5750     1.3003     4.0146 </r>
       <r>   -20.4753     1.4410     4.1511 </r>
       <r>   -20.3757     1.5817     4.3017 </r>
       <r>   -20.2761     3.8049     4.5059 </r>
       <r>   -20.1765     9.4079     5.1640 </r>
       <r>   -20.0768     1.9236     5.5419 </r>
       <r>   -19.9772     1.9626     5.7355 </r>
       <r>   -19.8776     2.0017     5.9329 </r>
       <r>   -19.7780     2.0407     6.1343 </r>
       <r>   -19.6783     2.0798     6.3396 </r>
       <r>   -19.5787     2.1328     6.5494 </r>
       <r>   -19.4791     2.1862     6.7645 </r>
       <r>   -19.3794     2.2396     6.9850 </r>
       <r>   -19.2798     2.2930     7.2108 </r>
       <r>   -19.1802     3.6907     7.4770 </r>
       <r>   -19.0806     3.3072     7.8256 </r>
       <r>   -18.9809     2.9237     8.1359 </r>
       <r>   -18.8813     2.5857     8.4083 </r>
       <r>   -18.7817     2.6656     8.6699 </r>
       <r>   -18.6821     2.7455     8.9395 </r>
       <r>   -18.5824     2.8255     9.2170 </r>
       <r>   -18.4828     2.9054     9.5025 </r>
       <r>   -18.3832     2.9853     9.7959 </r>
       <r>   -18.2836     3.0643    10.0973 </r>
       <r>   -18.1839     2.5303    10.3505 </r>
       <r>   -18.0843     2.5473    10.6034 </r>
       <r>   -17.9847     2.5643    10.8580 </r>
       <r>   -17.8850     2.5455    11.1122 </r>
       <r>   -17.7854     2.5829    11.3666 </r>
       <r>   -17.6858     2.6580    11.6277 </r>
       <r>   -17.5862     2.7331    11.8962 </r>
       <r>   -17.4865     2.8081    12.1722 </r>
       <r>   -17.3869     6.3169    12.5496 </r>
       <r>   -17.2873     5.2407    13.1253 </r>
       <r>   -17.1877     4.1645    13.5938 </r>
       <r>   -17.0880     3.0883    13.9551 </r>
       <r>   -16.9884     2.2731    14.2130 </r>
       <r>   -16.8888     2.0848    14.4301 </r>
       <r>   -16.7892     1.8965    14.6284 </r>
       <r>   -16.6895     1.7082    14.8080 </r>
       <r>   -16.5899     4.0663    14.9787 </r>
       <r>   -16.4903     1.0383    15.4023 </r>
       <r>   -16.3906     0.9485    15.5013 </r>
       <r>   -16.2910     0.8586    15.5913 </r>
       <r>   -16.1914     0.7688    15.6724 </r>
       <r>   -16.0918     0.6789    15.7445 </r>
       <r>   -15.9921     0.5891    15.8076 </r>
       <r>   -15.8925     0.7810    15.8739 </r>
       <r>   -15.7929     1.0204    15.9637 </r>
       <r>   -15.6933     1.2599    16.0773 </r>
       <r>   -15.5936     1.4994    16.2147 </r>
       <r>   -15.4940     3.0206    16.4296 </r>
       <r>   -15.3944     4.7958    16.8190 </r>
       <r>   -15.2948     2.1380    17.2935 </r>
       <r>   -15.1951     2.6386    17.5315 </r>
       <r>   -15.0955     3.1392    17.8193 </r>
       <r>   -14.9959     3.6398    18.1570 </r>
       <r>   -14.8963     4.1404    18.5445 </r>
       <r>   -14.7966     4.6411    18.9819 </r>
       <r>   -14.6970     4.5396    19.4688 </r>
       <r>   -14.5974     2.7769    19.7602 </r>
       <r>   -14.4977     2.7359    20.0348 </r>
       <r>   -14.3981     2.8330    20.3163 </r>
       <r>   -14.2985     2.7652    20.5951 </r>
       <r>   -14.1989     2.6974    20.8672 </r>
       <r>   -14.0992     2.6313    21.1326 </r>
       <r>   -13.9996     2.5747    21.3919 </r>
       <r>   -13.9000     2.5180    21.6456 </r>
       <r>   -13.8004     2.4614    21.8936 </r>
       <r>   -13.7007     2.4048    22.1360 </r>
       <r>   -13.6011     2.3481    22.3728 </r>
       <r>   -13.5015     2.2915    22.6039 </r>
       <r>   -13.4019     2.2349    22.8293 </r>
       <r>   -13.3022     2.2447    23.0513 </r>
       <r>   -13.2026     2.4798    23.2855 </r>
       <r>   -13.1030     2.7436    23.5457 </r>
       <r>   -13.0033     3.0074    23.8322 </r>
       <r>   -12.9037     3.2712    24.1449 </r>
       <r>   -12.8041     3.5350    24.4840 </r>
       <r>   -12.7045     3.7988    24.8493 </r>
       <r>   -12.6048     4.0627    25.2409 </r>
       <r>   -12.5052     4.3265    25.6588 </r>
       <r>   -12.4056     4.2519    26.1028 </r>
       <r>   -12.3060     2.0998    26.3000 </r>
       <r>   -12.2063     3.8016    26.5737 </r>
       <r>   -12.1067     3.1669    26.9208 </r>
       <r>   -12.0071     2.5321    27.2047 </r>
       <r>   -11.9075     1.8973    27.4253 </r>
       <r>   -11.8078     1.2625    27.5827 </r>
       <r>   -11.7082     0.6278    27.6769 </r>
       <r>   -11.6086     1.0523    27.7523 </r>
       <r>   -11.5089     1.6777    27.8883 </r>
       <r>   -11.4093     2.3031    28.0866 </r>
       <r>   -11.3097     2.9285    28.3472 </r>
       <r>   -11.2101     5.8507    28.7644 </r>
       <r>   -11.1104     5.4281    29.3263 </r>
       <r>   -11.0108     5.0055    29.8460 </r>
       <r>   -10.9112     4.1192    30.3098 </r>
       <r>   -10.8116     2.9034    30.6596 </r>
       <r>   -10.7119     2.7930    30.9295 </r>
       <r>   -10.6123     3.0768    31.2219 </r>
       <r>   -10.5127     3.3607    31.5425 </r>
       <r>   -10.4131     5.2801    31.9627 </r>
       <r>   -10.3134     8.2900    32.6171 </r>
       <r>   -10.2138    17.3242    33.6445 </r>
       <r>   -10.1142     3.1806    34.5528 </r>
       <r>   -10.0145     2.9312    34.8573 </r>
       <r>    -9.9149     2.6819    35.1369 </r>
       <r>    -9.8153     2.4325    35.3917 </r>
       <r>    -9.7157     4.3688    35.6893 </r>
       <r>    -9.6160     7.5850    36.2232 </r>
       <r>    -9.5164     8.9903    37.1613 </r>
       <r>    -9.4168     7.0924    37.9624 </r>
       <r>    -9.3172     5.2150    38.5745 </r>
       <r>    -9.2175     7.5497    39.1955 </r>
       <r>    -9.1179     7.8288    40.4906 </r>
       <r>    -9.0183    20.9355    41.9235 </r>
       <r>    -8.9187     6.2019    42.7678 </r>
       <r>    -8.8190     6.3462    43.3929 </r>
       <r>    -8.7194     6.4905    44.0323 </r>
       <r>    -8.6198     5.8068    44.9567 </r>
       <r>    -8.5202     2.6512    45.3717 </r>
       <r>    -8.4205     2.2584    45.6103 </r>
       <r>    -8.3209     2.0084    45.8229 </r>
       <r>    -8.2213     1.7585    46.0105 </r>
       <r>    -8.1216     1.5085    46.1732 </r>
       <r>    -8.0220     4.4997    46.3989 </r>
       <r>    -7.9224    10.2168    47.1320 </r>
       <r>    -7.8228     9.8885    48.1877 </r>
       <r>    -7.7231     6.3802    49.2705 </r>
       <r>    -7.6235     5.8503    49.8797 </r>
       <r>    -7.5239     5.3203    50.4362 </r>
       <r>    -7.4243     4.8198    50.9404 </r>
       <r>    -7.3246     4.5219    51.4015 </r>
       <r>    -7.2250     4.4174    51.8468 </r>
       <r>    -7.1254     4.3129    52.2816 </r>
       <r>    -7.0258     4.2084    52.7061 </r>
       <r>    -6.9261     4.1040    53.1202 </r>
       <r>    -6.8265     4.1125    53.5284 </r>
       <r>    -6.7269     5.3546    54.0758 </r>
       <r>    -6.6272     5.0045    54.5918 </r>
       <r>    -6.5276     4.6543    55.0729 </r>
       <r>    -6.4280     4.7907    55.5345 </r>
       <r>    -6.3284     4.8926    56.0274 </r>
       <r>    -6.2287     4.7578    56.5081 </r>
       <r>    -6.1291     4.6230    56.9754 </r>
       <r>    -6.0295     4.9567    57.4872 </r>
       <r>    -5.9299     3.9146    57.9410 </r>
       <r>    -5.8302     3.1995    58.2953 </r>
       <r>    -5.7306     2.7504    58.5840 </r>
       <r>    -5.6310     2.7357    58.8573 </r>
       <r>    -5.5314     2.7209    59.1291 </r>
       <r>    -5.4317     2.6973    59.3986 </r>
       <r>    -5.3321     2.8959    59.6746 </r>
       <r>    -5.2325     3.1671    59.9766 </r>
       <r>    -5.1328     6.6375    60.9407 </r>
       <r>    -5.0332     3.1007    61.3094 </r>
       <r>    -4.9336     2.8289    61.6048 </r>
       <r>    -4.8340     2.5572    61.8731 </r>
       <r>    -4.7343     2.2854    62.1143 </r>
       <r>    -4.6347     2.0136    62.3285 </r>
       <r>    -4.5351     1.7419    62.5156 </r>
       <r>    -4.4355     1.7501    62.6858 </r>
       <r>    -4.3358     1.8583    62.8656 </r>
       <r>    -4.2362     1.9665    63.0561 </r>
       <r>    -4.1366     2.0747    63.2574 </r>
       <r>    -4.0370     0.9394    63.3943 </r>
       <r>    -3.9373     0.8668    63.4843 </r>
       <r>    -3.8377     0.7942    63.5671 </r>
       <r>    -3.7381     0.7217    63.6426 </r>
       <r>    -3.6384     0.6491    63.7108 </r>
       <r>    -3.5388     0.5765    63.7719 </r>
       <r>    -3.4392     0.5039    63.8257 </r>
       <r>    -3.3396     0.4313    63.8723 </r>
       <r>    -3.2399     0.3588    63.9117 </r>
       <r>    -3.1403     0.2862    63.9438 </r>
       <r>    -3.0407     0.2136    63.9687 </r>
       <r>    -2.9411     0.1410    63.9863 </r>
       <r>    -2.8414     0.0684    63.9968 </r>
       <r>    -2.7418     0.0028    64.0000 </r>
       <r>    -2.6422     0.0820    64.0042 </r>
       <r>    -2.5426     0.1612    64.0163 </r>
       <r>    -2.4429     0.2403    64.0363 </r>
       <r>    -2.3433     0.3195    64.0642 </r>
       <r>    -2.2437     0.3986    64.1000 </r>
       <r>    -2.1441     0.4778    64.1437 </r>
       <r>    -2.0444     0.5570    64.1952 </r>
       <r>    -1.9448     0.6361    64.2546 </r>
       <r>    -1.8452     0.7153    64.3220 </r>
       <r>    -1.7455     0.7944    64.3972 </r>
       <r>    -1.6459     0.8736    64.4802 </r>
       <r>    -1.5463     0.9528    64.5712 </r>
       <r>    -1.4467     4.6701    64.6823 </r>
       <r>    -1.3470     2.6542    65.0472 </r>
       <r>    -1.2474     1.8187    65.2394 </r>
       <r>    -1.1478     2.2764    65.4434 </r>
       <r>    -1.0482     3.1145    65.6973 </r>
       <r>    -0.9485     5.3544    66.1191 </r>
       <r>    -0.8489     7.5942    66.7641 </r>
       <r>    -0.7493     3.0246    67.3549 </r>
       <r>    -0.6497     2.9123    67.6507 </r>
       <r>    -0.5500     2.8000    67.9352 </r>
       <r>    -0.4504     2.6877    68.2086 </r>
       <r>    -0.3508     2.5754    68.4707 </r>
       <r>    -0.2511     2.4631    68.7217 </r>
       <r>    -0.1515     2.3899    68.9629 </r>
       <r>    -0.0519     2.3331    69.1981 </r>
       <r>     0.0477     2.3628    69.4295 </r>
       <r>     0.1474     2.3385    69.6633 </r>
       <r>     0.2470     2.3217    69.8955 </r>
       <r>     0.3466     2.3049    70.1259 </r>
       <r>     0.4462     2.2881    70.3547 </r>
       <r>     0.5459     2.5816    70.5854 </r>
       <r>     0.6455     3.9035    70.9085 </r>
       <r>     0.7451     4.5900    71.3629 </r>
       <r>     0.8447     3.5930    71.7288 </r>
       <r>     0.9444     3.4529    72.0797 </r>
       <r>     1.0440     3.4136    72.4203 </r>
       <r>     1.1436     3.4161    72.7605 </r>
       <r>     1.2433     3.4871    73.1027 </r>
       <r>     1.3429     4.3677    73.4808 </r>
       <r>     1.4425     5.7855    73.9871 </r>
       <r>     1.5421     5.3568    74.5795 </r>
       <r>     1.6418     5.5143    75.1196 </r>
       <r>     1.7414     5.1868    75.6482 </r>
       <r>     1.8410     5.2997    76.1706 </r>
       <r>     1.9406     5.4111    76.7042 </r>
       <r>     2.0403     5.1806    77.2349 </r>
       <r>     2.1399     6.5016    77.8441 </r>
       <r>     2.2395     5.9347    78.4561 </r>
       <r>     2.3391     5.6432    79.0328 </r>
       <r>     2.4388     5.3517    79.5805 </r>
       <r>     2.5384     5.0836    80.0994 </r>
       <r>     2.6380     4.9094    80.5972 </r>
       <r>     2.7377     4.7351    81.0776 </r>
       <r>     2.8373     4.5606    81.5407 </r>
       <r>     2.9369     5.2130    82.0710 </r>
       <r>     3.0365     3.8870    82.5243 </r>
       <r>     3.1362     2.5600    82.8454 </r>
       <r>     3.2358     5.5114    83.4331 </r>
       <r>     3.3354     1.8610    83.7300 </r>
       <r>     3.4350     1.2221    83.8836 </r>
       <r>     3.5347     0.5832    83.9735 </r>
       <r>     3.6343     0.0000    84.0000 </r>
       <r>     3.7339     0.0000    84.0000 </r>
       <r>     3.8335     0.0000    84.0000 </r>
       <r>     3.9332     0.0000    84.0000 </r>
       <r>     4.0328     0.0000    84.0000 </r>
       <r>     4.1324     0.0000    84.0000 </r>
       <r>     4.2320     0.0000    84.0000 </r>
       <r>     4.3317     0.0000    84.0000 </r>
       <r>     4.4313     0.0000    84.0000 </r>
       <r>     4.5309     0.0000    84.0000 </r>
       <r>     4.6306     0.0000    84.0000 </r>
       <r>     4.7302     0.0000    84.0000 </r>
       <r>     4.8298     0.0000    84.0000 </r>
       <r>     4.9294     0.0000    84.0000 </r>
       <r>     5.0291     0.0000    84.0000 </r>
       <r>     5.1287     0.0000    84.0000 </r>
       <r>     5.2283     0.0000    84.0000 </r>
       <r>     5.3279     0.0000    84.0000 </r>
       <r>     5.4276     0.0000    84.0000 </r>
       <r>     5.5272     0.0000    84.0000 </r>
       <r>     5.6268     0.0000    84.0000 </r>
      </set>
     </set>
    </array>
   </total>
  </dos>
 </calculation>
 <structure name="finalpos" >
  <crystal>
   <varray name="basis" >
    <v>       4.93287468       0.00000000       0.00000000 </v>
    <v>      -2.46976095       4.27007417       0.00000000 </v>
    <v>       0.00000000       0.00000000      40.00000000 </v>
   </varray>
   <i name="volume">    842.54963040 </i>
   <varray name="rec_basis" >
    <v>       0.20272155       0.11725177       0.00000000 </v>
    <v>       0.00000000       0.23418797       0.00000000 </v>
    <v>       0.00000000       0.00000000       0.02500000 </v>
   </varray>
  </crystal>
  <varray name="positions" >
   <v>       0.49992143       0.00032672       0.04169656 </v>
   <v>       0.99967331       0.00032672       0.04144844 </v>
   <v>       0.49967331       0.50032672       0.04144844 </v>
   <v>       0.99967331       0.50032672       0.04144844 </v>
   <v>       0.49967331       0.00032672       0.54144844 </v>
   <v>       0.99967331       0.00032672       0.54144844 </v>
   <v>       0.49967331       0.50032672       0.54144844 </v>
   <v>       0.99967331       0.50032672       0.54144844 </v>
   <v>       0.16629246       0.33370754       0.04144844 </v>
   <v>       0.66629246       0.33370754       0.04144844 </v>
   <v>       0.16629246       0.83370754       0.04144844 </v>
   <v>       0.66629246       0.83370754       0.04144844 </v>
   <v>       0.16629246       0.33370754       0.54144844 </v>
   <v>       0.66629246       0.33370754       0.54144844 </v>
   <v>       0.16629246       0.83370754       0.54144844 </v>
   <v>       0.66629246       0.83370754       0.54144844 </v>
  </varray>
 </structure>
</modeling>
