  32  32   0   0
  0.7090409E+01  0.4934311E-09  0.4934311E-09  0.1076119E-08  0.5000000E-15
  1.000000000000000E-004
  CAR 
 graphite                                
     18.17097090    -14.77952213  301      6.76499321      1.00000000
    -14.780  0.0000E+00  0.0000E+00
    -14.670  0.0000E+00  0.0000E+00
    -14.560  0.0000E+00  0.0000E+00
    -14.450  0.0000E+00  0.0000E+00
    -14.340  0.0000E+00  0.0000E+00
    -14.230  0.0000E+00  0.0000E+00
    -14.121  0.0000E+00  0.0000E+00
    -14.011  0.0000E+00  0.0000E+00
    -13.901  0.0000E+00  0.0000E+00
    -13.791  0.1714E-13  0.1882E-14
    -13.681  0.4851E-09  0.5328E-10
    -13.571  0.1396E-05  0.1534E-06
    -13.462  0.4721E-03  0.5200E-04
    -13.352  0.2489E-01  0.2786E-02
    -13.242  0.2782E+00  0.3334E-01
    -13.132  0.8210E+00  0.1235E+00
    -13.022  0.1338E+01  0.2704E+00
    -12.912  0.1743E+01  0.4618E+00
    -12.802  0.1832E+01  0.6630E+00
    -12.693  0.2341E+01  0.9202E+00
    -12.583  0.2826E+01  0.1231E+01
    -12.473  0.2371E+01  0.1491E+01
    -12.363  0.3023E+01  0.1823E+01
    -12.253  0.3552E+01  0.2213E+01
    -12.143  0.3949E+01  0.2647E+01
    -12.034  0.3647E+01  0.3048E+01
    -11.924  0.4166E+01  0.3505E+01
    -11.814  0.4715E+01  0.4023E+01
    -11.704  0.5663E+01  0.4645E+01
    -11.594  0.4982E+01  0.5192E+01
    -11.484  0.4892E+01  0.5729E+01
    -11.375  0.4391E+01  0.6212E+01
    -11.265  0.4701E+01  0.6728E+01
    -11.155  0.5235E+01  0.7303E+01
    -11.045  0.5705E+01  0.7930E+01
    -10.935  0.5142E+01  0.8494E+01
    -10.825  0.4969E+01  0.9040E+01
    -10.716  0.3929E+01  0.9472E+01
    -10.606  0.4961E+01  0.1002E+02
    -10.496  0.5257E+01  0.1059E+02
    -10.386  0.5817E+01  0.1123E+02
    -10.276  0.4795E+01  0.1176E+02
    -10.166  0.5049E+01  0.1231E+02
    -10.057  0.5407E+01  0.1291E+02
     -9.947  0.5270E+01  0.1349E+02
     -9.837  0.4060E+01  0.1393E+02
     -9.727  0.4488E+01  0.1443E+02
     -9.617  0.5326E+01  0.1501E+02
     -9.507  0.5712E+01  0.1564E+02
     -9.398  0.6268E+01  0.1633E+02
     -9.288  0.5652E+01  0.1695E+02
     -9.178  0.4466E+01  0.1744E+02
     -9.068  0.4503E+01  0.1793E+02
     -8.958  0.4810E+01  0.1846E+02
     -8.848  0.4301E+01  0.1893E+02
     -8.739  0.5274E+01  0.1951E+02
     -8.629  0.6709E+01  0.2025E+02
     -8.519  0.6677E+01  0.2098E+02
     -8.409  0.5610E+01  0.2160E+02
     -8.299  0.5263E+01  0.2218E+02
     -8.189  0.4056E+01  0.2262E+02
     -8.080  0.4558E+01  0.2312E+02
     -7.970  0.5313E+01  0.2371E+02
     -7.860  0.5560E+01  0.2432E+02
     -7.750  0.7249E+01  0.2511E+02
     -7.640  0.7437E+01  0.2593E+02
     -7.530  0.6901E+01  0.2669E+02
     -7.421  0.5931E+01  0.2734E+02
     -7.311  0.5357E+01  0.2793E+02
     -7.201  0.5166E+01  0.2850E+02
     -7.091  0.4417E+01  0.2898E+02
     -6.981  0.4488E+01  0.2947E+02
     -6.871  0.5646E+01  0.3009E+02
     -6.762  0.4112E+01  0.3055E+02
     -6.652  0.2157E+01  0.3078E+02
     -6.542  0.2426E+01  0.3105E+02
     -6.432  0.2284E+01  0.3130E+02
     -6.322  0.2640E+01  0.3159E+02
     -6.212  0.5185E+01  0.3216E+02
     -6.103  0.5862E+01  0.3280E+02
     -5.993  0.3706E+01  0.3321E+02
     -5.883  0.4222E+01  0.3367E+02
     -5.773  0.5627E+01  0.3429E+02
     -5.663  0.7200E+01  0.3508E+02
     -5.553  0.7081E+01  0.3586E+02
     -5.444  0.5792E+01  0.3650E+02
     -5.334  0.6100E+01  0.3717E+02
     -5.224  0.6224E+01  0.3785E+02
     -5.114  0.7182E+01  0.3864E+02
     -5.004  0.6859E+01  0.3939E+02
     -4.894  0.5997E+01  0.4005E+02
     -4.785  0.4928E+01  0.4059E+02
     -4.675  0.4218E+01  0.4106E+02
     -4.565  0.5056E+01  0.4161E+02
     -4.455  0.5415E+01  0.4221E+02
     -4.345  0.5687E+01  0.4283E+02
     -4.235  0.5325E+01  0.4341E+02
     -4.126  0.4279E+01  0.4388E+02
     -4.016  0.3982E+01  0.4432E+02
     -3.906  0.3585E+01  0.4472E+02
     -3.796  0.3986E+01  0.4515E+02
     -3.686  0.5609E+01  0.4577E+02
     -3.576  0.6399E+01  0.4647E+02
     -3.467  0.5606E+01  0.4709E+02
     -3.357  0.4595E+01  0.4759E+02
     -3.247  0.5350E+01  0.4818E+02
     -3.137  0.4725E+01  0.4870E+02
     -3.027  0.6031E+01  0.4936E+02
     -2.917  0.7976E+01  0.5024E+02
     -2.808  0.7050E+01  0.5101E+02
     -2.698  0.5403E+01  0.5161E+02
     -2.588  0.5577E+01  0.5222E+02
     -2.478  0.5802E+01  0.5286E+02
     -2.368  0.6548E+01  0.5357E+02
     -2.258  0.7061E+01  0.5435E+02
     -2.148  0.7808E+01  0.5521E+02
     -2.039  0.8990E+01  0.5620E+02
     -1.929  0.9204E+01  0.5721E+02
     -1.819  0.7148E+01  0.5799E+02
     -1.709  0.6687E+01  0.5873E+02
     -1.599  0.6552E+01  0.5945E+02
     -1.489  0.6631E+01  0.6017E+02
     -1.380  0.7444E+01  0.6099E+02
     -1.270  0.8779E+01  0.6196E+02
     -1.160  0.9260E+01  0.6297E+02
     -1.050  0.1047E+02  0.6412E+02
     -0.940  0.1166E+02  0.6540E+02
     -0.830  0.9162E+01  0.6641E+02
     -0.721  0.6981E+01  0.6718E+02
     -0.611  0.6731E+01  0.6792E+02
     -0.501  0.8698E+01  0.6887E+02
     -0.391  0.1012E+02  0.6998E+02
     -0.281  0.1168E+02  0.7127E+02
     -0.171  0.1169E+02  0.7255E+02
     -0.062  0.1161E+02  0.7382E+02
      0.048  0.1121E+02  0.7505E+02
      0.158  0.1203E+02  0.7638E+02
      0.268  0.1256E+02  0.7775E+02
      0.378  0.1227E+02  0.7910E+02
      0.488  0.1557E+02  0.8081E+02
      0.597  0.1534E+02  0.8250E+02
      0.707  0.1522E+02  0.8417E+02
      0.817  0.1273E+02  0.8557E+02
      0.927  0.1256E+02  0.8695E+02
      1.037  0.1423E+02  0.8851E+02
      1.147  0.1120E+02  0.8974E+02
      1.256  0.8126E+01  0.9063E+02
      1.366  0.1002E+02  0.9174E+02
      1.476  0.1197E+02  0.9305E+02
      1.586  0.1218E+02  0.9439E+02
      1.696  0.1023E+02  0.9551E+02
      1.806  0.8876E+01  0.9649E+02
      1.915  0.7277E+01  0.9729E+02
      2.025  0.7927E+01  0.9816E+02
      2.135  0.1161E+02  0.9943E+02
      2.245  0.1228E+02  0.1008E+03
      2.355  0.1061E+02  0.1019E+03
      2.465  0.8957E+01  0.1029E+03
      2.574  0.8007E+01  0.1038E+03
      2.684  0.7740E+01  0.1047E+03
      2.794  0.9110E+01  0.1057E+03
      2.904  0.1283E+02  0.1071E+03
      3.014  0.1161E+02  0.1083E+03
      3.124  0.7973E+01  0.1092E+03
      3.233  0.6165E+01  0.1099E+03
      3.343  0.7672E+01  0.1107E+03
      3.453  0.1124E+02  0.1120E+03
      3.563  0.1246E+02  0.1133E+03
      3.673  0.9123E+01  0.1143E+03
      3.783  0.7558E+01  0.1152E+03
      3.892  0.6231E+01  0.1159E+03
      4.002  0.5389E+01  0.1165E+03
      4.112  0.5194E+01  0.1170E+03
      4.222  0.5819E+01  0.1177E+03
      4.332  0.5530E+01  0.1183E+03
      4.442  0.5785E+01  0.1189E+03
      4.551  0.5828E+01  0.1195E+03
      4.661  0.2951E+01  0.1199E+03
      4.771  0.3297E+01  0.1202E+03
      4.881  0.6364E+01  0.1209E+03
      4.991  0.9966E+01  0.1220E+03
      5.101  0.8433E+01  0.1229E+03
      5.210  0.4455E+01  0.1234E+03
      5.320  0.3787E+01  0.1239E+03
      5.430  0.6825E+01  0.1246E+03
      5.540  0.6471E+01  0.1253E+03
      5.650  0.3981E+01  0.1258E+03
      5.760  0.2543E+01  0.1260E+03
      5.869  0.2544E+01  0.1263E+03
      5.979  0.2555E+01  0.1266E+03
      6.089  0.2685E+01  0.1269E+03
      6.199  0.2127E+01  0.1271E+03
      6.309  0.1606E+01  0.1273E+03
      6.419  0.2377E+01  0.1276E+03
      6.528  0.1936E+01  0.1278E+03
      6.638  0.1148E+01  0.1279E+03
      6.748  0.8419E+00  0.1280E+03
      6.858  0.6556E+00  0.1281E+03
      6.968  0.3947E+00  0.1281E+03
      7.078  0.6810E-01  0.1281E+03
      7.187  0.1172E+00  0.1281E+03
      7.297  0.1116E+01  0.1282E+03
      7.407  0.1938E+01  0.1285E+03
      7.517  0.1273E+01  0.1286E+03
      7.627  0.9474E+00  0.1287E+03
      7.737  0.1296E+01  0.1288E+03
      7.846  0.7470E+00  0.1289E+03
      7.956  0.8921E+00  0.1290E+03
      8.066  0.2840E+01  0.1293E+03
      8.176  0.3998E+01  0.1298E+03
      8.286  0.3409E+01  0.1302E+03
      8.396  0.3486E+01  0.1305E+03
      8.505  0.4683E+01  0.1310E+03
      8.615  0.7797E+01  0.1319E+03
      8.725  0.9943E+01  0.1330E+03
      8.835  0.6619E+01  0.1337E+03
      8.945  0.7306E+01  0.1345E+03
      9.055  0.6994E+01  0.1353E+03
      9.165  0.5501E+01  0.1359E+03
      9.274  0.5233E+01  0.1365E+03
      9.384  0.5420E+01  0.1371E+03
      9.494  0.4986E+01  0.1376E+03
      9.604  0.5852E+01  0.1383E+03
      9.714  0.5211E+01  0.1388E+03
      9.824  0.4096E+01  0.1393E+03
      9.933  0.4542E+01  0.1398E+03
     10.043  0.4332E+01  0.1403E+03
     10.153  0.5424E+01  0.1409E+03
     10.263  0.4063E+01  0.1413E+03
     10.373  0.2677E+01  0.1416E+03
     10.483  0.4025E+01  0.1420E+03
     10.592  0.5447E+01  0.1426E+03
     10.702  0.4053E+01  0.1431E+03
     10.812  0.2599E+01  0.1434E+03
     10.922  0.2873E+01  0.1437E+03
     11.032  0.4193E+01  0.1441E+03
     11.142  0.3435E+01  0.1445E+03
     11.251  0.2756E+01  0.1448E+03
     11.361  0.3595E+01  0.1452E+03
     11.471  0.4870E+01  0.1457E+03
     11.581  0.4233E+01  0.1462E+03
     11.691  0.2522E+01  0.1465E+03
     11.801  0.1704E+01  0.1467E+03
     11.910  0.2973E+01  0.1470E+03
     12.020  0.2385E+01  0.1473E+03
     12.130  0.2218E+01  0.1475E+03
     12.240  0.3483E+01  0.1479E+03
     12.350  0.4296E+01  0.1484E+03
     12.460  0.3219E+01  0.1487E+03
     12.569  0.3079E+01  0.1491E+03
     12.679  0.3031E+01  0.1494E+03
     12.789  0.3007E+01  0.1497E+03
     12.899  0.1834E+01  0.1499E+03
     13.009  0.1695E+01  0.1501E+03
     13.119  0.2836E+01  0.1504E+03
     13.228  0.2984E+01  0.1507E+03
     13.338  0.1647E+01  0.1509E+03
     13.448  0.2283E+01  0.1512E+03
     13.558  0.4406E+01  0.1517E+03
     13.668  0.4494E+01  0.1522E+03
     13.778  0.4666E+01  0.1527E+03
     13.887  0.6198E+01  0.1533E+03
     13.997  0.6384E+01  0.1540E+03
     14.107  0.5755E+01  0.1547E+03
     14.217  0.5001E+01  0.1552E+03
     14.327  0.5101E+01  0.1558E+03
     14.437  0.6264E+01  0.1565E+03
     14.546  0.7084E+01  0.1573E+03
     14.656  0.9249E+01  0.1583E+03
     14.766  0.8622E+01  0.1592E+03
     14.876  0.1068E+02  0.1604E+03
     14.986  0.1234E+02  0.1617E+03
     15.096  0.1169E+02  0.1630E+03
     15.205  0.1234E+02  0.1644E+03
     15.315  0.9503E+01  0.1654E+03
     15.425  0.6859E+01  0.1662E+03
     15.535  0.4552E+01  0.1667E+03
     15.645  0.2818E+01  0.1670E+03
     15.755  0.1962E+01  0.1672E+03
     15.864  0.2135E+01  0.1674E+03
     15.974  0.1437E+01  0.1676E+03
     16.084  0.1160E+01  0.1677E+03
     16.194  0.6985E+00  0.1678E+03
     16.304  0.2200E+00  0.1678E+03
     16.414  0.1467E+00  0.1678E+03
     16.523  0.4605E+00  0.1679E+03
     16.633  0.6144E+00  0.1680E+03
     16.743  0.2821E+00  0.1680E+03
     16.853  0.3843E-01  0.1680E+03
     16.963  0.9186E-03  0.1680E+03
     17.073  0.2859E-05  0.1680E+03
     17.182  0.9896E-09  0.1680E+03
     17.292  0.3467E-13  0.1680E+03
     17.402  0.0000E+00  0.1680E+03
     17.512  0.0000E+00  0.1680E+03
     17.622  0.0000E+00  0.1680E+03
     17.732  0.0000E+00  0.1680E+03
     17.841  0.0000E+00  0.1680E+03
     17.951  0.0000E+00  0.1680E+03
     18.061  0.0000E+00  0.1680E+03
     18.171  0.0000E+00  0.1680E+03
