  32  32   0   0
  0.5317807E+01  0.4934311E-09  0.4934311E-09  0.8070891E-09  0.5000000E-15
  1.000000000000000E-004
  CAR 
 graphite                                
     21.89820746    -13.36993039  301     11.70766943      1.00000000
    -13.370  0.0000E+00  0.0000E+00
    -13.252  0.0000E+00  0.0000E+00
    -13.135  0.0000E+00  0.0000E+00
    -13.017  0.0000E+00  0.0000E+00
    -12.900  0.0000E+00  0.0000E+00
    -12.782  0.0000E+00  0.0000E+00
    -12.665  0.0000E+00  0.0000E+00
    -12.547  0.0000E+00  0.0000E+00
    -12.429  0.0000E+00  0.0000E+00
    -12.312  0.3352E-15  0.3941E-16
    -12.194  0.3920E-10  0.4609E-11
    -12.077  0.3136E-06  0.3688E-07
    -11.959  0.1922E-03  0.2263E-04
    -11.842  0.1270E-01  0.1515E-02
    -11.724  0.1514E+00  0.1931E-01
    -11.607  0.5042E+00  0.7858E-01
    -11.489  0.8066E+00  0.1734E+00
    -11.371  0.9510E+00  0.2852E+00
    -11.254  0.1064E+01  0.4103E+00
    -11.136  0.1389E+01  0.5736E+00
    -11.019  0.1728E+01  0.7767E+00
    -10.901  0.1127E+01  0.9092E+00
    -10.784  0.1308E+01  0.1063E+01
    -10.666  0.2409E+01  0.1346E+01
    -10.548  0.1988E+01  0.1580E+01
    -10.431  0.1533E+01  0.1760E+01
    -10.313  0.1945E+01  0.1989E+01
    -10.196  0.2424E+01  0.2274E+01
    -10.078  0.2426E+01  0.2559E+01
     -9.961  0.1902E+01  0.2783E+01
     -9.843  0.1921E+01  0.3008E+01
     -9.726  0.3101E+01  0.3373E+01
     -9.608  0.2888E+01  0.3712E+01
     -9.490  0.2372E+01  0.3991E+01
     -9.373  0.2572E+01  0.4294E+01
     -9.255  0.2890E+01  0.4633E+01
     -9.138  0.2852E+01  0.4969E+01
     -9.020  0.2319E+01  0.5241E+01
     -8.903  0.3043E+01  0.5599E+01
     -8.785  0.3350E+01  0.5993E+01
     -8.668  0.3200E+01  0.6369E+01
     -8.550  0.3275E+01  0.6754E+01
     -8.432  0.4031E+01  0.7228E+01
     -8.315  0.4044E+01  0.7703E+01
     -8.197  0.1635E+01  0.7896E+01
     -8.080  0.1955E+01  0.8125E+01
     -7.962  0.4521E+01  0.8657E+01
     -7.845  0.4786E+01  0.9220E+01
     -7.727  0.3666E+01  0.9651E+01
     -7.609  0.4212E+01  0.1015E+02
     -7.492  0.3910E+01  0.1061E+02
     -7.374  0.3510E+01  0.1102E+02
     -7.257  0.3142E+01  0.1139E+02
     -7.139  0.3017E+01  0.1174E+02
     -7.022  0.5231E+01  0.1236E+02
     -6.904  0.5616E+01  0.1302E+02
     -6.787  0.4158E+01  0.1351E+02
     -6.669  0.4419E+01  0.1403E+02
     -6.551  0.3966E+01  0.1449E+02
     -6.434  0.3964E+01  0.1496E+02
     -6.316  0.5116E+01  0.1556E+02
     -6.199  0.5485E+01  0.1620E+02
     -6.081  0.5131E+01  0.1681E+02
     -5.964  0.5817E+01  0.1749E+02
     -5.846  0.6226E+01  0.1822E+02
     -5.729  0.5512E+01  0.1887E+02
     -5.611  0.3938E+01  0.1933E+02
     -5.493  0.3913E+01  0.1979E+02
     -5.376  0.5970E+01  0.2050E+02
     -5.258  0.4851E+01  0.2107E+02
     -5.141  0.4908E+01  0.2164E+02
     -5.023  0.5093E+01  0.2224E+02
     -4.906  0.5063E+01  0.2284E+02
     -4.788  0.4177E+01  0.2333E+02
     -4.670  0.4151E+01  0.2382E+02
     -4.553  0.4334E+01  0.2433E+02
     -4.435  0.5991E+01  0.2503E+02
     -4.318  0.6258E+01  0.2577E+02
     -4.200  0.6944E+01  0.2658E+02
     -4.083  0.4547E+01  0.2712E+02
     -3.965  0.3729E+01  0.2756E+02
     -3.848  0.4294E+01  0.2806E+02
     -3.730  0.3927E+01  0.2852E+02
     -3.612  0.5969E+01  0.2922E+02
     -3.495  0.5874E+01  0.2991E+02
     -3.377  0.5026E+01  0.3050E+02
     -3.260  0.3145E+01  0.3087E+02
     -3.142  0.5028E+01  0.3147E+02
     -3.025  0.5793E+01  0.3215E+02
     -2.907  0.4442E+01  0.3267E+02
     -2.789  0.3782E+01  0.3311E+02
     -2.672  0.3457E+01  0.3352E+02
     -2.554  0.3592E+01  0.3394E+02
     -2.437  0.6415E+01  0.3470E+02
     -2.319  0.8277E+01  0.3567E+02
     -2.202  0.7088E+01  0.3650E+02
     -2.084  0.5257E+01  0.3712E+02
     -1.967  0.4221E+01  0.3762E+02
     -1.849  0.5403E+01  0.3825E+02
     -1.731  0.6061E+01  0.3896E+02
     -1.614  0.5642E+01  0.3963E+02
     -1.496  0.6169E+01  0.4035E+02
     -1.379  0.5234E+01  0.4097E+02
     -1.261  0.4892E+01  0.4154E+02
     -1.144  0.5171E+01  0.4215E+02
     -1.026  0.4934E+01  0.4273E+02
     -0.909  0.5129E+01  0.4333E+02
     -0.791  0.6578E+01  0.4411E+02
     -0.673  0.7872E+01  0.4503E+02
     -0.556  0.4993E+01  0.4562E+02
     -0.438  0.4282E+01  0.4612E+02
     -0.321  0.6920E+01  0.4694E+02
     -0.203  0.7343E+01  0.4780E+02
     -0.086  0.6459E+01  0.4856E+02
      0.032  0.5228E+01  0.4917E+02
      0.150  0.4570E+01  0.4971E+02
      0.267  0.5290E+01  0.5033E+02
      0.385  0.8327E+01  0.5131E+02
      0.502  0.7883E+01  0.5224E+02
      0.620  0.5383E+01  0.5287E+02
      0.737  0.6297E+01  0.5361E+02
      0.855  0.7900E+01  0.5454E+02
      0.972  0.7386E+01  0.5541E+02
      1.090  0.8257E+01  0.5638E+02
      1.208  0.6442E+01  0.5714E+02
      1.325  0.6232E+01  0.5787E+02
      1.443  0.9058E+01  0.5893E+02
      1.560  0.9101E+01  0.6000E+02
      1.678  0.8003E+01  0.6095E+02
      1.795  0.6006E+01  0.6165E+02
      1.913  0.8106E+01  0.6260E+02
      2.030  0.8208E+01  0.6357E+02
      2.148  0.7062E+01  0.6440E+02
      2.266  0.6258E+01  0.6514E+02
      2.383  0.1037E+02  0.6635E+02
      2.501  0.1047E+02  0.6759E+02
      2.618  0.7936E+01  0.6852E+02
      2.736  0.7934E+01  0.6945E+02
      2.853  0.7798E+01  0.7037E+02
      2.971  0.1122E+02  0.7169E+02
      3.089  0.1150E+02  0.7304E+02
      3.206  0.1053E+02  0.7428E+02
      3.324  0.9623E+01  0.7541E+02
      3.441  0.1021E+02  0.7661E+02
      3.559  0.1112E+02  0.7792E+02
      3.676  0.1148E+02  0.7926E+02
      3.794  0.1163E+02  0.8063E+02
      3.911  0.9797E+01  0.8178E+02
      4.029  0.9229E+01  0.8287E+02
      4.147  0.1131E+02  0.8420E+02
      4.264  0.8476E+01  0.8519E+02
      4.382  0.6967E+01  0.8601E+02
      4.499  0.1071E+02  0.8727E+02
      4.617  0.1413E+02  0.8893E+02
      4.734  0.1147E+02  0.9028E+02
      4.852  0.1000E+02  0.9146E+02
      4.970  0.1104E+02  0.9276E+02
      5.087  0.1107E+02  0.9406E+02
      5.205  0.8598E+01  0.9507E+02
      5.322  0.6362E+01  0.9582E+02
      5.440  0.9724E+01  0.9696E+02
      5.557  0.9182E+01  0.9804E+02
      5.675  0.8939E+01  0.9909E+02
      5.792  0.8475E+01  0.1001E+03
      5.910  0.7302E+01  0.1009E+03
      6.028  0.6523E+01  0.1017E+03
      6.145  0.6575E+01  0.1025E+03
      6.263  0.6583E+01  0.1033E+03
      6.380  0.7421E+01  0.1041E+03
      6.498  0.7413E+01  0.1050E+03
      6.615  0.7082E+01  0.1058E+03
      6.733  0.5539E+01  0.1065E+03
      6.850  0.4393E+01  0.1070E+03
      6.968  0.4878E+01  0.1076E+03
      7.086  0.5257E+01  0.1082E+03
      7.203  0.5238E+01  0.1088E+03
      7.321  0.5043E+01  0.1094E+03
      7.438  0.4327E+01  0.1099E+03
      7.556  0.4828E+01  0.1105E+03
      7.673  0.4649E+01  0.1110E+03
      7.791  0.4416E+01  0.1115E+03
      7.909  0.3669E+01  0.1120E+03
      8.026  0.2848E+01  0.1123E+03
      8.144  0.3724E+01  0.1127E+03
      8.261  0.3140E+01  0.1131E+03
      8.379  0.2866E+01  0.1135E+03
      8.496  0.3024E+01  0.1138E+03
      8.614  0.3726E+01  0.1142E+03
      8.731  0.3049E+01  0.1146E+03
      8.849  0.3616E+01  0.1150E+03
      8.967  0.2793E+01  0.1154E+03
      9.084  0.3221E+01  0.1157E+03
      9.202  0.5498E+01  0.1164E+03
      9.319  0.5042E+01  0.1170E+03
      9.437  0.4420E+01  0.1175E+03
      9.554  0.3674E+01  0.1179E+03
      9.672  0.4598E+01  0.1185E+03
      9.789  0.5689E+01  0.1191E+03
      9.907  0.5423E+01  0.1198E+03
     10.025  0.5179E+01  0.1204E+03
     10.142  0.6814E+01  0.1212E+03
     10.260  0.5040E+01  0.1218E+03
     10.377  0.4586E+01  0.1223E+03
     10.495  0.4392E+01  0.1228E+03
     10.612  0.4468E+01  0.1234E+03
     10.730  0.5183E+01  0.1240E+03
     10.848  0.4894E+01  0.1245E+03
     10.965  0.4174E+01  0.1250E+03
     11.083  0.4903E+01  0.1256E+03
     11.200  0.3988E+01  0.1261E+03
     11.318  0.2226E+01  0.1263E+03
     11.435  0.3121E+01  0.1267E+03
     11.553  0.3754E+01  0.1271E+03
     11.670  0.5332E+01  0.1278E+03
     11.788  0.6097E+01  0.1285E+03
     11.906  0.5369E+01  0.1291E+03
     12.023  0.4222E+01  0.1296E+03
     12.141  0.3532E+01  0.1300E+03
     12.258  0.2078E+01  0.1303E+03
     12.376  0.1482E+01  0.1305E+03
     12.493  0.3090E+01  0.1308E+03
     12.611  0.6568E+01  0.1316E+03
     12.728  0.8345E+01  0.1326E+03
     12.846  0.6802E+01  0.1334E+03
     12.964  0.4016E+01  0.1338E+03
     13.081  0.2361E+01  0.1341E+03
     13.199  0.3983E+01  0.1346E+03
     13.316  0.6074E+01  0.1353E+03
     13.434  0.5958E+01  0.1360E+03
     13.551  0.6000E+01  0.1367E+03
     13.669  0.4695E+01  0.1373E+03
     13.787  0.6156E+01  0.1380E+03
     13.904  0.6742E+01  0.1388E+03
     14.022  0.4515E+01  0.1393E+03
     14.139  0.4380E+01  0.1398E+03
     14.257  0.5817E+01  0.1405E+03
     14.374  0.4829E+01  0.1411E+03
     14.492  0.3889E+01  0.1415E+03
     14.609  0.2963E+01  0.1419E+03
     14.727  0.3604E+01  0.1423E+03
     14.845  0.3839E+01  0.1428E+03
     14.962  0.4708E+01  0.1433E+03
     15.080  0.5170E+01  0.1439E+03
     15.197  0.4736E+01  0.1445E+03
     15.315  0.5607E+01  0.1451E+03
     15.432  0.5514E+01  0.1458E+03
     15.550  0.6180E+01  0.1465E+03
     15.668  0.5368E+01  0.1471E+03
     15.785  0.6366E+01  0.1479E+03
     15.903  0.4258E+01  0.1484E+03
     16.020  0.2639E+01  0.1487E+03
     16.138  0.5060E+01  0.1493E+03
     16.255  0.5774E+01  0.1500E+03
     16.373  0.5534E+01  0.1506E+03
     16.490  0.4805E+01  0.1512E+03
     16.608  0.4171E+01  0.1517E+03
     16.726  0.4330E+01  0.1522E+03
     16.843  0.4081E+01  0.1527E+03
     16.961  0.5961E+01  0.1534E+03
     17.078  0.6081E+01  0.1541E+03
     17.196  0.6452E+01  0.1548E+03
     17.313  0.8620E+01  0.1559E+03
     17.431  0.7901E+01  0.1568E+03
     17.548  0.7401E+01  0.1577E+03
     17.666  0.7077E+01  0.1585E+03
     17.784  0.5818E+01  0.1592E+03
     17.901  0.7228E+01  0.1600E+03
     18.019  0.8386E+01  0.1610E+03
     18.136  0.7113E+01  0.1618E+03
     18.254  0.6921E+01  0.1627E+03
     18.371  0.5019E+01  0.1632E+03
     18.489  0.3763E+01  0.1637E+03
     18.607  0.3482E+01  0.1641E+03
     18.724  0.3576E+01  0.1645E+03
     18.842  0.4121E+01  0.1650E+03
     18.959  0.3932E+01  0.1655E+03
     19.077  0.4361E+01  0.1660E+03
     19.194  0.3207E+01  0.1664E+03
     19.312  0.2012E+01  0.1666E+03
     19.429  0.3006E+01  0.1669E+03
     19.547  0.2895E+01  0.1673E+03
     19.665  0.2188E+01  0.1675E+03
     19.782  0.1025E+01  0.1677E+03
     19.900  0.3565E+00  0.1677E+03
     20.017  0.8227E+00  0.1678E+03
     20.135  0.9336E+00  0.1679E+03
     20.252  0.3520E+00  0.1679E+03
     20.370  0.3621E+00  0.1680E+03
     20.487  0.7752E-01  0.1680E+03
     20.605  0.1583E-02  0.1680E+03
     20.723  0.2551E-05  0.1680E+03
     20.840  0.2940E-09  0.1680E+03
     20.958  0.2308E-14  0.1680E+03
     21.075  0.0000E+00  0.1680E+03
     21.193  0.0000E+00  0.1680E+03
     21.310  0.0000E+00  0.1680E+03
     21.428  0.0000E+00  0.1680E+03
     21.546  0.0000E+00  0.1680E+03
     21.663  0.0000E+00  0.1680E+03
     21.781  0.0000E+00  0.1680E+03
     21.898  0.0000E+00  0.1680E+03
