   32   32    1    1
  0.8555981E+01  0.4932875E-09  0.4932875E-09  0.1299823E-08  0.5000000E-15
  1.000000000000000E-004
  CAR 
 graphite                                
    128    163     84
 
  0.0000000E+00  0.0000000E+00  0.0000000E+00  0.3086420E-02
    1      -14.705450
    2      -14.522443
    3      -14.521933
    4      -14.323068
    5       -9.360321
    6       -9.352258
    7       -9.349743
    8       -9.280939
    9       -9.280294
   10       -9.272635
   11       -9.269195
   12       -9.269128
   13       -9.266782
   14       -9.218085
   15       -9.207088
   16       -9.203723
   17       -8.270612
   18       -8.267333
   19       -8.265192
   20       -8.234798
   21       -8.231273
   22       -8.229106
   23       -8.228738
   24       -8.228624
   25       -8.224662
   26       -8.163794
   27       -8.158790
   28       -8.156756
   29       -3.680220
   30       -2.649020
   31       -2.647110
   32       -1.444571
   33       -1.441847
   34       -1.422550
   35       -1.408543
   36       -1.404678
   37       -1.404668
   38       -1.403590
   39       -1.386002
   40       -1.383357
   41       -1.375703
   42       -1.368418
   43       -1.365994
   44       -1.346562
   45        1.954033
   46        1.967432
   47        1.972851
   48        1.978110
   49        1.983983
   50        1.989018
   51        1.994044
   52        2.006948
   53        2.110936
   54        2.112476
   55        2.113653
   56        2.604096
   57        2.606694
   58        2.608385
   59        2.612270
   60        2.612787
   61        2.614611
   62        2.908688
   63        2.924328
   64        2.927173
   65        6.496951
   66        6.500212
   67        6.502307
   68        6.606264
   69        6.611636
   70        6.616301
   71        6.617172
   72        6.617474
   73        6.623026
   74        7.236123
   75        7.249833
   76        7.252234
   77        9.555334
   78       12.112934
   79       12.116586
   80       12.149932
   81       12.356893
   82       12.357452
   83       12.360424
   84       12.375500
 
  0.1111111E+00 -0.2081668E-16  0.0000000E+00  0.6172840E-02
    1      -14.631604
    2      -14.449311
    3      -14.448804
    4      -14.250843
    5      -10.158741
    6      -10.026298
    7      -10.025797
    8       -9.886653
    9       -9.616169
   10       -9.608052
   11       -9.501328
   12       -9.501029
   13       -9.492457
   14       -9.491790
   15       -9.385453
   16       -9.375882
   17       -7.982340
   18       -7.976017
   19       -7.893467
   20       -7.890678
   21       -7.885324
   22       -7.885002
   23       -7.788484
   24       -7.781384
   25       -7.467134
   26       -7.363537
   27       -7.361517
   28       -7.251086
   29       -3.590575
   30       -2.562070
   31       -2.560162
   32       -1.670201
   33       -1.650636
   34       -1.628844
   35       -1.628606
   36       -1.610321
   37       -1.607681
   38       -1.586451
   39       -1.566754
   40       -1.371012
   41       -1.334870
   42       -1.332236
   43       -1.295966
   44       -1.292696
   45        1.501715
   46        1.670342
   47        1.686429
   48        1.690894
   49        1.707521
   50        1.800423
   51        1.815841
   52        1.820580
   53        1.835168
   54        1.988286
   55        1.989977
   56        2.183035
   57        2.185793
   58        2.552566
   59        2.554902
   60        2.559176
   61        2.561791
   62        2.839520
   63        2.983799
   64        2.998630
   65        6.554287
   66        6.557246
   67        6.737845
   68        6.743138
   69        6.748067
   70        6.749855
   71        6.810571
   72        7.157914
   73        7.162037
   74        7.373049
   75        7.384695
   76        7.861847
   77        9.642645
   78       12.156071
   79       12.393618
   80       12.395287
   81       12.449538
   82       12.484604
   83       12.519687
   84       12.532265
 
  0.2222222E+00 -0.4163336E-16  0.0000000E+00  0.6172840E-02
    1      -14.410335
    2      -14.230314
    3      -14.229813
    4      -14.034474
    5      -11.173570
    6      -11.026583
    7      -11.026165
    8      -10.869778
    9       -9.966686
   10       -9.960995
   11       -9.836952
   12       -9.836369
   13       -9.830779
   14       -9.830089
   15       -9.699812
   16       -9.693610
   17       -7.305019
   18       -7.295791
   19       -7.205176
   20       -7.202782
   21       -7.194697
   22       -7.194409
   23       -7.095888
   24       -7.086542
   25       -6.139946
   26       -6.042361
   27       -6.040488
   28       -5.938337
   29       -3.322272
   30       -2.302223
   31       -2.300319
   32       -2.279754
   33       -2.261379
   34       -2.229335
   35       -2.229177
   36       -2.212047
   37       -2.209418
   38       -2.177016
   39       -2.158529
   40       -1.155913
   41       -1.120468
   42       -1.117681
   43       -1.082126
   44       -1.044779
   45        0.465935
   46        0.840595
   47        0.867800
   48        0.872197
   49        0.899727
   50        1.294251
   51        1.296421
   52        1.378528
   53        1.399555
   54        1.404315
   55        1.425059
   56        1.754781
   57        1.757403
   58        2.238510
   59        2.431366
   60        2.433116
   61        2.436660
   62        2.439405
   63        3.084226
   64        3.094426
   65        6.762259
   66        6.765579
   67        7.073051
   68        7.078130
   69        7.082873
   70        7.084608
   71        7.676985
   72        7.684705
   73        7.898034
   74        8.380598
   75        8.383866
   76        9.072123
   77        9.905409
   78       12.275848
   79       12.505085
   80       12.506746
   81       12.718030
   82       12.721677
   83       12.723962
   84       13.330858
 
  0.3333333E+00  0.0000000E+00  0.0000000E+00  0.6172840E-02
    1      -14.042994
    2      -13.866546
    3      -13.866056
    4      -13.675088
    5      -12.089170
    6      -11.932545
    7      -11.932103
    8      -11.764105
    9      -10.224446
   10      -10.220822
   11      -10.089130
   12      -10.088203
   13      -10.085005
   14      -10.084155
   15       -9.945025
   16       -9.941194
   17       -6.495305
   18       -6.484571
   19       -6.402774
   20       -6.400250
   21       -6.390898
   22       -6.390520
   23       -6.303261
   24       -6.292777
   25       -4.702617
   26       -4.617714
   27       -4.615643
   28       -4.527383
   29       -3.097456
   30       -3.081498
   31       -3.038922
   32       -3.038498
   33       -3.023929
   34       -3.021188
   35       -2.977114
   36       -2.960903
   37       -2.877895
   38       -1.872629
   39       -1.870752
   40       -0.806584
   41       -0.772623
   42       -0.769598
   43       -0.735125
   44       -0.636439
   45       -0.563884
   46       -0.349377
   47       -0.308146
   48       -0.304357
   49       -0.262776
   50        0.341327
   51        0.343308
   52        0.814305
   53        0.840240
   54        0.844469
   55        0.870371
   56        1.420523
   57        1.554769
   58        1.557233
   59        2.307471
   60        2.308695
   61        2.311107
   62        2.314197
   63        3.124930
   64        3.131072
   65        7.091082
   66        7.096032
   67        7.465554
   68        7.470458
   69        7.473967
   70        7.475599
   71        7.969481
   72        7.973742
   73        9.398402
   74        9.858532
   75        9.861374
   76       10.343593
   77       10.467200
   78       12.409540
   79       12.653921
   80       12.677344
   81       12.679287
   82       12.970532
   83       12.972530
   84       13.079131
 
  0.4444444E+00 -0.8326673E-16  0.0000000E+00  0.6172840E-02
    1      -13.531158
    2      -13.359934
    3      -13.359456
    4      -13.174554
    5      -12.878150
    6      -12.713433
    7      -12.712971
    8      -12.535842
    9      -10.356969
   10      -10.354923
   11      -10.219773
   12      -10.218284
   13      -10.217311
   14      -10.215981
   15      -10.072748
   16      -10.070609
   17       -5.738624
   18       -5.730515
   19       -5.671273
   20       -5.667999
   21       -5.662502
   22       -5.661240
   23       -5.601046
   24       -5.594167
   25       -3.841358
   26       -3.832798
   27       -3.794998
   28       -3.793372
   29       -3.786425
   30       -3.783210
   31       -3.739414
   32       -3.729602
   33       -3.217496
   34       -3.146802
   35       -3.144313
   36       -3.071376
   37       -2.262738
   38       -1.740506
   39       -1.685607
   40       -1.682645
   41       -1.624309
   42       -1.485531
   43       -1.278273
   44       -1.276237
   45       -0.533473
   46       -0.531533
   47       -0.339899
   48       -0.307530
   49       -0.304146
   50       -0.271754
   51       -0.075553
   52        0.216209
   53        0.245982
   54        0.249624
   55        0.279562
   56        0.621374
   57        1.444741
   58        1.446720
   59        2.233040
   60        2.234279
   61        2.235225
   62        2.238924
   63        3.129729
   64        3.132873
   65        7.365370
   66        7.368895
   67        7.733821
   68        7.738913
   69        7.740130
   70        7.741484
   71        8.124293
   72        8.127285
   73       10.953668
   74       11.030738
   75       11.397838
   76       11.401127
   77       11.722933
   78       11.905881
   79       12.637732
   80       12.747424
   81       12.781928
   82       12.789598
   83       12.887277
   84       12.890278
 
 -0.6776264E-20  0.1111111E+00  0.0000000E+00  0.6172840E-02
    1      -14.631606
    2      -14.449313
    3      -14.448805
    4      -14.250845
    5      -10.158669
    6      -10.026161
    7      -10.025753
    8       -9.886541
    9       -9.616189
   10       -9.608302
   11       -9.501354
   12       -9.501002
   13       -9.492623
   14       -9.492260
   15       -9.385394
   16       -9.376344
   17       -7.982435
   18       -7.974713
   19       -7.893784
   20       -7.890679
   21       -7.885269
   22       -7.882294
   23       -7.788612
   24       -7.779999
   25       -7.468116
   26       -7.363668
   27       -7.363356
   28       -7.252079
   29       -3.590570
   30       -2.562064
   31       -2.560157
   32       -1.671507
   33       -1.650619
   34       -1.631249
   35       -1.628624
   36       -1.610321
   37       -1.607868
   38       -1.587700
   39       -1.566902
   40       -1.369557
   41       -1.332281
   42       -1.332148
   43       -1.294720
   44       -1.292688
   45        1.502454
   46        1.667963
   47        1.685144
   48        1.686432
   49        1.703514
   50        1.804653
   51        1.820577
   52        1.821576
   53        1.837491
   54        1.987774
   55        1.989483
   56        2.184428
   57        2.186383
   58        2.552353
   59        2.554996
   60        2.557976
   61        2.560548
   62        2.840854
   63        2.983872
   64        2.997068
   65        6.556442
   66        6.557293
   67        6.738206
   68        6.743103
   69        6.748614
   70        6.753234
   71        6.808509
   72        7.157097
   73        7.159195
   74        7.373173
   75        7.386695
   76        7.860165
   77        9.642652
   78       12.156574
   79       12.394481
   80       12.395383
   81       12.449162
   82       12.484940
   83       12.519797
   84       12.533332
 
  0.1111111E+00  0.1111111E+00  0.0000000E+00  0.6172840E-02
    1      -14.483933
    2      -14.303118
    3      -14.302615
    4      -14.106413
    5      -10.626114
    6      -10.623021
    7      -10.487297
    8      -10.484084
    9      -10.484056
   10      -10.481036
   11      -10.336656
   12      -10.333479
   13       -9.170692
   14       -9.092830
   15       -9.091342
   16       -9.030786
   17       -8.085415
   18       -8.051374
   19       -8.048125
   20       -7.983614
   21       -6.784411
   22       -6.781145
   23       -6.683244
   24       -6.680738
   25       -6.680710
   26       -6.676507
   27       -6.574324
   28       -6.570830
   29       -3.411384
   30       -2.388504
   31       -2.386602
   32       -2.337067
   33       -2.286981
   34       -2.284652
   35       -2.233297
   36       -1.526725
   37       -1.523781
   38       -1.487666
   39       -1.483702
   40       -1.483692
   41       -1.482213
   42       -1.443941
   43       -1.441362
   44       -1.127083
   45        1.057449
   46        1.059338
   47        1.141201
   48        1.157390
   49        1.162169
   50        1.177776
   51        1.486737
   52        1.499913
   53        1.504604
   54        1.518055
   55        1.822838
   56        1.826449
   57        1.826624
   58        1.828865
   59        2.379716
   60        2.651633
   61        2.654296
   62        2.870115
   63        2.873481
   64        3.168125
   65        6.492950
   66        6.534970
   67        6.539643
   68        7.041857
   69        7.263056
   70        7.265949
   71        7.699278
   72        7.700978
   73        7.701297
   74        7.705682
   75        8.383836
   76        8.386361
   77        9.818055
   78       12.529845
   79       12.533947
   80       12.658046
   81       12.673791
   82       12.765691
   83       12.768877
   84       12.770789
 
  0.2222222E+00  0.1111111E+00  0.0000000E+00  0.6172840E-02
    1      -14.189522
    2      -14.011670
    3      -14.011176
    4      -13.818462
    5      -11.594317
    6      -11.442931
    7      -11.442502
    8      -11.280793
    9      -10.968050
   10      -10.823565
   11      -10.823141
   12      -10.669145
   13       -9.229102
   14       -9.118604
   15       -9.117788
   16       -9.006889
   17       -7.633770
   18       -7.550870
   19       -7.548140
   20       -7.453120
   21       -5.997171
   22       -5.903152
   23       -5.902671
   24       -5.804375
   25       -5.397316
   26       -5.306866
   27       -5.304967
   28       -5.210448
   29       -3.248325
   30       -3.188055
   31       -3.185770
   32       -3.122878
   33       -3.054952
   34       -2.054016
   35       -2.043635
   36       -2.041749
   37       -2.005365
   38       -2.004949
   39       -1.954797
   40       -1.239395
   41       -1.200962
   42       -1.198254
   43       -1.159307
   44       -0.798705
   45        0.004211
   46        0.182917
   47        0.210821
   48        0.215825
   49        0.243051
   50        0.717256
   51        0.874143
   52        0.876184
   53        0.940193
   54        0.959833
   55        0.965003
   56        0.985124
   57        1.537874
   58        1.539791
   59        1.894449
   60        2.474129
   61        2.507599
   62        3.072216
   63        3.075422
   64        3.501395
   65        6.444160
   66        6.544389
   67        6.548985
   68        6.978393
   69        7.825721
   70        8.270253
   71        8.272466
   72        8.598913
   73        8.854976
   74        9.071623
   75        9.074420
   76        9.697458
   77       10.169929
   78       12.675437
   79       12.909927
   80       12.911748
   81       12.924835
   82       12.927825
   83       13.040977
   84       13.499977
 
  0.3333333E+00  0.1111111E+00  0.0000000E+00  0.6172840E-02
    1      -13.749799
    2      -13.576347
    3      -13.575865
    4      -13.388381
    5      -12.447227
    6      -12.286899
    7      -12.286449
    8      -12.114366
    9      -11.177749
   10      -11.030563
   11      -11.030124
   12      -10.873520
   13       -9.376091
   14       -9.252784
   15       -9.252346
   16       -9.123641
   17       -6.869131
   18       -6.784082
   19       -6.781505
   20       -6.692126
   21       -5.193458
   22       -5.115734
   23       -5.114581
   24       -5.034715
   25       -4.187022
   26       -4.125316
   27       -4.122878
   28       -4.056012
   29       -3.943433
   30       -3.866910
   31       -3.864796
   32       -3.785743
   33       -2.753205
   34       -2.702107
   35       -2.700856
   36       -2.646071
   37       -2.524898
   38       -1.532266
   39       -1.530461
   40       -1.068985
   41       -1.023814
   42       -1.020168
   43       -0.979432
   44       -0.973030
   45       -0.822406
   46       -0.786123
   47       -0.783240
   48       -0.746294
   49       -0.313477
   50       -0.048667
   51       -0.046738
   52        0.313460
   53        0.340880
   54        0.345484
   55        0.373488
   56        0.504253
   57        1.069484
   58        1.353858
   59        1.355806
   60        2.347910
   61        2.494718
   62        3.162193
   63        3.164965
   64        3.819744
   65        6.378357
   66        6.665164
   67        6.669150
   68        7.080712
   69        8.334178
   70        8.724985
   71        8.727518
   72        9.158643
   73       10.167687
   74       10.577588
   75       10.580079
   76       10.697401
   77       11.102631
   78       12.234551
   79       12.948254
   80       13.097228
   81       13.099397
   82       13.152215
   83       13.159271
   84       13.287464
 
  0.4444444E+00  0.1111111E+00  0.0000000E+00  0.6172840E-02
    1      -13.169323
    2      -13.166277
    3      -13.002887
    4      -13.000387
    5      -12.999431
    6      -12.996953
    7      -12.820657
    8      -12.817536
    9      -11.248497
   10      -11.100769
   11      -11.100323
   12      -10.942788
   13       -9.431599
   14       -9.305844
   15       -9.305474
   16       -9.173588
   17       -6.351660
   18       -6.296271
   19       -6.293843
   20       -6.242059
   21       -4.713443
   22       -4.700434
   23       -4.669799
   24       -4.668388
   25       -4.666077
   26       -4.664124
   27       -4.624416
   28       -4.620982
   29       -3.160771
   30       -3.132140
   31       -3.128981
   32       -3.091774
   33       -2.479721
   34       -2.476449
   35       -2.418216
   36       -2.417706
   37       -2.416212
   38       -2.411265
   39       -2.353342
   40       -2.349435
   41       -1.829621
   42       -1.827126
   43       -0.863618
   44       -0.860446
   45       -0.859684
   46       -0.857414
   47       -0.296927
   48       -0.290427
   49       -0.264748
   50       -0.257913
   51       -0.255689
   52       -0.255330
   53       -0.225244
   54       -0.220884
   55        0.315333
   56        0.318179
   57        0.431345
   58        1.290214
   59        1.292223
   60        2.302108
   61        2.478841
   62        3.185268
   63        3.187593
   64        3.944798
   65        6.360116
   66        6.733990
   67        6.737124
   68        7.135578
   69        8.555609
   70        8.901714
   71        8.904704
   72        9.247821
   73       11.391560
   74       11.393407
   75       11.771961
   76       11.775796
   77       12.071061
   78       12.073694
   79       12.074753
   80       12.079630
   81       12.499197
   82       12.502507
   83       13.184180
   84       13.190899
 
 -0.4444444E+00  0.1111111E+00  0.0000000E+00  0.6172840E-02
    1      -13.750566
    2      -13.577121
    3      -13.576637
    4      -13.389144
    5      -12.446039
    6      -12.285695
    7      -12.285243
    8      -12.113168
    9      -11.179527
   10      -11.032422
   11      -11.031977
   12      -10.875328
   13       -9.373451
   14       -9.249914
   15       -9.249553
   16       -9.120707
   17       -6.860761
   18       -6.774804
   19       -6.773981
   20       -6.683975
   21       -5.204927
   22       -5.127643
   23       -5.124983
   24       -5.045448
   25       -4.199165
   26       -4.136869
   27       -4.136140
   28       -4.068681
   29       -3.945636
   30       -3.869300
   31       -3.866818
   32       -3.787959
   33       -2.738836
   34       -2.688335
   35       -2.685274
   36       -2.631129
   37       -2.525638
   38       -1.532983
   39       -1.531187
   40       -1.068929
   41       -1.023178
   42       -1.021009
   43       -0.978840
   44       -0.972893
   45       -0.820346
   46       -0.784234
   47       -0.780947
   48       -0.744301
   49       -0.314172
   50       -0.047645
   51       -0.045680
   52        0.313723
   53        0.341359
   54        0.344421
   55        0.372946
   56        0.502913
   57        1.070441
   58        1.352122
   59        1.354239
   60        2.345571
   61        2.495138
   62        3.164968
   63        3.167021
   64        3.826901
   65        6.378709
   66        6.668921
   67        6.671360
   68        7.081934
   69        8.328578
   70        8.719843
   71        8.723262
   72        9.156829
   73       10.168306
   74       10.577037
   75       10.579742
   76       10.696373
   77       11.101292
   78       12.235858
   79       12.945094
   80       13.094775
   81       13.096875
   82       13.156306
   83       13.162270
   84       13.342545
 
 -0.3333333E+00  0.1111111E+00  0.0000000E+00  0.6172840E-02
    1      -14.190059
    2      -14.012217
    3      -14.011721
    4      -13.819000
    5      -11.592892
    6      -11.441521
    7      -11.441092
    8      -11.279365
    9      -10.971633
   10      -10.827181
   11      -10.826749
   12      -10.672806
   13       -9.223456
   14       -9.112062
   15       -9.111734
   16       -8.999712
   17       -7.627190
   18       -7.542490
   19       -7.542162
   20       -7.445561
   21       -6.008789
   22       -5.915484
   23       -5.913339
   24       -5.815733
   25       -5.399626
   26       -5.309269
   27       -5.307224
   28       -5.212792
   29       -3.264204
   30       -3.203045
   31       -3.202809
   32       -3.138883
   33       -3.055492
   34       -2.044185
   35       -2.042292
   36       -2.035652
   37       -1.988049
   38       -1.985339
   39       -1.936333
   40       -1.237677
   41       -1.199411
   42       -1.196456
   43       -1.157590
   44       -0.799216
   45        0.005397
   46        0.179052
   47        0.207915
   48        0.210059
   49        0.237953
   50        0.714759
   51        0.875190
   52        0.877333
   53        0.945746
   54        0.965294
   55        0.967586
   56        0.988449
   57        1.534467
   58        1.536760
   59        1.895376
   60        2.469303
   61        2.507403
   62        3.077357
   63        3.079354
   64        3.515001
   65        6.442061
   66        6.550627
   67        6.552799
   68        6.984038
   69        7.818733
   70        8.261907
   71        8.265639
   72        8.598949
   73        8.849751
   74        9.070660
   75        9.073785
   76        9.695933
   77       10.169171
   78       12.673064
   79       12.907514
   80       12.909649
   81       12.924704
   82       12.927541
   83       13.039723
   84       13.511160
 
 -0.2222222E+00  0.1111111E+00  0.0000000E+00  0.6172840E-02
    1      -14.484265
    2      -14.303436
    3      -14.302931
    4      -14.106749
    5      -10.629931
    6      -10.622930
    7      -10.489878
    8      -10.489473
    9      -10.482803
   10      -10.482390
   11      -10.340696
   12      -10.333538
   13       -9.161511
   14       -9.081567
   15       -9.081339
   16       -9.018464
   17       -8.082789
   18       -8.046127
   19       -8.045976
   20       -7.978971
   21       -6.793136
   22       -6.784400
   23       -6.691821
   24       -6.689849
   25       -6.683011
   26       -6.681100
   27       -6.582967
   28       -6.574355
   29       -3.411712
   30       -2.388824
   31       -2.386924
   32       -2.354899
   33       -2.303834
   34       -2.303664
   35       -2.251204
   36       -1.524759
   37       -1.504801
   38       -1.485214
   39       -1.482502
   40       -1.465263
   41       -1.462644
   42       -1.442257
   43       -1.422359
   44       -1.127395
   45        1.055297
   46        1.059257
   47        1.128954
   48        1.147316
   49        1.147557
   50        1.164280
   51        1.501121
   52        1.514483
   53        1.514793
   54        1.529645
   55        1.820506
   56        1.823055
   57        1.825761
   58        1.828210
   59        2.378771
   60        2.645944
   61        2.653041
   62        2.876723
   63        2.878747
   64        3.185390
   65        6.488693
   66        6.542482
   67        6.544657
   68        7.052373
   69        7.257960
   70        7.265433
   71        7.690324
   72        7.694332
   73        7.699962
   74        7.703705
   75        8.376337
   76        8.384337
   77        9.817579
   78       12.530129
   79       12.566110
   80       12.657519
   81       12.678896
   82       12.767639
   83       12.772538
   84       12.802967
 
 -0.1111111E+00  0.1111111E+00  0.0000000E+00  0.6172840E-02
    1      -14.631707
    2      -14.449422
    3      -14.448914
    4      -14.250951
    5      -10.165984
    6      -10.033667
    7      -10.033265
    8       -9.894295
    9       -9.607948
   10       -9.605783
   11       -9.493780
   12       -9.491012
   13       -9.490957
   14       -9.489072
   15       -9.376240
   16       -9.373701
   17       -7.977949
   18       -7.975954
   19       -7.887676
   20       -7.886914
   21       -7.886858
   22       -7.883718
   23       -7.783517
   24       -7.781569
   25       -7.475754
   26       -7.372241
   27       -7.370215
   28       -7.259808
   29       -3.590675
   30       -2.562172
   31       -2.560265
   32       -1.671802
   33       -1.669154
   34       -1.632012
   35       -1.628234
   36       -1.628224
   37       -1.627113
   38       -1.587818
   39       -1.585516
   40       -1.349792
   41       -1.313691
   42       -1.311097
   43       -1.292775
   44       -1.274818
   45        1.499126
   46        1.652202
   47        1.669221
   48        1.674353
   49        1.690402
   50        1.818270
   51        1.832686
   52        1.837518
   53        1.853040
   54        1.988826
   55        1.990931
   56        2.178246
   57        2.181109
   58        2.556014
   59        2.560410
   60        2.560896
   61        2.562011
   62        2.830045
   63        2.996368
   64        2.999148
   65        6.554799
   66        6.557914
   67        6.746655
   68        6.748194
   69        6.748489
   70        6.753791
   71        6.805908
   72        7.147695
   73        7.152006
   74        7.383422
   75        7.385952
   76        7.850590
   77        9.642490
   78       12.191095
   79       12.428942
   80       12.429649
   81       12.447052
   82       12.451046
   83       12.519659
   84       12.530851
 
 -0.2710505E-19  0.2222222E+00  0.0000000E+00  0.6172840E-02
    1      -14.410341
    2      -14.230321
    3      -14.229819
    4      -14.034481
    5      -11.173609
    6      -11.026624
    7      -11.026196
    8      -10.869811
    9       -9.966856
   10       -9.960915
   11       -9.837432
   12       -9.836388
   13       -9.830750
   14       -9.829768
   15       -9.699907
   16       -9.693587
   17       -7.305175
   18       -7.294634
   19       -7.205594
   20       -7.202784
   21       -7.194591
   22       -7.191911
   23       -7.095973
   24       -7.085266
   25       -6.140854
   26       -6.042504
   27       -6.042208
   28       -5.939296
   29       -3.322253
   30       -2.302197
   31       -2.300298
   32       -2.281066
   33       -2.261457
   34       -2.231734
   35       -2.229236
   36       -2.212047
   37       -2.209659
   38       -2.178231
   39       -2.158665
   40       -1.154394
   41       -1.117751
   42       -1.117627
   43       -1.080844
   44       -1.044747
   45        0.466373
   46        0.838592
   47        0.867471
   48        0.867813
   49        0.896795
   50        1.294963
   51        1.296858
   52        1.381833
   53        1.404296
   54        1.404435
   55        1.427051
   56        1.754199
   57        1.757052
   58        2.239333
   59        2.430807
   60        2.432682
   61        2.436442
   62        2.438272
   63        3.084165
   64        3.093004
   65        6.762609
   66        6.767386
   67        7.073551
   68        7.078100
   69        7.083500
   70        7.087800
   71        7.677280
   72        7.686642
   73        7.896404
   74        8.379844
   75        8.381890
   76        9.070833
   77        9.905429
   78       12.276457
   79       12.506145
   80       12.506901
   81       12.718423
   82       12.721989
   83       12.724447
   84       13.342324
 
  0.1111111E+00  0.2222222E+00  0.0000000E+00  0.6172840E-02
    1      -14.189527
    2      -14.011675
    3      -14.011180
    4      -13.818467
    5      -11.594372
    6      -11.442995
    7      -11.442546
    8      -11.280845
    9      -10.968010
   10      -10.823524
   11      -10.823110
   12      -10.669113
   13       -9.229091
   14       -9.118604
   15       -9.117772
   16       -9.006883
   17       -7.633716
   18       -7.550748
   19       -7.548140
   20       -7.453050
   21       -5.996154
   22       -5.902729
   23       -5.901006
   24       -5.803301
   25       -5.398313
   26       -5.307114
   27       -5.306781
   28       -5.211516
   29       -3.248408
   30       -3.188056
   31       -3.185938
   32       -3.122964
   33       -3.054937
   34       -2.055478
   35       -2.043617
   36       -2.041732
   37       -2.007755
   38       -2.005346
   39       -1.956131
   40       -1.237819
   41       -1.198275
   42       -1.198020
   43       -1.157939
   44       -0.798679
   45        0.004570
   46        0.182025
   47        0.210820
   48        0.213612
   49        0.241476