   32   32    1    1
  0.9079817E+01  0.4932875E-09  0.4932875E-09  0.1379404E-08  0.5000000E-15
  1.000000000000000E-004
  CAR 
 graphite                                
    128    163     84
 
  0.0000000E+00  0.0000000E+00  0.0000000E+00  0.3086420E-02
    1      -15.167143
    2      -15.050025
    3      -15.049180
    4      -14.925354
    5       -9.860134
    6       -9.849458
    7       -9.847097
    8       -9.813518
    9       -9.812385
   10       -9.801645
   11       -9.800699
   12       -9.800661
   13       -9.796403
   14       -9.772041
   15       -9.759562
   16       -9.756465
   17       -8.789824
   18       -8.788259
   19       -8.786612
   20       -8.762901
   21       -8.762620
   22       -8.760187
   23       -8.760077
   24       -8.759954
   25       -8.757121
   26       -8.721241
   27       -8.720816
   28       -8.718836
   29       -3.950069
   30       -3.176647
   31       -3.175039
   32       -2.245057
   33       -1.962367
   34       -1.960125
   35       -1.944923
   36       -1.940848
   37       -1.940837
   38       -1.940807
   39       -1.936437
   40       -1.923867
   41       -1.922143
   42       -1.919548
   43       -1.916872
   44       -1.901605
   45        1.430313
   46        1.435863
   47        1.436384
   48        1.441019
   49        1.448091
   50        1.451993
   51        1.452452
   52        1.458271
   53        1.743308
   54        1.746494
   55        1.748099
   56        2.078846
   57        2.081615
   58        2.088656
   59        2.089015
   60        2.089251
   61        2.093743
   62        2.324872
   63        2.341457
   64        2.343993
   65        5.945111
   66        5.948146
   67        5.953248
   68        6.096693
   69        6.098741
   70        6.101061
   71        6.102949
   72        6.103196
   73        6.105785
   74        6.549543
   75        6.556405
   76        6.558889
   77        8.527465
   78       10.953454
   79       10.956874
   80       11.670126
   81       11.673870
   82       11.705728
   83       11.828522
   84       11.830085
 
  0.1111111E+00  0.0000000E+00  0.0000000E+00  0.6172840E-02
    1      -15.093549
    2      -14.976957
    3      -14.976116
    4      -14.852878
    5      -10.639086
    6      -10.556769
    7      -10.555776
    8      -10.470869
    9      -10.103583
   10      -10.094658
   11      -10.032926
   12      -10.032496
   13      -10.023755
   14      -10.022446
   15       -9.961327
   16       -9.951398
   17       -8.478106
   18       -8.473934
   19       -8.422413
   20       -8.419772
   21       -8.416957
   22       -8.415570
   23       -8.358749
   24       -8.353970
   25       -7.960802
   26       -7.896594
   27       -7.895566
   28       -7.828705
   29       -3.860816
   30       -3.089577
   31       -3.087966
   32       -2.188050
   33       -2.171228
   34       -2.164664
   35       -2.163784
   36       -2.160882
   37       -2.147852
   38       -2.146332
   39       -2.140093
   40       -2.123008
   41       -1.888066
   42       -1.868594
   43       -1.865278
   44       -1.845482
   45        1.134979
   46        1.145968
   47        1.149599
   48        1.158161
   49        1.171345
   50        1.276537
   51        1.283632
   52        1.288213
   53        1.297637
   54        1.631640
   55        1.636022
   56        1.661977
   57        1.665109
   58        2.027345
   59        2.030006
   60        2.036535
   61        2.038113
   62        2.155864
   63        2.364379
   64        2.379017
   65        6.035165
   66        6.038994
   67        6.228073
   68        6.231720
   69        6.233745
   70        6.236539
   71        6.346995
   72        6.640545
   73        6.643825
   74        6.684124
   75        6.692017
   76        7.147000
   77        8.617329
   78       11.033882
   79       11.037260
   80       11.712458
   81       11.866679
   82       11.868460
   83       12.006277
   84       12.034472
 
  0.2222222E+00  0.0000000E+00  0.0000000E+00  0.6172840E-02
    1      -14.873184
    2      -14.758094
    3      -14.757264
    4      -14.635775
    5      -11.648768
    6      -11.556551
    7      -11.555770
    8      -11.459874
    9      -10.448340
   10      -10.442393
   11      -10.367488
   12      -10.367245
   13      -10.361696
   14      -10.360305
   15      -10.283503
   16      -10.277194
   17       -7.796207
   18       -7.788863
   19       -7.735046
   20       -7.732542
   21       -7.726817
   22       -7.725559
   23       -7.668473
   24       -7.661006
   25       -6.635808
   26       -6.576117
   27       -6.575176
   28       -6.513542
   29       -3.593868
   30       -2.829184
   31       -2.827573
   32       -2.793680
   33       -2.777674
   34       -2.764562
   35       -2.763950
   36       -2.748723
   37       -2.747340
   38       -2.734099
   39       -2.717937
   40       -1.909872
   41       -1.673145
   42       -1.654019
   43       -1.650623
   44       -1.631279
   45        0.160868
   46        0.312348
   47        0.328033
   48        0.331279
   49        0.346788
   50        0.772099
   51        0.774506
   52        0.857053
   53        0.867524
   54        0.872352
   55        0.883924
   56        1.418938
   57        1.423365
   58        1.462712
   59        1.906711
   60        1.909219
   61        1.914200
   62        1.915668
   63        2.396549
   64        2.406963
   65        6.301522
   66        6.303595
   67        6.562086
   68        6.565257
   69        6.567786
   70        6.570727
   71        6.995519
   72        7.001154
   73        7.499743
   74        7.863687
   75        7.866278
   76        8.359809
   77        8.887547
   78       11.274413
   79       11.277650
   80       11.826109
   81       11.975176
   82       11.977171
   83       12.106120
   84       12.859208
 
  0.3333333E+00  0.2775558E-16  0.0000000E+00  0.6172840E-02
    1      -14.507162
    2      -14.394601
    3      -14.393791
    4      -14.275178
    5      -12.560698
    6      -12.461897
    7      -12.461136
    8      -12.357621
    9      -10.703828
   10      -10.700154
   11      -10.619159
   12      -10.618914
   13      -10.615782
   14      -10.614171
   15      -10.530901
   16      -10.527082
   17       -6.989116
   18       -6.980114
   19       -6.932977
   20       -6.930373
   21       -6.923332
   22       -6.921763
   23       -6.872414
   24       -6.863533
   25       -5.203830
   26       -5.152366
   27       -5.151199
   28       -5.098465
   29       -3.608345
   30       -3.594355
   31       -3.573555
   32       -3.573349
   33       -3.559978
   34       -3.558512
   35       -3.537457
   36       -3.523280
   37       -3.151947
   38       -2.398813
   39       -2.397181
   40       -1.495808
   41       -1.323946
   42       -1.305888
   43       -1.302332
   44       -1.283668
   45       -0.871416
   46       -0.855781
   47       -0.844900
   48       -0.843912
   49       -0.819940
   50       -0.182011
   51       -0.180004
   52        0.294488
   53        0.307838
   54        0.312429
   55        0.326422
   56        0.604275
   57        1.233507
   58        1.236882
   59        1.783254
   60        1.785735
   61        1.788761
   62        1.790115
   63        2.383381
   64        2.389751
   65        6.671027
   66        6.674216
   67        6.953226
   68        6.955670
   69        6.957880
   70        6.961383
   71        7.313264
   72        7.316826
   73        9.008602
   74        9.332461
   75        9.343550
   76        9.347934
   77        9.775891
   78       11.662930
   79       11.665844
   80       11.683047
   81       12.058957
   82       12.139084
   83       12.141401
   84       12.385977
 
  0.4444444E+00  0.0000000E+00  0.0000000E+00  0.6172840E-02
    1      -13.997297
    2      -13.888304
    3      -13.887531
    4      -13.772914
    5      -13.346701
    6      -13.242365
    7      -13.241571
    8      -13.132076
    9      -10.835444
   10      -10.833455
   11      -10.749580
   12      -10.749100
   13      -10.748057
   14      -10.745955
   15      -10.659337
   16      -10.657289
   17       -6.241408
   18       -6.234626
   19       -6.201498
   20       -6.198672
   21       -6.194751
   22       -6.191824
   23       -6.158583
   24       -6.152327
   25       -4.358465
   26       -4.350702
   27       -4.329917
   28       -4.328781
   29       -4.321977
   30       -4.320187
   31       -4.297280
   32       -4.288885
   33       -3.724841
   34       -3.682671
   35       -3.681140
   36       -3.638020
   37       -2.540273
   38       -2.254787
   39       -2.222032
   40       -2.219942
   41       -2.186325
   42       -1.804203
   43       -1.802485
   44       -1.768248
   45       -1.057993
   46       -1.056198
   47       -0.926276
   48       -0.857811
   49       -0.840595
   50       -0.836814
   51       -0.819287
   52       -0.302477
   53       -0.286929
   54       -0.282658
   55       -0.266521
   56       -0.216172
   57        1.130637
   58        1.132815
   59        1.709076
   60        1.711852
   61        1.712942
   62        1.714374
   63        2.361976
   64        2.365031
   65        6.959901
   66        6.962665
   67        7.220819
   68        7.222096
   69        7.223070
   70        7.227590
   71        7.494919
   72        7.497649
   73        9.966804
   74       10.626910
   75       10.766160
   76       10.878917
   77       10.882055
   78       11.242745
   79       12.047750
   80       12.055670
   81       12.213167
   82       12.275050
   83       12.311676
   84       12.315145
 
  0.0000000E+00  0.1111111E+00  0.0000000E+00  0.6172840E-02
    1      -15.093547
    2      -14.976957
    3      -14.976112
    4      -14.852876
    5      -10.639190
    6      -10.556775
    7      -10.556009
    8      -10.471006
    9      -10.103586
   10      -10.094336
   11      -10.032867
   12      -10.032499
   13      -10.023752
   14      -10.021770
   15       -9.961297
   16       -9.951026
   17       -8.478443
   18       -8.474961
   19       -8.422418
   20       -8.421238
   21       -8.416976
   22       -8.416469
   23       -8.359018
   24       -8.354747
   25       -7.959803
   26       -7.895582
   27       -7.894682
   28       -7.827799
   29       -3.860820
   30       -3.089579
   31       -3.087973
   32       -2.186875
   33       -2.170951
   34       -2.164661
   35       -2.161551
   36       -2.160855
   37       -2.147877
   38       -2.146332
   39       -2.138945
   40       -2.123084
   41       -1.889109
   42       -1.868597
   43       -1.867659
   44       -1.846897
   45        1.139892
   46        1.149502
   47        1.149609
   48        1.159063
   49        1.171225
   50        1.275063
   51        1.283627
   52        1.284325
   53        1.292853
   54        1.631716
   55        1.636949
   56        1.661761
   57        1.663438
   58        2.027728
   59        2.029974
   60        2.036622
   61        2.040145
   62        2.154663
   63        2.364476
   64        2.380338
   65        6.033273
   66        6.038724
   67        6.227866
   68        6.230088
   69        6.233278
   70        6.234730
   71        6.348995
   72        6.643053
   73        6.644707
   74        6.683983
   75        6.690231
   76        7.148615
   77        8.617324
   78       11.033864
   79       11.037241
   80       11.711844
   81       11.866628
   82       11.867667
   83       12.012797
   84       12.029079
 
  0.1111111E+00  0.1111111E+00  0.0000000E+00  0.6172840E-02
    1      -14.946477
    2      -14.830871
    3      -14.830037
    4      -14.707964
    5      -11.103745
    6      -11.100805
    7      -11.016770
    8      -11.014644
    9      -11.014620
   10      -11.010864
   11      -10.924115
   12      -10.921123
   13       -9.671139
   14       -9.625063
   15       -9.624429
   16       -9.584873
   17       -8.603983
   18       -8.579706
   19       -8.575790
   20       -8.539905
   21       -7.277834
   22       -7.274560
   23       -7.216568
   24       -7.213418
   25       -7.213395
   26       -7.210237
   27       -7.149691
   28       -7.146575
   29       -3.682594
   30       -2.915722
   31       -2.914107
   32       -2.852817
   33       -2.823706
   34       -2.822285
   35       -2.792634
   36       -2.043287
   37       -2.040948
   38       -2.020290
   39       -2.019692
   40       -2.019685
   41       -2.015156
   42       -1.996425
   43       -1.993433
   44       -1.993202
   45        0.606639
   46        0.617416
   47        0.620822
   48        0.629260
   49        0.741028
   50        0.742750
   51        0.962029
   52        0.967815
   53        0.972363
   54        0.981697
   55        1.301895
   56        1.303291
   57        1.303492
   58        1.307264
   59        1.911472
   60        1.913932
   61        2.010548
   62        2.345410
   63        2.347737
   64        2.587046
   65        5.928942
   66        6.023880
   67        6.028845
   68        6.389589
   69        6.843462
   70        6.846245
   71        7.182483
   72        7.186158
   73        7.186493
   74        7.188300
   75        7.675740
   76        7.678266
   77        8.797680
   78       11.195335
   79       11.198628
   80       12.083360
   81       12.087447
   82       12.237837
   83       12.240090
   84       12.243173
 
  0.2222222E+00  0.1111111E+00  0.0000000E+00  0.6172840E-02
    1      -14.653161
    2      -14.539603
    3      -14.538787
    4      -14.419016
    5      -12.067956
    6      -11.972614
    7      -11.971851
    8      -11.872508
    9      -11.444066
   10      -11.353666
   11      -11.352760
   12      -11.258346
   13       -9.718180
   14       -9.650165
   15       -9.649961
   16       -9.581601
   17       -8.131489
   18       -8.080080
   19       -8.076718
   20       -8.020740
   21       -6.492664
   22       -6.435644
   23       -6.434552
   24       -6.376064
   25       -5.896045
   26       -5.840924
   27       -5.839985
   28       -5.783666
   29       -3.759723
   30       -3.723902
   31       -3.722534
   32       -3.685836
   33       -3.327967
   34       -2.570120
   35       -2.569122
   36       -2.568238
   37       -2.540773
   38       -2.540282
   39       -2.511563
   40       -1.755362
   41       -1.734333
   42       -1.731003
   43       -1.709646
   44       -1.660390
   45       -0.345723
   46       -0.329469
   47       -0.325354
   48       -0.310150
   49       -0.292079
   50        0.351488
   51        0.353483
   52        0.409061
   53        0.418855
   54        0.428308
   55        0.433843
   56        0.445828
   57        1.014874
   58        1.016328
   59        1.095128
   60        1.697979
   61        2.151718
   62        2.548022
   63        2.550252
   64        2.883966
   65        5.913964
   66        6.031830
   67        6.036566
   68        6.341075
   69        7.424910
   70        7.755737
   71        7.757737
   72        8.175424
   73        8.207166
   74        8.554892
   75        8.557103
   76        9.002610
   77        9.159191
   78       11.516309
   79       11.519395
   80       12.167761
   81       12.350615
   82       12.376849
   83       12.378806
   84       12.693784
 
  0.3333333E+00  0.1111111E+00  0.0000000E+00  0.6172840E-02
    1      -14.215069
    2      -14.104593
    3      -14.103804
    4      -13.987492
    5      -12.917408
    6      -12.816058
    7      -12.815274
    8      -12.709079
    9      -11.652731
   10      -11.560673
   11      -11.559756
   12      -11.463536
   13       -9.860373
   14       -9.784245
   15       -9.783682
   16       -9.705159
   17       -7.365499
   18       -7.314139
   19       -7.310939
   20       -7.257850
   21       -5.694574
   22       -5.648065
   23       -5.646260
   24       -5.598995
   25       -4.697949
   26       -4.660405
   27       -4.658856
   28       -4.619641
   29       -4.448146
   30       -4.402076
   31       -4.400917
   32       -4.353839
   33       -3.267746
   34       -3.237078
   35       -3.236737
   36       -3.204701
   37       -2.800820
   38       -2.057556
   39       -2.055934
   40       -1.589014
   41       -1.562622
   42       -1.559575
   43       -1.533966
   44       -1.339114
   45       -1.319369
   46       -1.315928
   47       -1.295866
   48       -1.264133
   49       -1.167984
   50       -0.572586
   51       -0.570755
   52       -0.205286
   53       -0.190932
   54       -0.186002
   55       -0.170802
   56        0.202058
   57        0.241948
   58        0.830600
   59        0.832007
   60        1.553380
   61        2.157464
   62        2.638882
   63        2.640746
   64        3.128561
   65        5.932965
   66        6.150436
   67        6.154499
   68        6.441163
   69        7.931235
   70        8.210444
   71        8.212833
   72        8.519073
   73        9.699711
   74        9.770682
   75       10.061111
   76       10.063339
   77       10.434304
   78       11.299406
   79       11.969189
   80       11.972186
   81       12.476112
   82       12.541116
   83       12.543420
   84       12.767791
 
  0.4444444E+00  0.1111111E+00  0.0000000E+00  0.6172840E-02
    1      -13.636768
    2      -13.633850
    3      -13.530910
    4      -13.529305
    5      -13.528342
    6      -13.525291
    7      -13.417748
    8      -13.414794
    9      -11.723265
   10      -11.630718
   11      -11.629792
   12      -11.533026
   13       -9.914804
   14       -9.837139
   15       -9.836401
   16       -9.755943
   17       -6.859293
   18       -6.827034
   19       -6.824009
   20       -6.793283
   21       -5.225050
   22       -5.223850
   23       -5.204542
   24       -5.203020
   25       -5.198217
   26       -5.194585
   27       -5.178235
   28       -5.169255
   29       -3.686631
   30       -3.668523
   31       -3.666386
   32       -3.645071
   33       -2.991958
   34       -2.987670
   35       -2.956629
   36       -2.952707
   37       -2.950733
   38       -2.950286
   39       -2.916406
   40       -2.913024
   41       -2.109839
   42       -2.107408
   43       -1.387750
   44       -1.386163
   45       -1.385381
   46       -1.382124
   47       -0.813372
   48       -0.809224
   49       -0.794159
   50       -0.793913
   51       -0.791949
   52       -0.785233
   53       -0.773865
   54       -0.766228
   55       -0.528572
   56       -0.525827
   57        0.130830
   58        0.766748
   59        0.768134
   60        1.501850
   61        2.149045
   62        2.662630
   63        2.664138
   64        3.217220
   65        5.955271
   66        6.217646
   67        6.220835
   68        6.496758
   69        8.147711
   70        8.387576
   71        8.390464
   72        8.630203
   73       10.416479
   74       10.418099
   75       11.355343
   76       11.358875
   77       11.544575
   78       11.549833
   79       11.550854
   80       11.554512
   81       11.859569
   82       11.863027
   83       12.530880
   84       12.534665
 
 -0.4444444E+00  0.1111111E+00  0.0000000E+00  0.6172840E-02
    1      -14.215827
    2      -14.105344
    3      -14.104537
    4      -13.988237
    5      -12.916232
    6      -12.814873
    7      -12.814110
    8      -12.707968
    9      -11.654499
   10      -11.562388
   11      -11.561465
   12      -11.465322
   13       -9.857443
   14       -9.781278
   15       -9.780473
   16       -9.701905
   17       -7.358886
   18       -7.306691
   19       -7.305194
   20       -7.251328
   21       -5.704439
   22       -5.658446
   23       -5.655166
   24       -5.608383
   25       -4.708483
   26       -4.670451
   27       -4.670289
   28       -4.630685
   29       -4.450703
   30       -4.404806
   31       -4.403301
   32       -4.356407
   33       -3.255091
   34       -3.225022
   35       -3.222939
   36       -3.191613
   37       -2.801629
   38       -2.058337
   39       -2.056754
   40       -1.587491
   41       -1.560663
   42       -1.558947
   43       -1.532902
   44       -1.336642
   45       -1.317089
   46       -1.313219
   47       -1.293310
   48       -1.262964
   49       -1.168778
   50       -0.571460
   51       -0.569546
   52       -0.206717
   53       -0.191928
   54       -0.188340
   55       -0.173101
   56        0.200304
   57        0.243041
   58        0.828516
   59        0.829916
   60        1.550743
   61        2.159261
   62        2.642738
   63        2.644113
   64        3.135568
   65        5.931951
   66        6.152325
   67        6.154702
   68        6.441696
   69        7.927207
   70        8.206385
   71        8.209736
   72        8.517246
   73        9.698632
   74        9.770506
   75       10.060029
   76       10.062521
   77       10.432713
   78       11.301041
   79       11.968358
   80       11.971329
   81       12.473464
   82       12.538700
   83       12.541794
   84       12.764471
 
 -0.3333333E+00  0.1111111E+00  0.0000000E+00  0.6172840E-02
    1      -14.653687
    2      -14.540134
    3      -14.539304
    4      -14.419552
    5      -12.066427
    6      -11.971284
    7      -11.970529
    8      -11.871114
    9      -11.447645
   10      -11.357263
   11      -11.356370
   12      -11.261979
   13       -9.711614
   14       -9.643416
   15       -9.642593
   16       -9.573956
   17       -8.127119
   18       -8.074118
   19       -8.073147
   20       -8.015683
   21       -6.502545
   22       -6.446294
   23       -6.443488
   24       -6.385749
   25       -5.898516
   26       -5.843545
   27       -5.842416
   28       -5.786139
   29       -3.773508
   30       -3.737442
   31       -3.736734
   32       -3.699769
   33       -3.328553
   34       -2.570669
   35       -2.569075
   36       -2.552885
   37       -2.525260
   38       -2.523515
   39       -2.495333
   40       -1.753418
   41       -1.732493
   42       -1.728965
   43       -1.707694
   44       -1.660969
   45       -0.346287
   46       -0.329931
   47       -0.328261
   48       -0.312341
   49       -0.290751
   50        0.352685
   51        0.354802
   52        0.405638
   53        0.420902
   54        0.430993
   55        0.434386
   56        0.445289
   57        1.010761
   58        1.012218
   59        1.096250
   60        1.692618
   61        2.154360
   62        2.555106
   63        2.556587
   64        2.897151
   65        5.910096
   66        6.034863
   67        6.036747
   68        6.344392
   69        7.420231
   70        7.749378
   71        7.753078
   72        8.171050
   73        8.206503
   74        8.553484
   75        8.556045
   76        9.000847
   77        9.158399
   78       11.515477
   79       11.518555
   80       12.167069
   81       12.350383
   82       12.374745
   83       12.377213
   84       12.692344
 
 -0.2222222E+00  0.1111111E+00  0.0000000E+00  0.6172840E-02
    1      -14.946798
    2      -14.831198
    3      -14.830355
    4      -14.708289
    5      -11.107681
    6      -11.100644
    7      -11.020164
    8      -11.019354
    9      -11.013075
   10      -11.012234
   11      -10.928429
   12      -10.921114
   13       -9.660039
   14       -9.613132
   15       -9.612319
   16       -9.571776
   17       -8.603962
   18       -8.577590
   19       -8.576767
   20       -8.538784
   21       -7.283844
   22       -7.278803
   23       -7.222381
   24       -7.219728
   25       -7.216549
   26       -7.215569
   27       -7.155885
   28       -7.150923
   29       -3.682949
   30       -2.916069
   31       -2.914469
   32       -2.868302
   33       -2.839060
   34       -2.838201
   35       -2.808275
   36       -2.040213
   37       -2.025474
   38       -2.018498
   39       -2.015158
   40       -2.002890
   41       -2.001228
   42       -1.993635
   43       -1.993091
   44       -1.978456
   45        0.601209
   46        0.610880
   47        0.611548
   48        0.620916
   49        0.736753
   50        0.743514
   51        0.970544
   52        0.977647
   53        0.978384
   54        0.986153
   55        1.296704
   56        1.298290
   57        1.304235
   58        1.306957
   59        1.903948
   60        1.914099
   61        2.013428
   62        2.354308
   63        2.355947
   64        2.603663
   65        5.923321
   66        6.027693
   67        6.029412
   68        6.395882
   69        6.842693
   70        6.843382
   71        7.178792
   72        7.182483
   73        7.182828
   74        7.185525
   75        7.671683
   76        7.674549
   77        8.797190
   78       11.194785
   79       11.198075
   80       12.084441
   81       12.117391
   82       12.239439
   83       12.254653
   84       12.273882
 
 -0.1111111E+00  0.1111111E+00  0.0000000E+00  0.6172840E-02
    1      -15.093653
    2      -14.977064
    3      -14.976216
    4      -14.852981
    5      -10.646757
    6      -10.564443
    7      -10.563840
    8      -10.478894
    9      -10.094235
   10      -10.092136
   11      -10.023445
   12      -10.022355
   13      -10.022322
   14      -10.018962
   15       -9.951199
   16       -9.948813
   17       -8.477228
   18       -8.475241
   19       -8.420725
   20       -8.418571
   21       -8.418548
   22       -8.417078
   23       -8.357172
   24       -8.355472
   25       -7.965550
   26       -7.902263
   27       -7.899508
   28       -7.833615
   29       -3.860939
   30       -3.089696
   31       -3.088094
   32       -2.188102
   33       -2.185997
   34       -2.164577
   35       -2.164265
   36       -2.164256
   37       -2.161063
   38       -2.159863
   39       -2.140479
   40       -2.137752
   41       -1.871967
   42       -1.851591
   43       -1.850004
   44       -1.829471
   45        1.129350
   46        1.137485
   47        1.141810
   48        1.150619
   49        1.165971
   50        1.282391
   51        1.292575
   52        1.295776
   53        1.303616
   54        1.636267
   55        1.638044
   56        1.654083
   57        1.655774
   58        2.036506
   59        2.037279
   60        2.037443
   61        2.041847
   62        2.143293
   63        2.378549
   64        2.381090
   65        6.032774
   66        6.035893
   67        6.229024
   68        6.233548
   69        6.233762
   70        6.235185
   71        6.348860
   72        6.636993
   73        6.641352
   74        6.688659
   75        6.691169
   76        7.141987
   77        8.617157
   78       11.033671
   79       11.037049
   80       11.745284
   81       11.900088
   82       11.901870
   83       12.006814
   84       12.027606
 
  0.0000000E+00  0.2222222E+00  0.0000000E+00  0.6172840E-02
    1      -14.873177
    2      -14.758094
    3      -14.757250
    4      -14.635768
    5      -11.648750
    6      -11.556550
    7      -11.555738
    8      -11.459861
    9      -10.448513
   10      -10.442179
   11      -10.367807
   12      -10.367358
   13      -10.361694
   14      -10.359655
   15      -10.283602
   16      -10.276920
   17       -7.796574
   18       -7.789726
   19       -7.735051
   20       -7.733781
   21       -7.726837
   22       -7.726408
   23       -7.668726
   24       -7.661654
   25       -6.634887
   26       -6.575192
   27       -6.574323
   28       -6.512681
   29       -3.593886
   30       -2.829196
   31       -2.827600
   32       -2.792556
   33       -2.777536
   34       -2.764556
   35       -2.761629
   36       -2.748610
   37       -2.747339
   38       -2.732843
   39       -2.717895
   40       -1.909899
   41       -1.674244
   42       -1.654022
   43       -1.653136
   44       -1.632783
   45        0.160426
   46        0.315376
   47        0.331281
   48        0.332159
   49        0.348396
   50        0.771927
   51        0.773559
   52        0.855497
   53        0.867519
   54        0.868311
   55        0.880284
   56        1.418993
   57        1.424243
   58        1.461996
   59        1.907080
   60        1.909173
   61        1.914256
   62        1.917562
   63        2.396714
   64        2.408157
   65        6.300139
   66        6.302872
   67        6.561716
   68        6.563274
   69        6.567683
   70        6.569098
   71        6.994772
   72        6.999819
   73        7.501252
   74        7.865453
   75        7.867106
   76        8.361039
   77        8.887534
   78       11.274344
   79       11.277580
   80       11.825454
   81       11.975115
   82       11.975891
   83       12.105449
   84       12.860629
 
  0.1111111E+00  0.2222222E+00  0.0000000E+00  0.6172840E-02
    1      -14.653155
    2      -14.539603
    3      -14.538776
    4      -14.419011
    5      -12.067917
    6      -11.972612
    7      -11.971775
    8      -11.872470
    9      -11.444095
   10      -11.353667
   11      -11.352812
   12      -11.258370
   13       -9.718170
   14       -9.650158
   15       -9.649948
   16       -9.581590
   17       -8.131552
   18       -8.080080
   19       -8.076877
   20       -8.020838
   21       -6.493672
   22       -6.436527
   23       -6.435631
   24       -6.377023
   25       -5.895038
   26       -5.839998
   27       -5.838957
   28       -5.782715
   29       -3.759630
   30       -3.723749
   31       -3.722534
   32       -3.685772
   33       -3.327981
   34       -2.570116
   35       -2.568613
   36       -2.567585
   37       -2.540767
   38       -2.537726
   39       -2.510166
   40       -1.756562
   41       -1.734337
   42       -1.733675
   43       -1.711189
   44       -1.660411
   45       -0.343812
   46       -0.327724
   47       -0.325352
   48       -0.309667
   49       -0.292337