 vasp.5.3.5 31Mar14 (build Nov 02 2014 15:17:37) complex                        
  
 executed on        ion-Intel-MKL date 2016.10.19  03:51:39
 running on    3 total cores
 distrk:  each k-point on    3 cores,    1 groups
 distr:  one band on NCORES_PER_BAND=   1 cores,    3 groups


--------------------------------------------------------------------------------------------------------


 INCAR:
 POTCAR:   PAW_PBE C 08Apr2002                    
 POTCAR:   PAW_PBE C 08Apr2002                    
   VRHFIN =C: s2p2                                                              
   LEXCH  = PE                                                                  
   EATOM  =   147.1560 eV,   10.8157 Ry                                         
                                                                                
   TITEL  = PAW_PBE C 08Apr2002                                                 
   LULTRA =        F    use ultrasoft PP ?                                      
   IUNSCR =        0    unscreen: 0-lin 1-nonlin 2-no                           
   RPACOR =     .000    partial core radius                                     
   POMASS =   12.011; ZVAL   =    4.000    mass and valenz                      
   RCORE  =    1.500    outmost cutoff radius                                   
   RWIGS  =    1.630; RWIGS  =     .863    wigner-seitz radius (au A)           
   ENMAX  =  400.000; ENMIN  =  300.000 eV                                      
   ICORE  =        2    local potential                                         
   LCOR   =        T    correct aug charges                                     
   LPAW   =        T    paw PP                                                  
   EAUG   =  644.873                                                            
   DEXC   =     .000                                                            
   RMAX   =    2.266    core radius for proj-oper                               
   RAUG   =    1.300    factor for augmentation sphere                          
   RDEP   =    1.501    radius for radial grids                                 
   RDEPT  =    1.300    core radius for aug-charge                              
   QCUT   =   -5.516; QGAM   =   11.032    optimization parameters              
                                                                                
   Description                                                                  
     l     E      TYP  RCUT    TYP  RCUT                                        
     0   .000     23  1.200                                                     
     0   .000     23  1.200                                                     
     1   .000     23  1.500                                                     
     1  2.500     23  1.500                                                     
     2   .000      7  1.500                                                     
  local pseudopotential read in
  atomic valenz-charges read in
  non local Contribution for L=           0  read in
    real space projection operators read in
  non local Contribution for L=           0  read in
    real space projection operators read in
  non local Contribution for L=           1  read in
    real space projection operators read in
  non local Contribution for L=           1  read in
    real space projection operators read in
    PAW grid and wavefunctions read in
 
   number of l-projection  operators is LMAX  =           4
   number of lm-projection operators is LMMAX =           8
 
 PAW_PBE C 08Apr2002                    :
 energy of atom  1       EATOM= -147.1560
 kinetic energy error for atom=    0.0016 (will be added to EATOM!!)
 
 
 POSCAR: C                                       
  positions in direct lattice
  No initial velocities read in
 exchange correlation table for  LEXCH =        8
   RHO(1)=    0.500       N(1)  =     2000
   RHO(2)=  100.500       N(2)  =     4000
 


--------------------------------------------------------------------------------------------------------


 ion  position               nearest neighbor table
   1  0.500  0.000  0.042-  12 1.42  10 1.42  11 1.42
   2  1.000  0.000  0.041-   9 1.42  12 1.42  11 1.42
   3  0.500  0.500  0.041-  12 1.42   9 1.42  10 1.42
   4  1.000  0.500  0.041-  11 1.42  10 1.42   9 1.42
   5  0.500  0.000  0.541-  14 1.42  15 1.42  16 1.42
   6  1.000  0.000  0.541-  13 1.42  16 1.42  15 1.42
   7  0.500  0.500  0.541-  16 1.42  13 1.42  14 1.42
   8  1.000  0.500  0.541-  15 1.42  14 1.42  13 1.42
   9  0.166  0.334  0.041-   2 1.42   3 1.42   4 1.42
  10  0.666  0.334  0.041-   4 1.42   1 1.42   3 1.42
  11  0.166  0.834  0.041-   4 1.42   2 1.42   1 1.42
  12  0.666  0.834  0.041-   1 1.42   3 1.42   2 1.42
  13  0.166  0.334  0.541-   6 1.42   7 1.42   8 1.42
  14  0.666  0.334  0.541-   5 1.42   8 1.42   7 1.42
  15  0.166  0.834  0.541-   8 1.42   5 1.42   6 1.42
  16  0.666  0.834  0.541-   7 1.42   6 1.42   5 1.42
 
  LATTYP: Found a base centered orthorhombic cell.
 ALAT       =     4.9295499439
 B/A-ratio  =     1.7336082085
 C/A-ratio  =     8.1143310150
  
  Lattice vectors:
  
 A1 = (   4.9328746796,   0.0000000000,   0.0000000000)
 A2 = (  -2.4697609550,   4.2700741714,   0.0000000000)
 A3 = (   0.0000000000,   0.0000000000,  40.0000000000)


Analysis of symmetry for initial positions (statically):
=====================================================================
 Subroutine PRICEL returns:
 Original cell was already a primitive cell.
 

 Routine SETGRP: Setting up the symmetry group for a 
 base centered orthorhombic supercell.


 Subroutine GETGRP returns: Found  1 space group operations
 (whereof  1 operations were pure point group operations)
 out of a pool of  8 trial point group operations.


The static configuration has the point symmetry C_1 .


Analysis of symmetry for dynamics (positions and initial velocities):
=====================================================================
 Subroutine PRICEL returns:
 Original cell was already a primitive cell.
 

 Routine SETGRP: Setting up the symmetry group for a 
 base centered orthorhombic supercell.


 Subroutine GETGRP returns: Found  1 space group operations
 (whereof  1 operations were pure point group operations)
 out of a pool of  8 trial point group operations.


The dynamic configuration has the point symmetry C_1 .
 
 
 KPOINTS: B4C B11C-CBC                            

Automatic generation of k-mesh.
Space group operators:
 irot       det(A)        alpha          n_x          n_y          n_z        tau_x        tau_y        tau_z
    1     1.000000     0.000000     1.000000     0.000000     0.000000     0.000000     0.000000     0.000000
 
 Subroutine IBZKPT returns following result:
 ===========================================
 
 Found     76 irreducible k-points:
 
 Following reciprocal coordinates:
            Coordinates               Weight
  0.000000  0.000000  0.000000      1.000000
  0.166667  0.000000  0.000000      2.000000
  0.333333  0.000000  0.000000      2.000000
  0.500000  0.000000  0.000000      1.000000
  0.000000  0.166667  0.000000      2.000000
  0.166667  0.166667  0.000000      2.000000
  0.333333  0.166667  0.000000      2.000000
  0.500000  0.166667  0.000000      2.000000
 -0.333333  0.166667  0.000000      2.000000
 -0.166667  0.166667  0.000000      2.000000
  0.000000  0.333333  0.000000      2.000000
  0.166667  0.333333  0.000000      2.000000
  0.333333  0.333333  0.000000      2.000000
  0.500000  0.333333  0.000000      2.000000
 -0.333333  0.333333  0.000000      2.000000
 -0.166667  0.333333  0.000000      2.000000
  0.000000  0.500000  0.000000      1.000000
  0.166667  0.500000  0.000000      2.000000
  0.333333  0.500000  0.000000      2.000000
  0.500000  0.500000  0.000000      1.000000
  0.000000  0.000000  0.250000      2.000000
  0.166667  0.000000  0.250000      2.000000
  0.333333  0.000000  0.250000      2.000000
  0.500000  0.000000  0.250000      2.000000
 -0.333333 -0.000000  0.250000      2.000000
 -0.166667 -0.000000  0.250000      2.000000
  0.000000  0.166667  0.250000      2.000000
  0.166667  0.166667  0.250000      2.000000
  0.333333  0.166667  0.250000      2.000000
  0.500000  0.166667  0.250000      2.000000
 -0.333333  0.166667  0.250000      2.000000
 -0.166667  0.166667  0.250000      2.000000
  0.000000  0.333333  0.250000      2.000000
  0.166667  0.333333  0.250000      2.000000
  0.333333  0.333333  0.250000      2.000000
  0.500000  0.333333  0.250000      2.000000
 -0.333333  0.333333  0.250000      2.000000
 -0.166667  0.333333  0.250000      2.000000
  0.000000  0.500000  0.250000      2.000000
  0.166667  0.500000  0.250000      2.000000
  0.333333  0.500000  0.250000      2.000000
  0.500000  0.500000  0.250000      2.000000
 -0.333333  0.500000  0.250000      2.000000
 -0.166667  0.500000  0.250000      2.000000
  0.000000 -0.333333  0.250000      2.000000
  0.166667 -0.333333  0.250000      2.000000
  0.333333 -0.333333  0.250000      2.000000
  0.500000 -0.333333  0.250000      2.000000
 -0.333333 -0.333333  0.250000      2.000000
 -0.166667 -0.333333  0.250000      2.000000
  0.000000 -0.166667  0.250000      2.000000
  0.166667 -0.166667  0.250000      2.000000
  0.333333 -0.166667  0.250000      2.000000
  0.500000 -0.166667  0.250000      2.000000
 -0.333333 -0.166667  0.250000      2.000000
 -0.166667 -0.166667  0.250000      2.000000
  0.000000  0.000000  0.500000      1.000000
  0.166667  0.000000  0.500000      2.000000
  0.333333  0.000000  0.500000      2.000000
  0.500000  0.000000  0.500000      1.000000
  0.000000  0.166667  0.500000      2.000000
  0.166667  0.166667  0.500000      2.000000
  0.333333  0.166667  0.500000      2.000000
  0.500000  0.166667  0.500000      2.000000
 -0.333333  0.166667  0.500000      2.000000
 -0.166667  0.166667  0.500000      2.000000
  0.000000  0.333333  0.500000      2.000000
  0.166667  0.333333  0.500000      2.000000
  0.333333  0.333333  0.500000      2.000000
  0.500000  0.333333  0.500000      2.000000
 -0.333333  0.333333  0.500000      2.000000
 -0.166667  0.333333  0.500000      2.000000
  0.000000  0.500000  0.500000      1.000000
  0.166667  0.500000  0.500000      2.000000
  0.333333  0.500000  0.500000      2.000000
  0.500000  0.500000  0.500000      1.000000
 
 Following cartesian coordinates:
            Coordinates               Weight
  0.000000  0.000000  0.000000      1.000000
  0.033787  0.019542  0.000000      2.000000
  0.067574  0.039084  0.000000      2.000000
  0.101361  0.058626  0.000000      1.000000
  0.000000  0.039031  0.000000      2.000000
  0.033787  0.058573  0.000000      2.000000
  0.067574  0.078115  0.000000      2.000000
  0.101361  0.097657  0.000000      2.000000
 -0.067574 -0.000053  0.000000      2.000000
 -0.033787  0.019489  0.000000      2.000000
  0.000000  0.078063  0.000000      2.000000
  0.033787  0.097605  0.000000      2.000000
  0.067574  0.117147  0.000000      2.000000
  0.101361  0.136689  0.000000      2.000000
 -0.067574  0.038979  0.000000      2.000000
 -0.033787  0.058521  0.000000      2.000000
  0.000000  0.117094  0.000000      1.000000
  0.033787  0.136636  0.000000      2.000000
  0.067574  0.156178  0.000000      2.000000
  0.101361  0.175720  0.000000      1.000000
  0.000000  0.000000  0.006250      2.000000
  0.033787  0.019542  0.006250      2.000000
  0.067574  0.039084  0.006250      2.000000
  0.101361  0.058626  0.006250      2.000000
 -0.067574 -0.039084  0.006250      2.000000
 -0.033787 -0.019542  0.006250      2.000000
  0.000000  0.039031  0.006250      2.000000
  0.033787  0.058573  0.006250      2.000000
  0.067574  0.078115  0.006250      2.000000
  0.101361  0.097657  0.006250      2.000000
 -0.067574 -0.000053  0.006250      2.000000
 -0.033787  0.019489  0.006250      2.000000
  0.000000  0.078063  0.006250      2.000000
  0.033787  0.097605  0.006250      2.000000
  0.067574  0.117147  0.006250      2.000000
  0.101361  0.136689  0.006250      2.000000
 -0.067574  0.038979  0.006250      2.000000
 -0.033787  0.058521  0.006250      2.000000
  0.000000  0.117094  0.006250      2.000000
  0.033787  0.136636  0.006250      2.000000
  0.067574  0.156178  0.006250      2.000000
  0.101361  0.175720  0.006250      2.000000
 -0.067574  0.078010  0.006250      2.000000
 -0.033787  0.097552  0.006250      2.000000
  0.000000 -0.078063  0.006250      2.000000
  0.033787 -0.058521  0.006250      2.000000
  0.067574 -0.038979  0.006250      2.000000
  0.101361 -0.019437  0.006250      2.000000
 -0.067574 -0.117147  0.006250      2.000000
 -0.033787 -0.097605  0.006250      2.000000
  0.000000 -0.039031  0.006250      2.000000
  0.033787 -0.019489  0.006250      2.000000
  0.067574  0.000053  0.006250      2.000000
  0.101361  0.019595  0.006250      2.000000
 -0.067574 -0.078115  0.006250      2.000000
 -0.033787 -0.058573  0.006250      2.000000
  0.000000  0.000000  0.012500      1.000000
  0.033787  0.019542  0.012500      2.000000
  0.067574  0.039084  0.012500      2.000000
  0.101361  0.058626  0.012500      1.000000
  0.000000  0.039031  0.012500      2.000000
  0.033787  0.058573  0.012500      2.000000
  0.067574  0.078115  0.012500      2.000000
  0.101361  0.097657  0.012500      2.000000
 -0.067574 -0.000053  0.012500      2.000000
 -0.033787  0.019489  0.012500      2.000000
  0.000000  0.078063  0.012500      2.000000
  0.033787  0.097605  0.012500      2.000000
  0.067574  0.117147  0.012500      2.000000
  0.101361  0.136689  0.012500      2.000000
 -0.067574  0.038979  0.012500      2.000000
 -0.033787  0.058521  0.012500      2.000000
  0.000000  0.117094  0.012500      1.000000
  0.033787  0.136636  0.012500      2.000000
  0.067574  0.156178  0.012500      2.000000
  0.101361  0.175720  0.012500      1.000000
 
 TETIRR: Found    432 inequivalent tetrahedra from      864


--------------------------------------------------------------------------------------------------------




 Dimension of arrays:
   k-points           NKPTS =     76   k-points in BZ     NKDIM =     76   number of bands    NBANDS=     42
   number of dos      NEDOS =    301   number of ions     NIONS =     16
   non local maximal  LDIM  =      4   non local SUM 2l+1 LMDIM =      8
   total plane-waves  NPLWV = 870912
   max r-space proj   IRMAX =      1   max aug-charges    IRDMAX=  12396
   dimension x,y,z NGX =    48 NGY =   48 NGZ =  378
   dimension x,y,z NGXF=    96 NGYF=   96 NGZF=  756
   support grid    NGXF=    96 NGYF=   96 NGZF=  756
   ions per type =              16
 NGX,Y,Z   is equivalent  to a cutoff of  16.18, 16.18, 15.71 a.u.
 NGXF,Y,Z  is equivalent  to a cutoff of  32.35, 32.35, 31.42 a.u.


 I would recommend the setting:
   dimension x,y,z NGX =    46 NGY =   46 NGZ =  369
 SYSTEM =  graphite                                
 POSCAR =  C                                       

 Startparameter for this run:
   NWRITE =      2    write-flag & timer
   PREC   = accura    normal or accurate (medium, high low for compatibility)
   ISTART =      0    job   : 0-new  1-cont  2-samecut
   ICHARG =      2    charge: 1-file 2-atom 10-const
   ISPIN  =      1    spin polarized calculation?
   LNONCOLLINEAR =      F non collinear calculations
   LSORBIT =      F    spin-orbit coupling
   INIWAV =      1    electr: 0-lowe 1-rand  2-diag
   LASPH  =      F    aspherical Exc in radial PAW
   METAGGA=      F    non-selfconsistent MetaGGA calc.

 Electronic Relaxation 1
   ENCUT  =  800.0 eV  58.80 Ry    7.67 a.u.  11.38 11.38 92.25*2*pi/ulx,y,z
   ENINI  =  800.0     initial cutoff
   ENAUG  =  644.9 eV  augmentation charge cutoff
   NELM   =    200;   NELMIN=  2; NELMDL=  0     # of ELM steps 
   EDIFF  = 0.1E-07   stopping-criterion for ELM
   LREAL  =      F    real-space projection
   NLSPLINE    = F    spline interpolate recip. space projectors
   LCOMPAT=      F    compatible to vasp.4.4
   GGA_COMPAT  = T    GGA compatible to vasp.4.4-vasp.4.6
   LMAXPAW     = -100 max onsite density
   LMAXMIX     =    2 max onsite mixed and CHGCAR
   VOSKOWN=      0    Vosko Wilk Nusair interpolation
   ROPT   =    0.00000
 Ionic relaxation
   EDIFFG = 0.1E-02   stopping-criterion for IOM
   NSW    =      0    number of steps for IOM
   NBLOCK =      1;   KBLOCK =      1    inner block; outer block 
   IBRION =     -1    ionic relax: 0-MD 1-quasi-New 2-CG
   NFREE  =      0    steps in history (QN), initial steepest desc. (CG)
   ISIF   =      2    stress and relaxation
   IWAVPR =     10    prediction:  0-non 1-charg 2-wave 3-comb
   ISYM   =      2    0-nonsym 1-usesym 2-fastsym
   LCORR  =      T    Harris-Foulkes like correction to forces

   POTIM  = 0.5000    time-step for ionic-motion
   TEIN   =    0.0    initial temperature
   TEBEG  =    0.0;   TEEND  =   0.0 temperature during run
   SMASS  =  -3.00    Nose mass-parameter (am)
   estimated Nose-frequenzy (Omega)   =  0.10E-29 period in steps =****** mass=  -0.556E-27a.u.
   SCALEE = 1.0000    scale energy and forces
   NPACO  =    256;   APACO  = 16.0  distance and # of slots for P.C.
   PSTRESS=    0.0 pullay stress

  Mass of Ions in am
   POMASS =  12.01
  Ionic Valenz
   ZVAL   =   4.00
  Atomic Wigner-Seitz radii
   RWIGS  =  -1.00
  virtual crystal weights 
   VCA    =   1.00
   NELECT =      64.0000    total number of electrons
   NUPDOWN=      -1.0000    fix difference up-down

 DOS related values:
   EMIN   =  10.00;   EMAX   =-10.00  energy-range for DOS
   EFERMI =   0.00
   ISMEAR =    -5;   SIGMA  =   0.20  broadening in eV -4-tet -1-fermi 0-gaus

 Electronic relaxation 2 (details)
   IALGO  =     38    algorithm
   LDIAG  =      T    sub-space diagonalisation (order eigenvalues)
   LSUBROT=      F    optimize rotation matrix (better conditioning)
   TURBO    =      0    0=normal 1=particle mesh
   IRESTART =      0    0=no restart 2=restart with 2 vectors
   NREBOOT  =      0    no. of reboots
   NMIN     =      0    reboot dimension
   EREF     =   0.00    reference energy to select bands
   IMIX   =      4    mixing-type and parameters
     AMIX     =   0.40;   BMIX     =  1.00
     AMIX_MAG =   1.60;   BMIX_MAG =  1.00
     AMIN     =   0.10
     WC   =   100.;   INIMIX=   1;  MIXPRE=   1;  MAXMIX= -45

 Intra band minimization:
   WEIMIN = 0.0000     energy-eigenvalue tresh-hold
   EBREAK =  0.60E-10  absolut break condition
   DEPER  =   0.30     relativ break condition  

   TIME   =   0.40     timestep for ELM

  volume/ion in A,a.u.               =      52.66       355.36
  Fermi-wavevector in a.u.,A,eV,Ry     =   0.693324  1.310193  6.540298  0.480698
  Thomas-Fermi vector in A             =   1.775506
 
 Write flags
   LWAVE  =      F    write WAVECAR
   LCHARG =      F    write CHGCAR
   LVTOT  =      F    write LOCPOT, total local potential
   LVHAR  =      F    write LOCPOT, Hartree potential only
   LELF   =      F    write electronic localiz. function (ELF)
   LORBIT =      0    0 simple, 1 ext, 2 COOP (PROOUT)


 Dipole corrections
   LMONO  =      F    monopole corrections only (constant potential shift)
   LDIPOL =      F    correct potential (dipole corrections)
   IDIPOL =      0    1-x, 2-y, 3-z, 4-all directions 
   EPSILON=  1.0000000 bulk dielectric constant

 Exchange correlation treatment:
   GGA     =    PE    GGA type
   LEXCH   =     8    internal setting for exchange type
   VOSKOWN=      0    Vosko Wilk Nusair interpolation
   LHFCALC =     F    Hartree Fock is set to
   LHFONE  =     F    Hartree Fock one center treatment
   AEXX    =    0.0000 exact exchange contribution

 Linear response parameters
   LEPSILON=     F    determine dielectric tensor
   LRPA    =     F    only Hartree local field effects (RPA)
   LNABLA  =     F    use nabla operator in PAW spheres
   LVEL    =     F    velocity operator in full k-point grid
   LINTERFAST=   F  fast interpolation
   KINTER  =     0    interpolate to denser k-point grid
   CSHIFT  =0.1000    complex shift for real part using Kramers Kronig
   OMEGAMAX=  -1.0    maximum frequency
   DEG_THRESHOLD= 0.2000000E-02 threshold for treating states as degnerate
   RTIME   =    0.100 relaxation time in fs

 Orbital magnetization related:
   ORBITALMAG=     F  switch on orbital magnetization
   LCHIMAG   =     F  perturbation theory with respect to B field
   DQ        =  0.001000  dq finite difference perturbation B field



--------------------------------------------------------------------------------------------------------


 Static calculation
 charge density and potential will be updated during run
 non-spin polarized calculation
 Variant of blocked Davidson
 Davidson routine will perform the subspace rotation
 perform sub-space diagonalisation
    after iterative eigenvector-optimisation
 modified Broyden-mixing scheme, WC =      100.0
 initial mixing is a Kerker type mixing with AMIX =  0.4000 and BMIX =      1.0000
 Hartree-type preconditioning will be used
 using additional bands           10
 reciprocal scheme for non local part
 calculate Harris-corrections to forces 
   (improved forces if not selfconsistent)
 use gradient corrections 
 use of overlap-Matrix (Vanderbilt PP)
 Fermi weights with tetrahedron method with Bloechl corrections


--------------------------------------------------------------------------------------------------------


  energy-cutoff  :      800.00
  volume of cell :      842.55
      direct lattice vectors                 reciprocal lattice vectors
     4.932874680  0.000000000  0.000000000     0.202721550  0.117251773  0.000000000
    -2.469760955  4.270074171  0.000000000     0.000000000  0.234187970  0.000000000
     0.000000000  0.000000000 40.000000000     0.000000000  0.000000000  0.025000000

  length of vectors
     4.932874680  4.932874680 40.000000000     0.234187970  0.234187970  0.025000000


 
 k-points in units of 2pi/SCALE and weight: B4C B11C-CBC                            
   0.00000000  0.00000000  0.00000000       0.007
   0.03378692  0.01954196  0.00000000       0.014
   0.06757385  0.03908392  0.00000000       0.014
   0.10136077  0.05862589  0.00000000       0.007
   0.00000000  0.03903133  0.00000000       0.014
   0.03378692  0.05857329  0.00000000       0.014
   0.06757385  0.07811525  0.00000000       0.014
   0.10136077  0.09765721  0.00000000       0.014
  -0.06757385 -0.00005260  0.00000000       0.014
  -0.03378692  0.01948937  0.00000000       0.014
   0.00000000  0.07806266  0.00000000       0.014
   0.03378692  0.09760462  0.00000000       0.014
   0.06757385  0.11714658  0.00000000       0.014
   0.10136077  0.13668854  0.00000000       0.014
  -0.06757385  0.03897873  0.00000000       0.014
  -0.03378692  0.05852069  0.00000000       0.014
   0.00000000  0.11709398  0.00000000       0.007
   0.03378692  0.13663595  0.00000000       0.014
   0.06757385  0.15617791  0.00000000       0.014
   0.10136077  0.17571987  0.00000000       0.007
   0.00000000  0.00000000  0.00625000       0.014
   0.03378692  0.01954196  0.00625000       0.014
   0.06757385  0.03908392  0.00625000       0.014
   0.10136077  0.05862589  0.00625000       0.014
  -0.06757385 -0.03908392  0.00625000       0.014
  -0.03378692 -0.01954196  0.00625000       0.014
   0.00000000  0.03903133  0.00625000       0.014
   0.03378692  0.05857329  0.00625000       0.014
   0.06757385  0.07811525  0.00625000       0.014
   0.10136077  0.09765721  0.00625000       0.014
  -0.06757385 -0.00005260  0.00625000       0.014
  -0.03378692  0.01948937  0.00625000       0.014
   0.00000000  0.07806266  0.00625000       0.014
   0.03378692  0.09760462  0.00625000       0.014
   0.06757385  0.11714658  0.00625000       0.014
   0.10136077  0.13668854  0.00625000       0.014
  -0.06757385  0.03897873  0.00625000       0.014
  -0.03378692  0.05852069  0.00625000       0.014
   0.00000000  0.11709398  0.00625000       0.014
   0.03378692  0.13663595  0.00625000       0.014
   0.06757385  0.15617791  0.00625000       0.014
   0.10136077  0.17571987  0.00625000       0.014
  -0.06757385  0.07801006  0.00625000       0.014
  -0.03378692  0.09755202  0.00625000       0.014
   0.00000000 -0.07806266  0.00625000       0.014
   0.03378692 -0.05852069  0.00625000       0.014
   0.06757385 -0.03897873  0.00625000       0.014
   0.10136077 -0.01943677  0.00625000       0.014
  -0.06757385 -0.11714658  0.00625000       0.014
  -0.03378692 -0.09760462  0.00625000       0.014
   0.00000000 -0.03903133  0.00625000       0.014
   0.03378692 -0.01948937  0.00625000       0.014
   0.06757385  0.00005260  0.00625000       0.014
   0.10136077  0.01959456  0.00625000       0.014
  -0.06757385 -0.07811525  0.00625000       0.014
  -0.03378692 -0.05857329  0.00625000       0.014
   0.00000000  0.00000000  0.01250000       0.007
   0.03378692  0.01954196  0.01250000       0.014
   0.06757385  0.03908392  0.01250000       0.014
   0.10136077  0.05862589  0.01250000       0.007
   0.00000000  0.03903133  0.01250000       0.014
   0.03378692  0.05857329  0.01250000       0.014
   0.06757385  0.07811525  0.01250000       0.014
   0.10136077  0.09765721  0.01250000       0.014
  -0.06757385 -0.00005260  0.01250000       0.014
  -0.03378692  0.01948937  0.01250000       0.014
   0.00000000  0.07806266  0.01250000       0.014
   0.03378692  0.09760462  0.01250000       0.014
   0.06757385  0.11714658  0.01250000       0.014
   0.10136077  0.13668854  0.01250000       0.014
  -0.06757385  0.03897873  0.01250000       0.014
  -0.03378692  0.05852069  0.01250000       0.014
   0.00000000  0.11709398  0.01250000       0.007
   0.03378692  0.13663595  0.01250000       0.014
   0.06757385  0.15617791  0.01250000       0.014
   0.10136077  0.17571987  0.01250000       0.007
 
 k-points in reciprocal lattice and weights: B4C B11C-CBC                            
   0.00000000  0.00000000  0.00000000       0.007
   0.16666667  0.00000000  0.00000000       0.014
   0.33333333  0.00000000  0.00000000       0.014
   0.50000000  0.00000000  0.00000000       0.007
   0.00000000  0.16666667  0.00000000       0.014
   0.16666667  0.16666667  0.00000000       0.014
   0.33333333  0.16666667  0.00000000       0.014
   0.50000000  0.16666667  0.00000000       0.014
  -0.33333333  0.16666667  0.00000000       0.014
  -0.16666667  0.16666667  0.00000000       0.014
   0.00000000  0.33333333  0.00000000       0.014
   0.16666667  0.33333333  0.00000000       0.014
   0.33333333  0.33333333  0.00000000       0.014
   0.50000000  0.33333333  0.00000000       0.014
  -0.33333333  0.33333333  0.00000000       0.014
  -0.16666667  0.33333333  0.00000000       0.014
   0.00000000  0.50000000  0.00000000       0.007
   0.16666667  0.50000000  0.00000000       0.014
   0.33333333  0.50000000  0.00000000       0.014
   0.50000000  0.50000000  0.00000000       0.007
   0.00000000  0.00000000  0.25000000       0.014
   0.16666667  0.00000000  0.25000000       0.014
   0.33333333  0.00000000  0.25000000       0.014
   0.50000000  0.00000000  0.25000000       0.014
  -0.33333333 -0.00000000  0.25000000       0.014
  -0.16666667 -0.00000000  0.25000000       0.014
   0.00000000  0.16666667  0.25000000       0.014
   0.16666667  0.16666667  0.25000000       0.014
   0.33333333  0.16666667  0.25000000       0.014
   0.50000000  0.16666667  0.25000000       0.014
  -0.33333333  0.16666667  0.25000000       0.014
  -0.16666667  0.16666667  0.25000000       0.014
   0.00000000  0.33333333  0.25000000       0.014
   0.16666667  0.33333333  0.25000000       0.014
   0.33333333  0.33333333  0.25000000       0.014
   0.50000000  0.33333333  0.25000000       0.014
  -0.33333333  0.33333333  0.25000000       0.014
  -0.16666667  0.33333333  0.25000000       0.014
   0.00000000  0.50000000  0.25000000       0.014
   0.16666667  0.50000000  0.25000000       0.014
   0.33333333  0.50000000  0.25000000       0.014
   0.50000000  0.50000000  0.25000000       0.014
  -0.33333333  0.50000000  0.25000000       0.014
  -0.16666667  0.50000000  0.25000000       0.014
   0.00000000 -0.33333333  0.25000000       0.014
   0.16666667 -0.33333333  0.25000000       0.014
   0.33333333 -0.33333333  0.25000000       0.014
   0.50000000 -0.33333333  0.25000000       0.014
  -0.33333333 -0.33333333  0.25000000       0.014
  -0.16666667 -0.33333333  0.25000000       0.014
   0.00000000 -0.16666667  0.25000000       0.014
   0.16666667 -0.16666667  0.25000000       0.014
   0.33333333 -0.16666667  0.25000000       0.014
   0.50000000 -0.16666667  0.25000000       0.014
  -0.33333333 -0.16666667  0.25000000       0.014
  -0.16666667 -0.16666667  0.25000000       0.014
   0.00000000  0.00000000  0.50000000       0.007
   0.16666667  0.00000000  0.50000000       0.014
   0.33333333  0.00000000  0.50000000       0.014
   0.50000000  0.00000000  0.50000000       0.007
   0.00000000  0.16666667  0.50000000       0.014
   0.16666667  0.16666667  0.50000000       0.014
   0.33333333  0.16666667  0.50000000       0.014
   0.50000000  0.16666667  0.50000000       0.014
  -0.33333333  0.16666667  0.50000000       0.014
  -0.16666667  0.16666667  0.50000000       0.014
   0.00000000  0.33333333  0.50000000       0.014
   0.16666667  0.33333333  0.50000000       0.014
   0.33333333  0.33333333  0.50000000       0.014
   0.50000000  0.33333333  0.50000000       0.014
  -0.33333333  0.33333333  0.50000000       0.014
  -0.16666667  0.33333333  0.50000000       0.014
   0.00000000  0.50000000  0.50000000       0.007
   0.16666667  0.50000000  0.50000000       0.014
   0.33333333  0.50000000  0.50000000       0.014
   0.50000000  0.50000000  0.50000000       0.007
 
 position of ions in fractional coordinates (direct lattice) 
   0.49992143  0.00032672  0.04169656
   0.99967331  0.00032672  0.04144844
   0.49967331  0.50032672  0.04144844
   0.99967331  0.50032672  0.04144844
   0.49967331  0.00032672  0.54144844
   0.99967331  0.00032672  0.54144844
   0.49967331  0.50032672  0.54144844
   0.99967331  0.50032672  0.54144844
   0.16629246  0.33370754  0.04144844
   0.66629246  0.33370754  0.04144844
   0.16629246  0.83370754  0.04144844
   0.66629246  0.83370754  0.04144844
   0.16629246  0.33370754  0.54144844
   0.66629246  0.33370754  0.54144844
   0.16629246  0.83370754  0.54144844
   0.66629246  0.83370754  0.54144844
 
 position of ions in cartesian coordinates  (Angst):
   2.46524283  0.00139511  1.66786246
   4.93045623  0.00139511  1.65793765
   1.22913841  2.13643220  1.65793765
   3.69557575  2.13643220  1.65793765
   2.46401889  0.00139511 21.65793765
   4.93045623  0.00139511 21.65793765
   1.22913841  2.13643220 21.65793765
   3.69557575  2.13643220 21.65793765
  -0.00387800  1.42495595  1.65793765
   2.46255934  1.42495595  1.65793765
  -1.23875847  3.55999304  1.65793765
   1.22767887  3.55999304  1.65793765
  -0.00387800  1.42495595 21.65793765
   2.46255934  1.42495595 21.65793765
  -1.23875847  3.55999304 21.65793765
   1.22767887  3.55999304 21.65793765
 


--------------------------------------------------------------------------------------------------------


 k-point  1 :   0.0000 0.0000 0.0000  plane waves:   43237
 k-point  2 :   0.1667 0.0000 0.0000  plane waves:   43396
 k-point  3 :   0.3333 0.0000 0.0000  plane waves:   43260
 k-point  4 :   0.5000 0.0000 0.0000  plane waves:   43316
 k-point  5 :   0.0000 0.1667 0.0000  plane waves:   43396
 k-point  6 :   0.1667 0.1667 0.0000  plane waves:   43323
 k-point  7 :   0.3333 0.1667 0.0000  plane waves:   43249
 k-point  8 :   0.5000 0.1667 0.0000  plane waves:   43237
 k-point  9 :  -0.3333 0.1667 0.0000  plane waves:   43319
 k-point 10 :  -0.1667 0.1667 0.0000  plane waves:   43392
 k-point 11 :   0.0000 0.3333 0.0000  plane waves:   43260
 k-point 12 :   0.1667 0.3333 0.0000  plane waves:   43249
 k-point 13 :   0.3333 0.3333 0.0000  plane waves:   43252
 k-point 14 :   0.5000 0.3333 0.0000  plane waves:   43247
 k-point 15 :  -0.3333 0.3333 0.0000  plane waves:   43256
 k-point 16 :  -0.1667 0.3333 0.0000  plane waves:   43319
 k-point 17 :   0.0000 0.5000 0.0000  plane waves:   43316
 k-point 18 :   0.1667 0.5000 0.0000  plane waves:   43237
 k-point 19 :   0.3333 0.5000 0.0000  plane waves:   43247
 k-point 20 :   0.5000 0.5000 0.0000  plane waves:   43312
 k-point 21 :   0.0000 0.0000 0.2500  plane waves:   43358
 k-point 22 :   0.1667 0.0000 0.2500  plane waves:   43387
 k-point 23 :   0.3333 0.0000 0.2500  plane waves:   43286
 k-point 24 :   0.5000 0.0000 0.2500  plane waves:   43274
 k-point 25 :  -0.3333-0.0000 0.2500  plane waves:   43286
 k-point 26 :  -0.1667-0.0000 0.2500  plane waves:   43387
 k-point 27 :   0.0000 0.1667 0.2500  plane waves:   43387
 k-point 28 :   0.1667 0.1667 0.2500  plane waves:   43332
 k-point 29 :   0.3333 0.1667 0.2500  plane waves:   43233
 k-point 30 :   0.5000 0.1667 0.2500  plane waves:   43233
 k-point 31 :  -0.3333 0.1667 0.2500  plane waves:   43337
 k-point 32 :  -0.1667 0.1667 0.2500  plane waves:   43387
 k-point 33 :   0.0000 0.3333 0.2500  plane waves:   43286
 k-point 34 :   0.1667 0.3333 0.2500  plane waves:   43233
 k-point 35 :   0.3333 0.3333 0.2500  plane waves:   43214
 k-point 36 :   0.5000 0.3333 0.2500  plane waves:   43231
 k-point 37 :  -0.3333 0.3333 0.2500  plane waves:   43288
 k-point 38 :  -0.1667 0.3333 0.2500  plane waves:   43337
 k-point 39 :   0.0000 0.5000 0.2500  plane waves:   43274
 k-point 40 :   0.1667 0.5000 0.2500  plane waves:   43233
 k-point 41 :   0.3333 0.5000 0.2500  plane waves:   43231
 k-point 42 :   0.5000 0.5000 0.2500  plane waves:   43274
 k-point 43 :  -0.3333 0.5000 0.2500  plane waves:   43231
 k-point 44 :  -0.1667 0.5000 0.2500  plane waves:   43233
 k-point 45 :   0.0000-0.3333 0.2500  plane waves:   43286
 k-point 46 :   0.1667-0.3333 0.2500  plane waves:   43337
 k-point 47 :   0.3333-0.3333 0.2500  plane waves:   43288
 k-point 48 :   0.5000-0.3333 0.2500  plane waves:   43231
 k-point 49 :  -0.3333-0.3333 0.2500  plane waves:   43214
 k-point 50 :  -0.1667-0.3333 0.2500  plane waves:   43233
 k-point 51 :   0.0000-0.1667 0.2500  plane waves:   43387
 k-point 52 :   0.1667-0.1667 0.2500  plane waves:   43387
 k-point 53 :   0.3333-0.1667 0.2500  plane waves:   43337
 k-point 54 :   0.5000-0.1667 0.2500  plane waves:   43233
 k-point 55 :  -0.3333-0.1667 0.2500  plane waves:   43233
 k-point 56 :  -0.1667-0.1667 0.2500  plane waves:   43332
 k-point 57 :   0.0000 0.0000 0.5000  plane waves:   43360
 k-point 58 :   0.1667 0.0000 0.5000  plane waves:   43380
 k-point 59 :   0.3333 0.0000 0.5000  plane waves:   43274
 k-point 60 :   0.5000 0.0000 0.5000  plane waves:   43268
 k-point 61 :   0.0000 0.1667 0.5000  plane waves:   43380
 k-point 62 :   0.1667 0.1667 0.5000  plane waves:   43320
 k-point 63 :   0.3333 0.1667 0.5000  plane waves:   43256
 k-point 64 :   0.5000 0.1667 0.5000  plane waves:   43254
 k-point 65 :  -0.3333 0.1667 0.5000  plane waves:   43332
 k-point 66 :  -0.1667 0.1667 0.5000  plane waves:   43388
 k-point 67 :   0.0000 0.3333 0.5000  plane waves:   43274
 k-point 68 :   0.1667 0.3333 0.5000  plane waves:   43256
 k-point 69 :   0.3333 0.3333 0.5000  plane waves:   43256
 k-point 70 :   0.5000 0.3333 0.5000  plane waves:   43248
 k-point 71 :  -0.3333 0.3333 0.5000  plane waves:   43270
 k-point 72 :  -0.1667 0.3333 0.5000  plane waves:   43332
 k-point 73 :   0.0000 0.5000 0.5000  plane waves:   43268
 k-point 74 :   0.1667 0.5000 0.5000  plane waves:   43254
 k-point 75 :   0.3333 0.5000 0.5000  plane waves:   43248
 k-point 76 :   0.5000 0.5000 0.5000  plane waves:   43256

 maximum and minimum number of plane-waves per node :     43396    43214

 maximum number of plane-waves:     43396
 maximum index in each direction: 
   IXMAX=   11   IYMAX=   11   IZMAX=   92
   IXMIN=  -11   IYMIN=  -11   IZMIN=  -92

 NGX is ok and might be reduce to  46
 NGY is ok and might be reduce to  46
 NGZ is ok and might be reduce to 370

 serial   3D FFT for wavefunctions
 parallel 3D FFT for charge:
    minimum data exchange during FFTs selected (reduces bandwidth)


 total amount of memory used by VASP on root node  1221310. kBytes
========================================================================

   base      :      30000. kBytes
   nonl-proj :     222197. kBytes
   fftplans  :      81515. kBytes
   grid      :     146546. kBytes
   one-center:         49. kBytes
   wavefun   :     741003. kBytes
 
     INWAV:  cpu time    0.00: real time    0.00
 Broyden mixing: mesh for mixing (old mesh)
   NGX = 23   NGY = 23   NGZ =185
  (NGX  = 96   NGY  = 96   NGZ  =756)
  gives a total of  97865 points

 initial charge density was supplied:
 charge density of overlapping atoms calculated
 number of electron      64.0000000 magnetization 
 keeping initial charge density in first step


--------------------------------------------------------------------------------------------------------


 Maximum index for augmentation-charges         3961 (set IRDMAX)


--------------------------------------------------------------------------------------------------------


 First call to EWALD:  gamma=   0.188
 Maximum number of real-space cells 5x 5x 1
 Maximum number of reciprocal cells 2x 2x10

 FEWALD executed in parallel
    FEWALD:  cpu time    0.00: real time    0.00


----------------------------------------- Iteration    1(   1)  ---------------------------------------


    POTLOK:  cpu time    3.36: real time    3.36
    SETDIJ:  cpu time    0.03: real time    0.03
     EDDAV:  cpu time  516.88: real time  517.20
 BZINTS: Fermi energy:  7.986787; 64.000000 electrons
         Band energy:-158.330412;  BLOECHL correction: -0.219090
       DOS:  cpu time    0.05: real time    0.05
    --------------------------------------------
      LOOP:  cpu time  520.33: real time  520.66

 eigenvalue-minimisations  :  6465
 total energy-change (2. order) : 0.7220351E+03  (-0.2737494E+04)
 number of electron      64.0000000 magnetization 
 augmentation part       64.0000000 magnetization 

 Free energy of the ion-electron system (eV)
  ---------------------------------------------------
  alpha Z        PSCENC =        24.75690598
  Ewald energy   TEWEN  =     10359.33382077
  -Hartree energ DENC   =    -12060.23053924
  -exchange      EXHF   =         0.00000000
  -V(xc)+E(xc)   XCENC  =       220.44224133
  PAW double counting   =       605.30308954     -623.71076428
  entropy T*S    EENTRO =         0.00000000
  eigenvalues    EBANDS =      -158.33041229
  atomic energy  EATOM  =      2354.47077523
  ---------------------------------------------------
  free energy    TOTEN  =       722.03511704 eV

  energy without entropy =      722.03511704  energy(sigma->0) =      722.03511704


--------------------------------------------------------------------------------------------------------




----------------------------------------- Iteration    1(   2)  ---------------------------------------


     EDDAV:  cpu time  750.22: real time  750.62
 BZINTS: Fermi energy: -2.433992; 64.000000 electrons
         Band energy:-893.220581;  BLOECHL correction: -0.007337
       DOS:  cpu time    0.04: real time    0.04
    --------------------------------------------
      LOOP:  cpu time  750.26: real time  750.66

 eigenvalue-minimisations  :  9987
 total energy-change (2. order) :-0.7348902E+03  (-0.7032758E+03)
 number of electron      64.0000000 magnetization 
 augmentation part       64.0000000 magnetization 

 Free energy of the ion-electron system (eV)
  ---------------------------------------------------
  alpha Z        PSCENC =        24.75690598
  Ewald energy   TEWEN  =     10359.33382077
  -Hartree energ DENC   =    -12060.23053924
  -exchange      EXHF   =         0.00000000
  -V(xc)+E(xc)   XCENC  =       220.44224133
  PAW double counting   =       605.30308954     -623.71076428
  entropy T*S    EENTRO =         0.00000000
  eigenvalues    EBANDS =      -893.22058147
  atomic energy  EATOM  =      2354.47077523
  ---------------------------------------------------
  free energy    TOTEN  =       -12.85505214 eV

  energy without entropy =      -12.85505214  energy(sigma->0) =      -12.85505214


--------------------------------------------------------------------------------------------------------




----------------------------------------- Iteration    1(   3)  ---------------------------------------


     EDDAV:  cpu time  582.79: real time  583.10
 BZINTS: Fermi energy: -6.236899; 64.000000 electrons
         Band energy:***********;  BLOECHL correction:  0.000000
       DOS:  cpu time    0.02: real time    0.02
    --------------------------------------------
      LOOP:  cpu time  582.81: real time  583.12

 eigenvalue-minimisations  :  7734
 total energy-change (2. order) :-0.1400961E+03  (-0.1396951E+03)
 number of electron      64.0000000 magnetization 
 augmentation part       64.0000000 magnetization 

 Free energy of the ion-electron system (eV)
  ---------------------------------------------------
  alpha Z        PSCENC =        24.75690598
  Ewald energy   TEWEN  =     10359.33382077
  -Hartree energ DENC   =    -12060.23053924
  -exchange      EXHF   =         0.00000000
  -V(xc)+E(xc)   XCENC  =       220.44224133
  PAW double counting   =       605.30308954     -623.71076428
  entropy T*S    EENTRO =         0.00000000
  eigenvalues    EBANDS =     -1033.31670940
  atomic energy  EATOM  =      2354.47077523
  ---------------------------------------------------
  free energy    TOTEN  =      -152.95118007 eV

  energy without entropy =     -152.95118007  energy(sigma->0) =     -152.95118007


--------------------------------------------------------------------------------------------------------




----------------------------------------- Iteration    1(   4)  ---------------------------------------


     EDDAV:  cpu time  606.22: real time  606.54
 BZINTS: Fermi energy: -6.349546; 64.000000 electrons
         Band energy:***********;  BLOECHL correction:  0.000000
       DOS:  cpu time    0.02: real time    0.02
    --------------------------------------------
      LOOP:  cpu time  606.23: real time  606.56

 eigenvalue-minimisations  :  7788
 total energy-change (2. order) :-0.4775144E+01  (-0.4753216E+01)
 number of electron      64.0000000 magnetization 
 augmentation part       64.0000000 magnetization 

 Free energy of the ion-electron system (eV)
  ---------------------------------------------------
  alpha Z        PSCENC =        24.75690598
  Ewald energy   TEWEN  =     10359.33382077
  -Hartree energ DENC   =    -12060.23053924
  -exchange      EXHF   =         0.00000000
  -V(xc)+E(xc)   XCENC  =       220.44224133
  PAW double counting   =       605.30308954     -623.71076428
  entropy T*S    EENTRO =         0.00000000
  eigenvalues    EBANDS =     -1038.09185338
  atomic energy  EATOM  =      2354.47077523
  ---------------------------------------------------
  free energy    TOTEN  =      -157.72632405 eV

  energy without entropy =     -157.72632405  energy(sigma->0) =     -157.72632405


--------------------------------------------------------------------------------------------------------




----------------------------------------- Iteration    1(   5)  ---------------------------------------


     EDDAV:  cpu time  632.12: real time  632.46
 BZINTS: Fermi energy: -6.352367; 64.000000 electrons
         Band energy:***********;  BLOECHL correction:  0.000000
       DOS:  cpu time    0.02: real time    0.02
    CHARGE:  cpu time   37.13: real time   37.15
    MIXING:  cpu time    0.07: real time    0.07
    --------------------------------------------
      LOOP:  cpu time  669.34: real time  669.70

 eigenvalue-minimisations  :  8175
 total energy-change (2. order) :-0.1304143E+00  (-0.1302698E+00)
 number of electron      63.9999995 magnetization 
 augmentation part        1.6991481 magnetization 

 Broyden mixing:
  rms(total) = 0.15628E+01    rms(broyden)= 0.15628E+01
  rms(prec ) = 0.15991E+01
  weight for this iteration     100.00

 Free energy of the ion-electron system (eV)
  ---------------------------------------------------
  alpha Z        PSCENC =        24.75690598
  Ewald energy   TEWEN  =     10359.33382077
  -Hartree energ DENC   =    -12060.23053924
  -exchange      EXHF   =         0.00000000
  -V(xc)+E(xc)   XCENC  =       220.44224133
  PAW double counting   =       605.30308954     -623.71076428
  entropy T*S    EENTRO =         0.00000000
  eigenvalues    EBANDS =     -1038.22226773
  atomic energy  EATOM  =      2354.47077523
  ---------------------------------------------------
  free energy    TOTEN  =      -157.85673840 eV

  energy without entropy =     -157.85673840  energy(sigma->0) =     -157.85673840


--------------------------------------------------------------------------------------------------------




----------------------------------------- Iteration    1(   6)  ---------------------------------------


    POTLOK:  cpu time    2.40: real time    2.40
    SETDIJ:  cpu time    0.03: real time    0.03
     EDDAV:  cpu time  561.01: real time  561.31
 BZINTS: Fermi energy: -5.191387; 64.000000 electrons
         Band energy:-943.856033;  BLOECHL correction:  0.000000
       DOS:  cpu time    0.02: real time    0.02
    CHARGE:  cpu time   35.21: real time   35.22
    MIXING:  cpu time    0.08: real time    0.09
    --------------------------------------------
      LOOP:  cpu time  598.74: real time  599.07

 eigenvalue-minimisations  :  7107
 total energy-change (2. order) : 0.7333646E+01  (-0.6943145E+00)
 number of electron      63.9999995 magnetization 
 augmentation part        1.6293148 magnetization 

 Broyden mixing:
  rms(total) = 0.82614E+00    rms(broyden)= 0.82614E+00
  rms(prec ) = 0.84631E+00
  weight for this iteration     100.00

 eigenvalues of (default mixing * dielectric matrix)
  average eigenvalue GAMMA=   2.0494
  2.0494

 Free energy of the ion-electron system (eV)
  ---------------------------------------------------
  alpha Z        PSCENC =        24.75690598
  Ewald energy   TEWEN  =     10359.33382077
  -Hartree energ DENC   =    -12149.80425063
  -exchange      EXHF   =         0.00000000
  -V(xc)+E(xc)   XCENC  =       224.43619515
  PAW double counting   =       822.48236762     -842.34287361
  entropy T*S    EENTRO =         0.00000000
  eigenvalues    EBANDS =      -943.85603277
  atomic energy  EATOM  =      2354.47077523
  ---------------------------------------------------
  free energy    TOTEN  =      -150.52309227 eV

  energy without entropy =     -150.52309227  energy(sigma->0) =     -150.52309227


--------------------------------------------------------------------------------------------------------




----------------------------------------- Iteration    1(   7)  ---------------------------------------


    POTLOK:  cpu time    2.49: real time    2.50
    SETDIJ:  cpu time    0.03: real time    0.03
     EDDAV:  cpu time  543.54: real time  543.83
 BZINTS: Fermi energy: -3.805655; 64.000000 electrons
         Band energy:-831.347348;  BLOECHL correction:  0.000000
       DOS:  cpu time    0.02: real time    0.02
    CHARGE:  cpu time   27.97: real time   27.99
    MIXING:  cpu time    0.09: real time    0.09
    --------------------------------------------
      LOOP:  cpu time  574.16: real time  574.47

 eigenvalue-minimisations  :  6894
 total energy-change (2. order) : 0.2819862E+01  (-0.8316850E+00)
 number of electron      63.9999995 magnetization 
 augmentation part        1.5456224 magnetization 

 Broyden mixing:
  rms(total) = 0.14783E+00    rms(broyden)= 0.14782E+00
  rms(prec ) = 0.15316E+00
  weight for this iteration     100.00

 eigenvalues of (default mixing * dielectric matrix)
  average eigenvalue GAMMA=   1.9606
  1.9606  1.9606

 Free energy of the ion-electron system (eV)
  ---------------------------------------------------
  alpha Z        PSCENC =        24.75690598
  Ewald energy   TEWEN  =     10359.33382077
  -Hartree energ DENC   =    -12263.21761524
  -exchange      EXHF   =         0.00000000
  -V(xc)+E(xc)   XCENC  =       229.38246820
  PAW double counting   =      1098.77722491    -1119.85946242
  entropy T*S    EENTRO =         0.00000000
  eigenvalues    EBANDS =      -831.34734774
  atomic energy  EATOM  =      2354.47077523
  ---------------------------------------------------
  free energy    TOTEN  =      -147.70323031 eV

  energy without entropy =     -147.70323031  energy(sigma->0) =     -147.70323031


--------------------------------------------------------------------------------------------------------




----------------------------------------- Iteration    1(   8)  ---------------------------------------


    POTLOK:  cpu time    2.42: real time    2.42
    SETDIJ:  cpu time    0.03: real time    0.03
     EDDAV:  cpu time  650.82: real time  651.17
 BZINTS: Fermi energy: -3.550856; 64.000000 electrons
         Band energy:-813.809010;  BLOECHL correction:  0.000000
       DOS:  cpu time    0.02: real time    0.02
    CHARGE:  cpu time   28.63: real time   28.64
    MIXING:  cpu time    0.09: real time    0.09
    --------------------------------------------
      LOOP:  cpu time  682.00: real time  682.37

 eigenvalue-minimisations  :  8853
 total energy-change (2. order) : 0.4132718E-01  (-0.2976188E-01)
 number of electron      63.9999995 magnetization 
 augmentation part        1.5365709 magnetization 

 Broyden mixing:
  rms(total) = 0.83237E-01    rms(broyden)= 0.83235E-01
  rms(prec ) = 0.88206E-01
  weight for this iteration     100.00

 eigenvalues of (default mixing * dielectric matrix)
  average eigenvalue GAMMA=   1.6875
  2.2541  2.2541  0.5542

 Free energy of the ion-electron system (eV)
  ---------------------------------------------------
  alpha Z        PSCENC =        24.75690598
  Ewald energy   TEWEN  =     10359.33382077
  -Hartree energ DENC   =    -12281.28895533
  -exchange      EXHF   =         0.00000000
  -V(xc)+E(xc)   XCENC  =       229.60856526
  PAW double counting   =      1107.63681624    -1128.37082128
  entropy T*S    EENTRO =         0.00000000
  eigenvalues    EBANDS =      -813.80900999
  atomic energy  EATOM  =      2354.47077523
  ---------------------------------------------------
  free energy    TOTEN  =      -147.66190313 eV

  energy without entropy =     -147.66190313  energy(sigma->0) =     -147.66190313


--------------------------------------------------------------------------------------------------------




----------------------------------------- Iteration    1(   9)  ---------------------------------------


    POTLOK:  cpu time    2.45: real time    2.45
    SETDIJ:  cpu time    0.02: real time    0.02
     EDDAV:  cpu time  637.33: real time  637.67
 BZINTS: Fermi energy: -3.394961; 64.000000 electrons
         Band energy:-803.575181;  BLOECHL correction:  0.000000
       DOS:  cpu time    0.01: real time    0.01
    CHARGE:  cpu time   29.29: real time   29.31
    MIXING:  cpu time    0.09: real time    0.09
    --------------------------------------------
      LOOP:  cpu time  669.21: real time  669.56

 eigenvalue-minimisations  :  7980
 total energy-change (2. order) : 0.3131003E-01  (-0.3976605E-02)
 number of electron      63.9999995 magnetization 
 augmentation part        1.5349377 magnetization 

 Broyden mixing:
  rms(total) = 0.51220E-01    rms(broyden)= 0.51219E-01
  rms(prec ) = 0.55675E-01
  weight for this iteration     100.00

 eigenvalues of (default mixing * dielectric matrix)
  average eigenvalue GAMMA=   1.3615
  2.3447  2.1995  0.4510  0.4510

 Free energy of the ion-electron system (eV)
  ---------------------------------------------------
  alpha Z        PSCENC =        24.75690598
  Ewald energy   TEWEN  =     10359.33382077
  -Hartree energ DENC   =    -12291.77251204
  -exchange      EXHF   =         0.00000000
  -V(xc)+E(xc)   XCENC  =       229.77867143
  PAW double counting   =      1112.52505786    -1133.14813154
  entropy T*S    EENTRO =         0.00000000
  eigenvalues    EBANDS =      -803.57518079
  atomic energy  EATOM  =      2354.47077523
  ---------------------------------------------------
  free energy    TOTEN  =      -147.63059310 eV

  energy without entropy =     -147.63059310  energy(sigma->0) =     -147.63059310


--------------------------------------------------------------------------------------------------------




----------------------------------------- Iteration    1(  10)  ---------------------------------------


    POTLOK:  cpu time    2.42: real time    2.42
    SETDIJ:  cpu time    0.02: real time    0.02
     EDDAV:  cpu time  700.72: real time  701.09
 BZINTS: Fermi energy: -3.362600; 64.000000 electrons
         Band energy:-801.096800;  BLOECHL correction:  0.000000
       DOS:  cpu time    0.02: real time    0.02
    CHARGE:  cpu time   27.34: real time   27.36
    MIXING:  cpu time    0.10: real time    0.10
    --------------------------------------------
      LOOP:  cpu time  730.61: real time  731.00

 eigenvalue-minimisations  :  9312
 total energy-change (2. order) : 0.5249271E-02  (-0.8824670E-03)
 number of electron      63.9999995 magnetization 
 augmentation part        1.5342731 magnetization 

 Broyden mixing:
  rms(total) = 0.36351E-01    rms(broyden)= 0.36350E-01
  rms(prec ) = 0.41232E-01
  weight for this iteration     100.00

 eigenvalues of (default mixing * dielectric matrix)
  average eigenvalue GAMMA=   1.3420
  2.5128  2.1413  0.8809  0.8809  0.2939

 Free energy of the ion-electron system (eV)
  ---------------------------------------------------
  alpha Z        PSCENC =        24.75690598
  Ewald energy   TEWEN  =     10359.33382077
  -Hartree energ DENC   =    -12294.28680226
  -exchange      EXHF   =         0.00000000
  -V(xc)+E(xc)   XCENC  =       229.81538553
  PAW double counting   =      1112.92112243    -1133.53975142
  entropy T*S    EENTRO =         0.00000000
  eigenvalues    EBANDS =      -801.09680009
  atomic energy  EATOM  =      2354.47077523
  ---------------------------------------------------
  free energy    TOTEN  =      -147.62534383 eV

  energy without entropy =     -147.62534383  energy(sigma->0) =     -147.62534383


--------------------------------------------------------------------------------------------------------




----------------------------------------- Iteration    1(  11)  ---------------------------------------


    POTLOK:  cpu time    2.24: real time    2.24
    SETDIJ:  cpu time    0.02: real time    0.02
     EDDAV:  cpu time  613.34: real time  613.66
 BZINTS: Fermi energy: -3.225616; 64.000000 electrons
         Band energy:-791.829241;  BLOECHL correction:  0.000000
       DOS:  cpu time    0.01: real time    0.01
    CHARGE:  cpu time   37.91: real time   37.93
    MIXING:  cpu time    0.07: real time    0.07
    --------------------------------------------
      LOOP:  cpu time  653.60: real time  653.95

 eigenvalue-minimisations  :  6831
 total energy-change (2. order) : 0.8281630E-02  (-0.4178814E-02)
 number of electron      63.9999995 magnetization 
 augmentation part        1.5329152 magnetization 

 Broyden mixing:
  rms(total) = 0.41208E-01    rms(broyden)= 0.41207E-01
  rms(prec ) = 0.44260E-01
  weight for this iteration     100.00

 eigenvalues of (default mixing * dielectric matrix)
  average eigenvalue GAMMA=   1.4675
  2.9812  2.0309  2.0309  0.7414  0.7414  0.2790

 Free energy of the ion-electron system (eV)
  ---------------------------------------------------
  alpha Z        PSCENC =        24.75690598
  Ewald energy   TEWEN  =     10359.33382077
  -Hartree energ DENC   =    -12303.68217264
  -exchange      EXHF   =         0.00000000
  -V(xc)+E(xc)   XCENC  =       229.94518488
  PAW double counting   =      1113.67878359    -1134.29111889
  entropy T*S    EENTRO =         0.00000000
  eigenvalues    EBANDS =      -791.82924111
  atomic energy  EATOM  =      2354.47077523
  ---------------------------------------------------
  free energy    TOTEN  =      -147.61706220 eV

  energy without entropy =     -147.61706220  energy(sigma->0) =     -147.61706220


--------------------------------------------------------------------------------------------------------




----------------------------------------- Iteration    1(  12)  ---------------------------------------


    POTLOK:  cpu time    2.30: real time    2.30
    SETDIJ:  cpu time    0.02: real time    0.02
     EDDAV:  cpu time  578.63: real time  578.93
 BZINTS: Fermi energy: -3.061082; 64.000000 electrons
         Band energy:-780.783682;  BLOECHL correction:  0.000000
       DOS:  cpu time    0.02: real time    0.02
    CHARGE:  cpu time   28.37: real time   28.38
    MIXING:  cpu time    0.10: real time    0.10
    --------------------------------------------
      LOOP:  cpu time  609.43: real time  609.75

 eigenvalue-minimisations  :  6897
 total energy-change (2. order) : 0.6207646E-02  (-0.2623520E-02)
 number of electron      63.9999995 magnetization 
 augmentation part        1.5313624 magnetization 

 Broyden mixing:
  rms(total) = 0.30171E-01    rms(broyden)= 0.30170E-01
  rms(prec ) = 0.32106E-01
  weight for this iteration     100.00

 eigenvalues of (default mixing * dielectric matrix)
  average eigenvalue GAMMA=   1.5420
  3.6926  2.4705  1.9880  1.0051  0.6809  0.6809  0.2758

 Free energy of the ion-electron system (eV)
  ---------------------------------------------------
  alpha Z        PSCENC =        24.75690598
  Ewald energy   TEWEN  =     10359.33382077
  -Hartree energ DENC   =    -12314.86055597
  -exchange      EXHF   =         0.00000000
  -V(xc)+E(xc)   XCENC  =       230.08472005
  PAW double counting   =      1113.93992289    -1134.55276123
  entropy T*S    EENTRO =         0.00000000
  eigenvalues    EBANDS =      -780.78368226
  atomic energy  EATOM  =      2354.47077523
  ---------------------------------------------------
  free energy    TOTEN  =      -147.61085455 eV

  energy without entropy =     -147.61085455  energy(sigma->0) =     -147.61085455


--------------------------------------------------------------------------------------------------------




----------------------------------------- Iteration    1(  13)  ---------------------------------------


    POTLOK:  cpu time    2.45: real time    2.46
    SETDIJ:  cpu time    0.03: real time    0.03
     EDDAV:  cpu time  512.99: real time  513.27
 BZINTS: Fermi energy: -2.923502; 64.000000 electrons
         Band energy:-771.973995;  BLOECHL correction:  0.000000
       DOS:  cpu time    0.02: real time    0.02
    CHARGE:  cpu time   27.42: real time   27.44
    MIXING:  cpu time    0.09: real time    0.09
    --------------------------------------------
      LOOP:  cpu time  543.00: real time  543.30

 eigenvalue-minimisations  :  6756
 total energy-change (2. order) :-0.3691557E-03  (-0.1057070E-02)
 number of electron      63.9999995 magnetization 
 augmentation part        1.5309258 magnetization 

 Broyden mixing:
  rms(total) = 0.24580E-01    rms(broyden)= 0.24579E-01
  rms(prec ) = 0.25629E-01
  weight for this iteration     100.00

 eigenvalues of (default mixing * dielectric matrix)
  average eigenvalue GAMMA=   1.6139
  4.3239  2.6138  1.8443  1.7193  0.7081  0.7081  0.7179  0.2754

 Free energy of the ion-electron system (eV)
  ---------------------------------------------------
  alpha Z        PSCENC =        24.75690598
  Ewald energy   TEWEN  =     10359.33382077
  -Hartree energ DENC   =    -12323.72825165
  -exchange      EXHF   =         0.00000000
  -V(xc)+E(xc)   XCENC  =       230.13723990
  PAW double counting   =      1110.99023135    -1131.59795001
  entropy T*S    EENTRO =         0.00000000
  eigenvalues    EBANDS =      -771.97399526
  atomic energy  EATOM  =      2354.47077523
  ---------------------------------------------------
  free energy    TOTEN  =      -147.61122370 eV

  energy without entropy =     -147.61122370  energy(sigma->0) =     -147.61122370


--------------------------------------------------------------------------------------------------------




----------------------------------------- Iteration    1(  14)  ---------------------------------------


    POTLOK:  cpu time    2.60: real time    2.60
    SETDIJ:  cpu time    0.05: real time    0.05
     EDDAV:  cpu time  561.24: real time  561.54
 BZINTS: Fermi energy: -2.858082; 64.000000 electrons
         Band energy:-767.782204;  BLOECHL correction:  0.000000
       DOS:  cpu time    0.02: real time    0.02
    CHARGE:  cpu time   26.46: real time   26.47
    MIXING:  cpu time    0.09: real time    0.09
    --------------------------------------------
      LOOP:  cpu time  590.45: real time  590.79

 eigenvalue-minimisations  :  7062
 total energy-change (2. order) :-0.2841393E-02  (-0.2104704E-03)
 number of electron      63.9999995 magnetization 
 augmentation part        1.5306801 magnetization 

 Broyden mixing:
  rms(total) = 0.16122E-01    rms(broyden)= 0.16121E-01
  rms(prec ) = 0.16816E-01
  weight for this iteration     100.00

 eigenvalues of (default mixing * dielectric matrix)
  average eigenvalue GAMMA=   1.6427
  4.8569  2.6756  1.8286  1.8286  0.9969  0.9969  0.6622  0.6622  0.2757

 Free energy of the ion-electron system (eV)
  ---------------------------------------------------
  alpha Z        PSCENC =        24.75690598
  Ewald energy   TEWEN  =     10359.33382077
  -Hartree energ DENC   =    -12327.93506585
  -exchange      EXHF   =         0.00000000
  -V(xc)+E(xc)   XCENC  =       230.14839726
  PAW double counting   =      1110.52181229    -1131.12850632
  entropy T*S    EENTRO =         0.00000000
  eigenvalues    EBANDS =      -767.78220445
  atomic energy  EATOM  =      2354.47077523
  ---------------------------------------------------
  free energy    TOTEN  =      -147.61406510 eV

  energy without entropy =     -147.61406510  energy(sigma->0) =     -147.61406510


--------------------------------------------------------------------------------------------------------




----------------------------------------- Iteration    1(  15)  ---------------------------------------


    POTLOK:  cpu time    2.51: real time    2.52
    SETDIJ:  cpu time    0.03: real time    0.03
     EDDAV:  cpu time  568.81: real time  569.11
 BZINTS: Fermi energy: -2.826497; 64.000000 electrons
         Band energy:-765.577828;  BLOECHL correction:  0.000000
       DOS:  cpu time    0.02: real time    0.02
    CHARGE:  cpu time   26.87: real time   26.89
    MIXING:  cpu time    0.10: real time    0.10
    --------------------------------------------
      LOOP:  cpu time  598.35: real time  598.67

 eigenvalue-minimisations  :  7308
 total energy-change (2. order) :-0.1905703E-02  (-0.5273452E-03)
 number of electron      63.9999995 magnetization 
 augmentation part        1.5305158 magnetization 

 Broyden mixing:
  rms(total) = 0.30412E-01    rms(broyden)= 0.30411E-01
  rms(prec ) = 0.31115E-01
  weight for this iteration     100.00

 eigenvalues of (default mixing * dielectric matrix)
  average eigenvalue GAMMA=   1.6072
  5.3266  2.6400  2.1223  1.9800  0.8583  0.8583  0.8688  0.2758  0.5709  0.5709

 Free energy of the ion-electron system (eV)
  ---------------------------------------------------
  alpha Z        PSCENC =        24.75690598
  Ewald energy   TEWEN  =     10359.33382077
  -Hartree energ DENC   =    -12330.14686506
  -exchange      EXHF   =         0.00000000
  -V(xc)+E(xc)   XCENC  =       230.15487255
  PAW double counting   =      1110.61760687    -1131.22525914
  entropy T*S    EENTRO =         0.00000000
  eigenvalues    EBANDS =      -765.57782799
  atomic energy  EATOM  =      2354.47077523
  ---------------------------------------------------
  free energy    TOTEN  =      -147.61597080 eV

  energy without entropy =     -147.61597080  energy(sigma->0) =     -147.61597080


--------------------------------------------------------------------------------------------------------




----------------------------------------- Iteration    1(  16)  ---------------------------------------


    POTLOK:  cpu time    2.42: real time    2.42
    SETDIJ:  cpu time    0.03: real time    0.04
     EDDAV:  cpu time  622.18: real time  622.50
 BZINTS: Fermi energy: -2.801014; 64.000000 electrons
         Band energy:-763.935835;  BLOECHL correction:  0.000000
       DOS:  cpu time    0.02: real time    0.02
    CHARGE:  cpu time   26.71: real time   26.73
    MIXING:  cpu time    0.11: real time    0.11
    --------------------------------------------
      LOOP:  cpu time  651.47: real time  651.82

 eigenvalue-minimisations  :  7365
 total energy-change (2. order) :-0.1006058E-02  (-0.2138821E-03)
 number of electron      63.9999995 magnetization 
 augmentation part        1.5304202 magnetization 

 Broyden mixing:
  rms(total) = 0.21780E-01    rms(broyden)= 0.21779E-01
  rms(prec ) = 0.22278E-01
  weight for this iteration     100.00

 eigenvalues of (default mixing * dielectric matrix)
  average eigenvalue GAMMA=   1.7618
  6.2396  3.3104  2.5466  1.9854  1.5901  0.9551  0.7036  0.7036  0.2758  0.5351
  0.5351

 Free energy of the ion-electron system (eV)
  ---------------------------------------------------
  alpha Z        PSCENC =        24.75690598
  Ewald energy   TEWEN  =     10359.33382077
  -Hartree energ DENC   =    -12331.79663216
  -exchange      EXHF   =         0.00000000
  -V(xc)+E(xc)   XCENC  =       230.16128648
  PAW double counting   =      1110.77328483    -1131.38058337
  entropy T*S    EENTRO =         0.00000000
  eigenvalues    EBANDS =      -763.93583462
  atomic energy  EATOM  =      2354.47077523
  ---------------------------------------------------
  free energy    TOTEN  =      -147.61697686 eV

  energy without entropy =     -147.61697686  energy(sigma->0) =     -147.61697686


--------------------------------------------------------------------------------------------------------




----------------------------------------- Iteration    1(  17)  ---------------------------------------


    POTLOK:  cpu time    2.51: real time    2.51
    SETDIJ:  cpu time    0.02: real time    0.02
     EDDAV:  cpu time  545.43: real time  545.72
 BZINTS: Fermi energy: -2.771621; 64.000000 electrons
         Band energy:-762.233487;  BLOECHL correction:  0.000000
       DOS:  cpu time    0.01: real time    0.02
    CHARGE:  cpu time   29.06: real time   29.07
    MIXING:  cpu time    0.09: real time    0.09
    --------------------------------------------
      LOOP:  cpu time  577.13: real time  577.44

 eigenvalue-minimisations  :  7095
 total energy-change (2. order) :-0.3559036E-02  (-0.7690632E-03)
 number of electron      63.9999995 magnetization 
 augmentation part        1.5303886 magnetization 

 Broyden mixing:
  rms(total) = 0.27450E-01    rms(broyden)= 0.27449E-01
  rms(prec ) = 0.27999E-01
  weight for this iteration     100.00

 eigenvalues of (default mixing * dielectric matrix)
  average eigenvalue GAMMA=   1.6263
  6.4170  3.2396  2.5205  1.9965  1.2395  0.8462  0.7533  0.7533  0.5538  0.5538
  0.2758  0.3667

 Free energy of the ion-electron system (eV)
  ---------------------------------------------------
  alpha Z        PSCENC =        24.75690598
  Ewald energy   TEWEN  =     10359.33382077
  -Hartree energ DENC   =    -12333.50080272
  -exchange      EXHF   =         0.00000000
  -V(xc)+E(xc)   XCENC  =       230.15855419
  PAW double counting   =      1110.88688662    -1131.49318922
  entropy T*S    EENTRO =         0.00000000
  eigenvalues    EBANDS =      -762.23348674
  atomic energy  EATOM  =      2354.47077523
  ---------------------------------------------------
  free energy    TOTEN  =      -147.62053590 eV

  energy without entropy =     -147.62053590  energy(sigma->0) =     -147.62053590


--------------------------------------------------------------------------------------------------------




----------------------------------------- Iteration    1(  18)  ---------------------------------------


    POTLOK:  cpu time    2.48: real time    2.48
    SETDIJ:  cpu time    0.03: real time    0.03
     EDDAV:  cpu time  561.11: real time  561.41
 BZINTS: Fermi energy: -2.769323; 64.000000 electrons
         Band energy:-762.080511;  BLOECHL correction:  0.000000
       DOS:  cpu time    0.02: real time    0.02
    CHARGE:  cpu time   27.15: real time   27.16
    MIXING:  cpu time    0.11: real time    0.11
    --------------------------------------------
      LOOP:  cpu time  590.90: real time  591.22

 eigenvalue-minimisations  :  7626
 total energy-change (2. order) : 0.2133736E-03  (-0.1085184E-04)
 number of electron      63.9999995 magnetization 
 augmentation part        1.5303642 magnetization 

 Broyden mixing:
  rms(total) = 0.24456E-01    rms(broyden)= 0.24456E-01
  rms(prec ) = 0.24944E-01
  weight for this iteration     100.00

 eigenvalues of (default mixing * dielectric matrix)
  average eigenvalue GAMMA=   1.6622
  6.4663  3.1515  2.5278  1.9554  1.3967  1.2318  1.2318  0.9311  0.7200  0.7200
  0.2758  0.5001  0.5001

 Free energy of the ion-electron system (eV)
  ---------------------------------------------------
  alpha Z        PSCENC =        24.75690598
  Ewald energy   TEWEN  =     10359.33382077
  -Hartree energ DENC   =    -12333.65486305
  -exchange      EXHF   =         0.00000000
  -V(xc)+E(xc)   XCENC  =       230.15980026
  PAW double counting   =      1110.87316152    -1131.47941224
  entropy T*S    EENTRO =         0.00000000
  eigenvalues    EBANDS =      -762.08051099
  atomic energy  EATOM  =      2354.47077523
  ---------------------------------------------------
  free energy    TOTEN  =      -147.62032252 eV

  energy without entropy =     -147.62032252  energy(sigma->0) =     -147.62032252


--------------------------------------------------------------------------------------------------------




----------------------------------------- Iteration    1(  19)  ---------------------------------------


    POTLOK:  cpu time    2.61: real time    2.61
    SETDIJ:  cpu time    0.04: real time    0.04
     EDDAV:  cpu time  631.86: real time  632.20
 BZINTS: Fermi energy: -2.767337; 64.000000 electrons
         Band energy:-761.771118;  BLOECHL correction:  0.000000
       DOS:  cpu time    0.02: real time    0.02
    CHARGE:  cpu time   27.46: real time   27.47
    MIXING:  cpu time    0.15: real time    0.15
    --------------------------------------------
      LOOP:  cpu time  662.14: real time  662.50

 eigenvalue-minimisations  :  7881
 total energy-change (2. order) :-0.8994766E-03  (-0.5023659E-03)
 number of electron      63.9999995 magnetization 
 augmentation part        1.5303384 magnetization 

 Broyden mixing:
  rms(total) = 0.21866E-01    rms(broyden)= 0.21864E-01
  rms(prec ) = 0.22300E-01
  weight for this iteration     100.00

 eigenvalues of (default mixing * dielectric matrix)
  average eigenvalue GAMMA=   1.7511
  7.3442  3.8902  2.5858  2.0524  1.7940  1.1808  1.1808  0.9169  0.8342  0.7293
  0.7293  0.2758  0.5007  0.5007

 Free energy of the ion-electron system (eV)
  ---------------------------------------------------
  alpha Z        PSCENC =        24.75690598
  Ewald energy   TEWEN  =     10359.33382077
  -Hartree energ DENC   =    -12333.96564665
  -exchange      EXHF   =         0.00000000
  -V(xc)+E(xc)   XCENC  =       230.16064108
  PAW double counting   =      1110.87694506    -1131.48354572
  entropy T*S    EENTRO =         0.00000000
  eigenvalues    EBANDS =      -761.77111775
  atomic energy  EATOM  =      2354.47077523
  ---------------------------------------------------
  free energy    TOTEN  =      -147.62122200 eV

  energy without entropy =     -147.62122200  energy(sigma->0) =     -147.62122200


--------------------------------------------------------------------------------------------------------




----------------------------------------- Iteration    1(  20)  ---------------------------------------


    POTLOK:  cpu time    2.54: real time    2.54
    SETDIJ:  cpu time    0.04: real time    0.04
     EDDAV:  cpu time  514.69: real time  514.97
 BZINTS: Fermi energy: -2.758588; 64.000000 electrons
         Band energy:-761.212894;  BLOECHL correction:  0.000000
       DOS:  cpu time    0.02: real time    0.02
    CHARGE:  cpu time   27.82: real time   27.83
    MIXING:  cpu time    0.14: real time    0.14
    --------------------------------------------
      LOOP:  cpu time  545.24: real time  545.54

 eigenvalue-minimisations  :  6939
 total energy-change (2. order) :-0.1245820E-02  (-0.9972929E-04)
 number of electron      63.9999995 magnetization 
 augmentation part        1.5303506 magnetization 

 Broyden mixing:
  rms(total) = 0.86880E-02    rms(broyden)= 0.86875E-02
  rms(prec ) = 0.88648E-02
  weight for this iteration     100.00

 eigenvalues of (default mixing * dielectric matrix)
  average eigenvalue GAMMA=   1.8079
  7.8651  4.3438  2.7763  2.4561  2.0273  1.1119  1.1119  1.0028  1.0028  0.7170
  0.7170  0.7012  0.2758  0.5049  0.5049

 Free energy of the ion-electron system (eV)
  ---------------------------------------------------
  alpha Z        PSCENC =        24.75690598
  Ewald energy   TEWEN  =     10359.33382077
  -Hartree energ DENC   =    -12334.52407249
  -exchange      EXHF   =         0.00000000
  -V(xc)+E(xc)   XCENC  =       230.15856669
  PAW double counting   =      1110.89424215    -1131.49981235
  entropy T*S    EENTRO =         0.00000000
  eigenvalues    EBANDS =      -761.21289379
  atomic energy  EATOM  =      2354.47077523
  ---------------------------------------------------
  free energy    TOTEN  =      -147.62246782 eV

  energy without entropy =     -147.62246782  energy(sigma->0) =     -147.62246782


--------------------------------------------------------------------------------------------------------




----------------------------------------- Iteration    1(  21)  ---------------------------------------


    POTLOK:  cpu time    2.54: real time    2.54
    SETDIJ:  cpu time    0.02: real time    0.02
     EDDAV:  cpu time  542.71: real time  543.00
 BZINTS: Fermi energy: -2.755021; 64.000000 electrons
         Band energy:-760.989435;  BLOECHL correction:  0.000000
       DOS:  cpu time    0.02: real time    0.02
    CHARGE:  cpu time   28.28: real time   28.29
    MIXING:  cpu time    0.14: real time    0.14
    --------------------------------------------
      LOOP:  cpu time  573.71: real time  574.02

 eigenvalue-minimisations  :  7326
 total energy-change (2. order) :-0.4035647E-03  (-0.6386219E-04)
 number of electron      63.9999995 magnetization 
 augmentation part        1.5303242 magnetization 

 Broyden mixing:
  rms(total) = 0.17478E-01    rms(broyden)= 0.17477E-01
  rms(prec ) = 0.17815E-01
  weight for this iteration     100.00

 eigenvalues of (default mixing * dielectric matrix)
  average eigenvalue GAMMA=   1.7965
  8.2393  4.5197  2.7547  2.4237  1.9967  1.2024  1.2024  1.0807  1.0807  0.9797
  0.7209  0.7209  0.2758  0.5024  0.5024  0.5425

 Free energy of the ion-electron system (eV)
  ---------------------------------------------------
  alpha Z        PSCENC =        24.75690598
  Ewald energy   TEWEN  =     10359.33382077
  -Hartree energ DENC   =    -12334.74859644
  -exchange      EXHF   =         0.00000000
  -V(xc)+E(xc)   XCENC  =       230.15975943
  PAW double counting   =      1110.91015529    -1131.51625651
  entropy T*S    EENTRO =         0.00000000
  eigenvalues    EBANDS =      -760.98943513
  atomic energy  EATOM  =      2354.47077523
  ---------------------------------------------------
  free energy    TOTEN  =      -147.62287138 eV

  energy without entropy =     -147.62287138  energy(sigma->0) =     -147.62287138


--------------------------------------------------------------------------------------------------------




----------------------------------------- Iteration    1(  22)  ---------------------------------------


    POTLOK:  cpu time    2.54: real time    2.54
    SETDIJ:  cpu time    0.04: real time    0.04
     EDDAV:  cpu time  598.41: real time  598.72
 BZINTS: Fermi energy: -2.753602; 64.000000 electrons
         Band energy:-760.901748;  BLOECHL correction:  0.000000
       DOS:  cpu time    0.02: real time    0.02
    CHARGE:  cpu time   27.91: real time   27.93
    MIXING:  cpu time    0.13: real time    0.13
    --------------------------------------------
      LOOP:  cpu time  629.04: real time  629.38

 eigenvalue-minimisations  :  7779
 total energy-change (2. order) :-0.6179368E-04  (-0.2178986E-04)
 number of electron      63.9999995 magnetization 
 augmentation part        1.5303308 magnetization 

 Broyden mixing:
  rms(total) = 0.89120E-02    rms(broyden)= 0.89119E-02
  rms(prec ) = 0.90860E-02
  weight for this iteration     100.00

 eigenvalues of (default mixing * dielectric matrix)
  average eigenvalue GAMMA=   1.7706
  8.2562  4.6069  2.7425  2.3954  2.0043  1.2658  1.2658  1.1165  1.1165  1.0361
  1.0361  0.7149  0.7149  0.2758  0.5023  0.5023  0.5475

 Free energy of the ion-electron system (eV)
  ---------------------------------------------------
  alpha Z        PSCENC =        24.75690598
  Ewald energy   TEWEN  =     10359.33382077
  -Hartree energ DENC   =    -12334.83606856
  -exchange      EXHF   =         0.00000000
  -V(xc)+E(xc)   XCENC  =       230.15900986
  PAW double counting   =      1110.87815373    -1131.48378207
  entropy T*S    EENTRO =         0.00000000
  eigenvalues    EBANDS =      -760.90174812
  atomic energy  EATOM  =      2354.47077523
  ---------------------------------------------------
  free energy    TOTEN  =      -147.62293318 eV

  energy without entropy =     -147.62293318  energy(sigma->0) =     -147.62293318


--------------------------------------------------------------------------------------------------------




----------------------------------------- Iteration    1(  23)  ---------------------------------------


    POTLOK:  cpu time    2.60: real time    2.60
    SETDIJ:  cpu time    0.04: real time    0.04
     EDDAV:  cpu time  588.85: real time  589.16
 BZINTS: Fermi energy: -2.753075; 64.000000 electrons
         Band energy:-760.868733;  BLOECHL correction:  0.000000
       DOS:  cpu time    0.02: real time    0.02
    CHARGE:  cpu time   26.65: real time   26.66
    MIXING:  cpu time    0.14: real time    0.14
    --------------------------------------------
      LOOP:  cpu time  618.30: real time  618.63

 eigenvalue-minimisations  :  7878
 total energy-change (2. order) :-0.5364810E-04  (-0.8096397E-06)
 number of electron      63.9999995 magnetization 
 augmentation part        1.5303270 magnetization 

 Broyden mixing:
  rms(total) = 0.66247E-02    rms(broyden)= 0.66247E-02
  rms(prec ) = 0.67544E-02
  weight for this iteration     100.00

 eigenvalues of (default mixing * dielectric matrix)
  average eigenvalue GAMMA=   1.7947
  8.2918  4.7152  2.6291  2.0133  2.0133  2.1502  1.8253  1.3029  1.3029  1.0014
  1.0014  0.7120  0.7120  0.7723  0.2758  0.5029  0.5029  0.5793

 Free energy of the ion-electron system (eV)
  ---------------------------------------------------
  alpha Z        PSCENC =        24.75690598
  Ewald energy   TEWEN  =     10359.33382077
  -Hartree energ DENC   =    -12334.86914665
  -exchange      EXHF   =         0.00000000
  -V(xc)+E(xc)   XCENC  =       230.15912726
  PAW double counting   =      1110.87881061    -1131.48454695
  entropy T*S    EENTRO =         0.00000000
  eigenvalues    EBANDS =      -760.86873308
  atomic energy  EATOM  =      2354.47077523
  ---------------------------------------------------
  free energy    TOTEN  =      -147.62298682 eV

  energy without entropy =     -147.62298682  energy(sigma->0) =     -147.62298682


--------------------------------------------------------------------------------------------------------




[...]
     31      -4.1001      2.00000
     32      -4.0992      2.00000
     33      -1.4518      0.00000
     34      -1.4507      0.00000
     35       1.6805      0.00000
     36       1.6810      0.00000
     37       2.0823      0.00000
     38       2.0825      0.00000
     39       2.8712      0.00000
     40       2.8713      0.00000
     41       3.1619      0.00000
     42       3.3776      0.00000

 k-point    71 :      -0.3333    0.3333    0.5000
  band No.  band energies     occupation 
      1     -21.6072      2.00000
      2     -21.6072      2.00000
      3     -19.6793      2.00000
      4     -19.6792      2.00000
      5     -17.8279      2.00000
      6     -17.8268      2.00000
      7     -17.8268      2.00000
      8     -17.8253      2.00000
      9     -14.1459      2.00000
     10     -14.1449      2.00000
     11     -14.1449      2.00000
     12     -14.1430      2.00000
     13     -12.3844      2.00000
     14     -12.3836      2.00000
     15     -10.7953      2.00000
     16     -10.7936      2.00000
     17     -10.7936      2.00000
     18     -10.7929      2.00000
     19      -9.5867      2.00000
     20      -9.5865      2.00000
     21      -8.5081      2.00000
     22      -8.5065      2.00000
     23      -8.0843      2.00000
     24      -8.0823      2.00000
     25      -7.3729      2.00000
     26      -7.3723      2.00000
     27      -6.8972      2.00000
     28      -6.8949      2.00000
     29      -5.4008      2.00000
     30      -5.3986      2.00000
     31      -5.3986      2.00000
     32      -5.3976      2.00000
     33      -0.2297      0.00000
     34      -0.2291      0.00000
     35      -0.2291      0.00000
     36      -0.2265      0.00000
     37       1.4145      0.00000
     38       1.4146      0.00000
     39       2.1509      0.00000
     40       2.1525      0.00000
     41       2.1970      0.00000
     42       2.1971      0.00000

 k-point    72 :      -0.1667    0.3333    0.5000
  band No.  band energies     occupation 
      1     -21.7700      2.00000
      2     -21.7700      2.00000
      3     -18.8972      2.00000
      4     -18.8964      2.00000
      5     -18.8912      2.00000
      6     -18.8905      2.00000
      7     -16.5974      2.00000
      8     -16.5951      2.00000
      9     -15.5772      2.00000
     10     -15.5747      2.00000
     11     -13.3842      2.00000
     12     -13.3828      2.00000
     13     -13.3706      2.00000
     14     -13.3691      2.00000
     15     -10.9790      2.00000
     16     -10.9788      2.00000
     17      -9.7793      2.00000
     18      -9.7792      2.00000
     19      -9.3210      2.00000
     20      -9.3200      2.00000
     21      -9.3002      2.00000
     22      -9.2984      2.00000
     23      -7.4713      2.00000
     24      -7.4706      2.00000
     25      -6.7905      2.00000
     26      -6.7901      2.00000
     27      -6.5235      2.00000
     28      -6.5232      2.00000
     29      -6.5188      2.00000
     30      -6.5182      2.00000
     31      -4.5098      2.00000
     32      -4.5089      2.00000
     33      -1.2944      0.00000
     34      -1.2931      0.00000
     35       0.9639      0.00000
     36       0.9666      0.00000
     37       0.9742      0.00000
     38       0.9746      0.00000
     39       1.1927      0.00000
     40       1.1937      0.00000
     41       1.9722      0.00000
     42       1.9723      0.00000

 k-point    73 :       0.0000    0.5000    0.5000
  band No.  band energies     occupation 
      1     -20.7952      2.00000
      2     -20.7952      2.00000
      3     -20.7952      2.00000
      4     -20.7951      2.00000
      5     -17.9816      2.00000
      6     -17.9799      2.00000
      7     -17.9799      2.00000
      8     -17.9776      2.00000
      9     -13.2786      2.00000
     10     -13.2736      2.00000
     11     -13.2736      2.00000
     12     -13.2728      2.00000
     13     -11.6918      2.00000
     14     -11.6918      2.00000
     15     -11.6906      2.00000
     16     -11.6887      2.00000
     17     -10.1640      2.00000
     18     -10.1640      2.00000
     19     -10.1628      2.00000
     20     -10.1627      2.00000
     21      -8.6361      2.00000
     22      -8.6361      2.00000
     23      -8.6361      2.00000
     24      -8.6361      2.00000
     25      -7.7974      2.00000
     26      -7.7973      2.00000
     27      -7.7962      2.00000
     28      -7.7962      2.00000
     29      -5.4885      2.00000
     30      -5.4867      2.00000
     31      -5.4867      2.00000
     32      -5.4841      2.00000
     33       0.0625      0.00000
     34       0.0663      0.00000
     35       0.0663      0.00000
     36       0.0685      0.00000
     37       2.5271      0.00000
     38       2.5273      0.00000
     39       2.5273      0.00000
     40       2.5273      0.00000
     41       3.3119      0.00000
     42       3.3119      0.00000

 k-point    74 :       0.1667    0.5000    0.5000
  band No.  band energies     occupation 
      1     -21.1194      2.00000
      2     -21.1194      2.00000
      3     -20.1525      2.00000
      4     -20.1524      2.00000
      5     -19.2082      2.00000
      6     -19.2081      2.00000
      7     -16.5578      2.00000
      8     -16.5567      2.00000
      9     -14.6905      2.00000
     10     -14.6885      2.00000
     11     -12.4061      2.00000
     12     -12.4051      2.00000
     13     -12.2452      2.00000
     14     -12.2434      2.00000
     15     -11.2462      2.00000
     16     -11.2449      2.00000
     17     -10.2020      2.00000
     18     -10.1998      2.00000
     19      -9.1732      2.00000
     20      -9.1723      2.00000
     21      -9.0124      2.00000
     22      -9.0122      2.00000
     23      -8.6864      2.00000
     24      -8.6853      2.00000
     25      -7.8967      2.00000
     26      -7.8966      2.00000
     27      -7.7981      2.00000
     28      -7.7974      2.00000
     29      -6.8273      2.00000
     30      -6.8269      2.00000
     31      -4.1026      2.00000
     32      -4.1023      2.00000
     33      -1.4503      0.00000
     34      -1.4501      0.00000
     35       1.6748      0.00000
     36       1.6764      0.00000
     37       2.0832      0.00000
     38       2.0833      0.00000
     39       2.8721      0.00000
     40       2.8722      0.00000
     41       3.1706      0.00000
     42       3.3784      0.00000

 k-point    75 :       0.3333    0.5000    0.5000
  band No.  band energies     occupation 
      1     -21.1201      2.00000
      2     -21.1201      2.00000
      3     -20.1559      2.00000
      4     -20.1559      2.00000
      5     -19.2035      2.00000
      6     -19.2034      2.00000
      7     -16.5521      2.00000
      8     -16.5513      2.00000
      9     -14.6935      2.00000
     10     -14.6927      2.00000
     11     -12.4076      2.00000
     12     -12.4075      2.00000
     13     -12.2327      2.00000
     14     -12.2314      2.00000
     15     -11.2622      2.00000
     16     -11.2607      2.00000
     17     -10.2188      2.00000
     18     -10.2176      2.00000
     19      -9.1875      2.00000
     20      -9.1866      2.00000
     21      -9.0131      2.00000
     22      -9.0128      2.00000
     23      -8.6665      2.00000
     24      -8.6645      2.00000
     25      -7.8998      2.00000
     26      -7.8995      2.00000
     27      -7.7826      2.00000
     28      -7.7812      2.00000
     29      -6.8234      2.00000
     30      -6.8232      2.00000
     31      -4.1003      2.00000
     32      -4.0992      2.00000
     33      -1.4518      0.00000
     34      -1.4504      0.00000
     35       1.6805      0.00000
     36       1.6808      0.00000
     37       2.0823      0.00000
     38       2.0824      0.00000
     39       2.8712      0.00000
     40       2.8713      0.00000
     41       3.1619      0.00000
     42       3.3775      0.00000

 k-point    76 :       0.5000    0.5000    0.5000
  band No.  band energies     occupation 
      1     -20.7993      2.00000
      2     -20.7973      2.00000
      3     -20.7973      2.00000
      4     -20.7952      2.00000
      5     -17.9751      2.00000
      6     -17.9741      2.00000
      7     -17.9741      2.00000
      8     -17.9726      2.00000
      9     -13.2711      2.00000
     10     -13.2705      2.00000
     11     -13.2705      2.00000
     12     -13.2682      2.00000
     13     -11.7024      2.00000
     14     -11.7006      2.00000
     15     -11.7006      2.00000
     16     -11.7006      2.00000
     17     -10.1844      2.00000
     18     -10.1810      2.00000
     19     -10.1810      2.00000
     20     -10.1802      2.00000
     21      -8.6395      2.00000
     22      -8.6381      2.00000
     23      -8.6381      2.00000
     24      -8.6361      2.00000
     25      -7.7775      2.00000
     26      -7.7758      2.00000
     27      -7.7758      2.00000
     28      -7.7705      2.00000
     29      -5.4844      2.00000
     30      -5.4822      2.00000
     31      -5.4822      2.00000
     32      -5.4811      2.00000
     33       0.0661      0.00000
     34       0.0667      0.00000
     35       0.0667      0.00000
     36       0.0695      0.00000
     37       2.5244      0.00000
     38       2.5247      0.00000
     39       2.5247      0.00000
     40       2.5248      0.00000
     41       3.3091      0.00000
     42       3.3092      0.00000


--------------------------------------------------------------------------------------------------------


 soft charge-density along one line, spin component           1
         0         1         2         3         4         5         6         7         8         9
 total charge-density along one line
 
 pseudopotential strength for first ion, spin component:           1
 10.227   0.019  -0.000  -0.000   0.000   0.000   0.000  -0.000
  0.019  -0.002   0.000   0.000  -0.000   0.000   0.000  -0.000
 -0.000   0.000  -4.344   0.000   0.000  -0.018   0.000   0.000
 -0.000   0.000   0.000  -4.337   0.000   0.000  -0.015   0.000
  0.000  -0.000   0.000   0.000  -4.344   0.000   0.000  -0.018
  0.000   0.000  -0.018   0.000   0.000  -0.772   0.000   0.000
  0.000   0.000   0.000  -0.015   0.000   0.000  -0.772  -0.000
 -0.000  -0.000   0.000   0.000  -0.018   0.000  -0.000  -0.772
 total augmentation occupancy for first ion, spin component:           1
  1.467  -1.123  -0.000   0.001   0.001   0.000  -0.001   0.000
 -1.123   1.060  -0.000   0.007  -0.001  -0.000   0.002  -0.000
 -0.000  -0.000   1.221   0.000  -0.000   0.228   0.000  -0.000
  0.001   0.007   0.000   0.931  -0.000   0.000   0.105  -0.000
  0.001  -0.001  -0.000  -0.000   1.221  -0.000  -0.000   0.228
  0.000  -0.000   0.228   0.000  -0.000   0.049   0.000  -0.000
 -0.001   0.002   0.000   0.105  -0.000   0.000   0.013  -0.000
  0.000  -0.000  -0.000  -0.000   0.228  -0.000  -0.000   0.049


------------------------ aborting loop because EDIFF is reached ----------------------------------------


    CHARGE:  cpu time   27.36: real time   27.37
    FORLOC:  cpu time    0.32: real time    0.32
    FORNL :  cpu time   71.57: real time   71.61
    STRESS:  cpu time  164.96: real time  165.05
    FORHAR:  cpu time    0.76: real time    0.76
    MIXING:  cpu time    0.28: real time    0.28
    OFIELD:  cpu time    0.00: real time    0.00

 ---------------------------------------------------------------------------------------------

         DFTD3 V3.0 Rev 1        
 IVDW         = 12
 DF pbe       
 parameters
 VDW_S6       =    1.0000
 VDW_S8       =    0.7875
 VDW_A1       =    0.4289
 VDW_A2       =    4.4407
 k1-k3        =   16.0000    1.3333   -4.0000
 VDW_RADIUS   =   50.2022 A
 VDW_CNRADIUS =   21.1671 A
 Edisp (eV)   -1.41780

 E6    (eV) :    -0.9742
 E8    (eV) :    -0.4436
 % E8        : 31.29
    FORVDW:  cpu time    0.04: real time    0.05

  FORCE on cell =-STRESS in cart. coord.  units (eV):
  Direction    XX          YY          ZZ          XY          YZ          ZX
  --------------------------------------------------------------------------------------
  Alpha Z    24.75691    24.75691    24.75691
  Ewald   12510.51992 12510.28965-14661.48031    -0.46728    -0.00061    -0.00199
  Hartree 12244.43190 12244.75307-12154.03888     0.10795    -0.00002    -0.00051
  E(xc)    -233.43522  -233.42554  -242.79054     0.00182     0.00001    -0.00000
  Local  -25444.25686-25444.94337 25990.57650     0.02649    -0.00095     0.00263
  n-local   -55.91599   -56.05651   -51.12912    -0.08730    -0.00006     0.00007
  augment    -6.18330    -6.17999    -5.66684     0.00206    -0.00002     0.00005
  Kinetic   961.50381   960.49601  1099.58807    -0.21721     0.00339    -0.00177
  Fock        0.00000     0.00000     0.00000     0.00000     0.00000     0.00000
  vdW        -0.34516    -0.34258    -0.00360     0.00231     0.00000    -0.00000
  -------------------------------------------------------------------------------------
  Total       1.07600    -0.65235    -0.18782    -0.63116     0.00173    -0.00152
  in kB       2.04610    -1.24050    -0.35715    -1.20021     0.00330    -0.00290
  external pressure =        0.15 kB  Pullay stress =        0.00 kB


 VOLUME and BASIS-vectors are now :
 -----------------------------------------------------------------------------
  energy-cutoff  :      800.00
  volume of cell :      842.55
      direct lattice vectors                 reciprocal lattice vectors
     4.932874680  0.000000000  0.000000000     0.202721550  0.117251773  0.000000000
    -2.469760955  4.270074171  0.000000000     0.000000000  0.234187970  0.000000000
     0.000000000  0.000000000 40.000000000     0.000000000  0.000000000  0.025000000

  length of vectors
     4.932874680  4.932874680 40.000000000     0.234187970  0.234187970  0.025000000


 FORCES acting on ions
    electron-ion (+dipol)            ewald-force                    non-local-force                 convergence-correction
 -----------------------------------------------------------------------------------------------
   0.974E-01 0.196E+00 -.445E+01   -.200E+00 -.619E-01 0.449E+01   -.556E-01 0.440E-01 -.187E+00   0.171E-04 -.387E-04 0.103E-04
   -.240E+00 0.196E+00 0.473E+00   0.186E+00 -.625E-01 -.457E+00   -.153E-01 0.440E-01 -.250E-01   0.161E-04 -.386E-04 0.404E-05
   -.178E+00 0.232E+00 0.475E+00   0.115E+00 -.103E+00 -.457E+00   -.190E-01 0.417E-01 -.263E-01   0.166E-04 -.383E-04 0.347E-05
   -.178E+00 0.160E+00 0.476E+00   0.115E+00 -.216E-01 -.457E+00   -.189E-01 0.461E-01 -.271E-01   0.166E-04 -.391E-04 0.311E-05
   -.236E+00 0.136E+00 -.341E-01   0.108E+00 -.624E-01 0.341E-01   -.430E-01 0.248E-01 -.272E-04   0.147E-05 -.859E-06 -.272E-06
   -.236E+00 0.136E+00 -.341E-01   0.108E+00 -.624E-01 0.341E-01   -.430E-01 0.248E-01 -.273E-04   0.151E-05 -.849E-06 -.302E-06
   -.236E+00 0.136E+00 -.341E-01   0.108E+00 -.624E-01 0.341E-01   -.430E-01 0.248E-01 -.273E-04   0.149E-05 -.872E-06 -.320E-06
   -.236E+00 0.136E+00 -.341E-01   0.108E+00 -.624E-01 0.341E-01   -.430E-01 0.248E-01 -.273E-04   0.150E-05 -.841E-06 -.284E-06
   0.142E+00 -.196E+00 0.409E+00   -.810E-01 0.625E-01 -.407E+00   0.219E-01 -.439E-01 0.106E-01   -.160E-04 0.386E-04 0.381E-05
   0.252E+00 -.189E+00 0.961E+00   -.191E+00 0.540E-01 -.996E+00   0.307E-01 -.436E-01 0.866E-01   -.162E-04 0.387E-04 0.557E-05
   0.464E-01 -.315E+00 0.961E+00   0.353E-01 0.193E+00 -.994E+00   0.277E-01 -.457E-01 0.847E-01   -.164E-04 0.388E-04 0.567E-05
   0.586E-01 -.839E-01 0.964E+00   0.214E-01 -.601E-01 -.997E+00   0.284E-01 -.426E-01 0.838E-01   -.164E-04 0.387E-04 0.577E-05
   0.236E+00 -.136E+00 -.341E-01   -.108E+00 0.624E-01 0.341E-01   0.430E-01 -.248E-01 -.270E-04   -.150E-05 0.880E-06 -.285E-06
   0.236E+00 -.136E+00 -.341E-01   -.108E+00 0.624E-01 0.341E-01   0.430E-01 -.248E-01 -.271E-04   -.154E-05 0.872E-06 -.302E-06
   0.236E+00 -.136E+00 -.341E-01   -.108E+00 0.624E-01 0.341E-01   0.430E-01 -.248E-01 -.271E-04   -.151E-05 0.884E-06 -.317E-06
   0.236E+00 -.136E+00 -.341E-01   -.108E+00 0.624E-01 0.341E-01   0.430E-01 -.248E-01 -.271E-04   -.153E-05 0.867E-06 -.295E-06
 -----------------------------------------------------------------------------------------------
   0.123E-04 -.112E-04 0.319E-04   0.527E-14 -.125E-13 0.246E-14   -.323E-03 0.198E-03 -.480E-03   0.123E-05 0.952E-07 0.393E-04
 
 
 POSITION                                       TOTAL-FORCE (eV/Angst)
 -----------------------------------------------------------------------------------
      2.46524      0.00140      1.66786        -0.158750      0.177662     -0.142563
      4.93046      0.00140      1.65794        -0.069814      0.177375     -0.008233
      1.22914      2.13643      1.65794        -0.082174      0.170035     -0.007988
      3.69558      2.13643      1.65794        -0.082210      0.184958     -0.008004
      2.46402      0.00140     21.65794        -0.170918      0.098614     -0.000002
      4.93046      0.00140     21.65794        -0.170918      0.098614     -0.000002
      1.22914      2.13643     21.65794        -0.170918      0.098614     -0.000002
      3.69558      2.13643     21.65794        -0.170918      0.098614     -0.000002
     -0.00388      1.42496      1.65794         0.082687     -0.177417      0.012535
      2.46256      1.42496      1.65794         0.092376     -0.178212      0.052157
     -1.23876      3.55999      1.65794         0.109426     -0.167861      0.051488
      1.22768      3.55999      1.65794         0.108463     -0.186540      0.050622
     -0.00388      1.42496     21.65794         0.170917     -0.098615     -0.000002
      2.46256      1.42496     21.65794         0.170917     -0.098615     -0.000002
     -1.23876      3.55999     21.65794         0.170917     -0.098615     -0.000002
      1.22768      3.55999     21.65794         0.170917     -0.098615     -0.000002
 -----------------------------------------------------------------------------------
    total drift:                               -0.000309      0.000187     -0.000408


--------------------------------------------------------------------------------------------------------



  FREE ENERGIE OF THE ION-ELECTRON SYSTEM (eV)
  ---------------------------------------------------
  free  energy   TOTEN  =      -149.04096595 eV

  energy  without entropy=     -149.04096595  energy(sigma->0) =     -149.04096595
 


--------------------------------------------------------------------------------------------------------


    POTLOK:  cpu time    2.30: real time    2.30


--------------------------------------------------------------------------------------------------------


     LOOP+:  cpu time32225.82: real time32243.53
    4ORBIT:  cpu time    0.00: real time    0.00
 BZINTS: Fermi energy: -2.748330; 64.000000 electrons
         Band energy:-760.591831;  BLOECHL correction:  0.000000

 total amount of memory used by VASP on root node  1221310. kBytes
========================================================================

   base      :      30000. kBytes
   nonl-proj :     222197. kBytes
   fftplans  :      81515. kBytes
   grid      :     146546. kBytes
   one-center:         49. kBytes
   wavefun   :     741003. kBytes
 
  
  
 General timing and accounting informations for this job:
 ========================================================
  
                  Total CPU time used (sec):    32276.418
                            User time (sec):    24662.729
                          System time (sec):     7613.690
                         Elapsed time (sec):    32294.306
  
                   Maximum memory used (kb):     1417168.
                   Average memory used (kb):           0.
  
                          Minor page faults:    186089482
                          Major page faults:            1
                 Voluntary context switches:         1567
