 running on    3 total cores
 distrk:  each k-point on    3 cores,    1 groups
 distr:  one band on    1 cores,    3 groups
 using from now: INCAR     
 vasp.5.3.5 31Mar14 (build Nov 02 2014 15:17:37) complex                        
  
 POSCAR found :  1 types and      32 ions
 scaLAPACK will be used

 ----------------------------------------------------------------------------- 
|                                                                             |
|  ADVICE TO THIS USER RUNNING 'VASP/VAMP'   (HEAR YOUR MASTER'S VOICE ...):  |
|                                                                             |
|      You have a (more or less) 'large supercell' and for larger cells       |
|      it might be more efficient to use real space projection operators      |
|      So try LREAL= Auto  in the INCAR   file.                               |
|      Mind: If you want to do a very accurate calculations keep the          |
|      reciprocal projection scheme          (i.e. LREAL=.FALSE.)             |
|                                                                             |
 ----------------------------------------------------------------------------- 

 LDA part: xc-table for Pade appr. of Perdew
 POSCAR, INCAR and KPOINTS ok, starting setup
 WARNING: small aliasing (wrap around) errors must be expected
 FFT: planning ...
 WAVECAR not read
 WARNING: random wavefunctions but no delay for mixing, default for NELMDL
 entering main loop
       N       E                     dE             d eps       ncg     rms          rms(c)
DAV:   1     0.622947602014E+03    0.62295E+03   -0.71652E+04 26424   0.166E+03
DAV:   2    -0.257820558642E+03   -0.88077E+03   -0.83990E+03 32886   0.324E+02
DAV:   3    -0.312419536676E+03   -0.54599E+02   -0.53960E+02 31248   0.815E+01
DAV:   4    -0.313633471528E+03   -0.12139E+01   -0.12110E+01 32643   0.130E+01
DAV:   5    -0.313674308779E+03   -0.40837E-01   -0.40823E-01 33516   0.218E+00    0.221E+01
DAV:   6    -0.299208671420E+03    0.14466E+02   -0.15028E+01 29331   0.111E+01    0.116E+01
DAV:   7    -0.294624287478E+03    0.45844E+01   -0.15779E+01 29070   0.113E+01    0.194E+00
DAV:   8    -0.294685241041E+03   -0.60954E-01   -0.35183E-01 29592   0.189E+00    0.339E-01
DAV:   9    -0.294686229348E+03   -0.98831E-03   -0.22563E-02 30411   0.539E-01    0.151E-01
DAV:  10    -0.294686609063E+03   -0.37971E-03   -0.26663E-03 31050   0.225E-01    0.102E-01
DAV:  11    -0.294687055818E+03   -0.44676E-03   -0.16367E-03 30366   0.142E-01    0.822E-02
DAV:  12    -0.294687456363E+03   -0.40055E-03   -0.11216E-03 29178   0.113E-01    0.500E-02
DAV:  13    -0.294687572440E+03   -0.11608E-03   -0.14509E-03 33192   0.127E-01    0.511E-02
DAV:  14    -0.294687482131E+03    0.90309E-04   -0.33970E-04 31068   0.785E-02    0.133E-02
DAV:  15    -0.294687486271E+03   -0.41398E-05   -0.46846E-05 29556   0.233E-02    0.873E-03
DAV:  16    -0.294687490519E+03   -0.42479E-05   -0.36230E-05 22482   0.109E-02    0.167E-02
DAV:  17    -0.294687492195E+03   -0.16759E-05   -0.11766E-04 19134   0.151E-02    0.182E-02
DAV:  18    -0.294687488169E+03    0.40263E-05   -0.55779E-06 17622   0.672E-03    0.130E-02
DAV:  19    -0.294687488740E+03   -0.57114E-06   -0.15498E-06 17631   0.338E-03
   1 F= -.29967099E+03 E0= -.29967099E+03  d E =0.000000E+00
