  32  32   0   0
  0.9254429E+01  0.4932875E-09  0.4932875E-09  0.1405931E-08  0.5000000E-15
  1.000000000000000E-004
  CAR 
 graphite                                
     15.12513048    -17.31387547  301      4.27981620      1.00000000
    -17.314  0.0000E+00  0.0000E+00
    -17.206  0.0000E+00  0.0000E+00
    -17.098  0.0000E+00  0.0000E+00
    -16.989  0.0000E+00  0.0000E+00
    -16.881  0.0000E+00  0.0000E+00
    -16.773  0.0000E+00  0.0000E+00
    -16.665  0.0000E+00  0.0000E+00
    -16.557  0.0000E+00  0.0000E+00
    -16.449  0.0000E+00  0.0000E+00
    -16.341  0.0000E+00  0.0000E+00
    -16.233  0.0000E+00  0.0000E+00
    -16.124  0.0000E+00  0.0000E+00
    -16.016  0.0000E+00  0.0000E+00
    -15.908  0.0000E+00  0.0000E+00
    -15.800  0.0000E+00  0.0000E+00
    -15.692  0.0000E+00  0.0000E+00
    -15.584  0.0000E+00  0.0000E+00
    -15.476  0.0000E+00  0.0000E+00
    -15.368  0.0000E+00  0.0000E+00
    -15.259  0.1329E+01  0.2810E-01
    -15.151  0.3056E+01  0.2744E+00
    -15.043  0.5187E+01  0.7414E+00
    -14.935  0.4940E+01  0.1266E+01
    -14.827  0.4898E+01  0.1799E+01
    -14.719  0.4971E+01  0.2334E+01
    -14.611  0.4911E+01  0.2870E+01
    -14.502  0.4913E+01  0.3398E+01
    -14.394  0.5025E+01  0.3936E+01
    -14.286  0.4992E+01  0.4477E+01
    -14.178  0.4961E+01  0.5015E+01
    -14.070  0.5745E+01  0.5593E+01
    -13.962  0.6133E+01  0.6233E+01
    -13.854  0.6478E+01  0.6933E+01
    -13.746  0.4874E+01  0.7521E+01
    -13.637  0.1822E+01  0.7776E+01
    -13.529  0.4052E+01  0.8080E+01
    -13.421  0.4541E+01  0.8567E+01
    -13.313  0.4403E+01  0.9054E+01
    -13.205  0.6925E+01  0.9842E+01
    -13.097  0.4281E+01  0.1057E+02
    -12.989  0.4370E+01  0.1104E+02
    -12.881  0.4507E+01  0.1152E+02
    -12.772  0.4616E+01  0.1201E+02
    -12.664  0.4725E+01  0.1251E+02
    -12.556  0.5381E+01  0.1306E+02
    -12.448  0.6098E+01  0.1368E+02
    -12.340  0.5364E+01  0.1429E+02
    -12.232  0.5632E+01  0.1489E+02
    -12.124  0.5109E+01  0.1546E+02
    -12.016  0.4809E+01  0.1599E+02
    -11.907  0.4910E+01  0.1652E+02
    -11.799  0.4988E+01  0.1706E+02
    -11.691  0.5048E+01  0.1760E+02
    -11.583  0.5193E+01  0.1815E+02
    -11.475  0.5584E+01  0.1873E+02
    -11.367  0.5819E+01  0.1936E+02
    -11.259  0.5694E+01  0.1998E+02
    -11.150  0.5649E+01  0.2059E+02
    -11.042  0.5765E+01  0.2121E+02
    -10.934  0.5106E+01  0.2182E+02
    -10.826  0.5086E+01  0.2234E+02
    -10.718  0.5387E+01  0.2291E+02
    -10.610  0.5369E+01  0.2349E+02
    -10.502  0.5496E+01  0.2407E+02
    -10.394  0.5715E+01  0.2468E+02
    -10.285  0.5950E+01  0.2531E+02
    -10.177  0.8016E+01  0.2604E+02
    -10.069  0.9340E+01  0.2710E+02
     -9.961  0.6118E+01  0.2793E+02
     -9.853  0.7576E+01  0.2854E+02
     -9.745  0.7559E+01  0.2932E+02
     -9.637  0.3528E+01  0.2972E+02
     -9.529  0.3160E+01  0.3008E+02
     -9.420  0.2792E+01  0.3040E+02
     -9.312  0.2424E+01  0.3069E+02
     -9.204  0.2495E+01  0.3094E+02
     -9.096  0.3046E+01  0.3128E+02
     -8.988  0.1411E+01  0.3152E+02
     -8.880  0.1744E+01  0.3168E+02
     -8.772  0.2661E+01  0.3191E+02
     -8.663  0.7710E+01  0.3242E+02
     -8.555  0.4253E+01  0.3313E+02
     -8.447  0.3968E+01  0.3355E+02
     -8.339  0.4297E+01  0.3400E+02
     -8.231  0.8519E+01  0.3470E+02
     -8.123  0.6450E+01  0.3544E+02
     -8.015  0.7552E+01  0.3620E+02
     -7.907  0.8611E+01  0.3707E+02
     -7.798  0.7753E+01  0.3802E+02
     -7.690  0.6248E+01  0.3873E+02
     -7.582  0.5991E+01  0.3939E+02
     -7.474  0.5738E+01  0.4002E+02
     -7.366  0.5510E+01  0.4063E+02
     -7.258  0.5324E+01  0.4122E+02
     -7.150  0.5143E+01  0.4178E+02
     -7.042  0.4946E+01  0.4233E+02
     -6.933  0.4846E+01  0.4286E+02
     -6.825  0.4818E+01  0.4338E+02
     -6.717  0.4786E+01  0.4390E+02
     -6.609  0.4600E+01  0.4441E+02
     -6.501  0.4406E+01  0.4489E+02
     -6.393  0.4047E+01  0.4536E+02
     -6.285  0.4025E+01  0.4578E+02
     -6.176  0.4384E+01  0.4622E+02
     -6.068  0.5010E+01  0.4673E+02
     -5.960  0.5930E+01  0.4732E+02
     -5.852  0.6704E+01  0.4800E+02
     -5.744  0.1043E+02  0.4899E+02
     -5.636  0.8199E+01  0.5000E+02
     -5.528  0.5973E+01  0.5076E+02
     -5.420  0.3746E+01  0.5129E+02
     -5.311  0.2716E+01  0.5161E+02
     -5.203  0.3229E+01  0.5192E+02
     -5.095  0.4508E+01  0.5234E+02
     -4.987  0.5806E+01  0.5289E+02
     -4.879  0.7502E+01  0.5360E+02
     -4.771  0.7800E+01  0.5447E+02
     -4.663  0.6605E+01  0.5525E+02
     -4.555  0.5594E+01  0.5590E+02
     -4.446  0.7673E+01  0.5659E+02
     -4.338  0.7163E+01  0.5739E+02
     -4.230  0.6653E+01  0.5814E+02
     -4.122  0.6143E+01  0.5883E+02
     -4.014  0.5699E+01  0.5947E+02
     -3.906  0.6588E+01  0.6011E+02
     -3.798  0.9600E+01  0.6127E+02
     -3.689  0.9621E+01  0.6236E+02
     -3.581  0.7779E+01  0.6329E+02
     -3.473  0.6607E+01  0.6406E+02
     -3.365  0.6861E+01  0.6477E+02
     -3.257  0.7677E+01  0.6555E+02
     -3.149  0.8774E+01  0.6644E+02
     -3.041  0.1079E+02  0.6748E+02
     -2.933  0.1390E+02  0.6889E+02
     -2.824  0.1227E+02  0.7042E+02
     -2.716  0.1261E+02  0.7175E+02
     -2.608  0.1303E+02  0.7320E+02
     -2.500  0.1614E+02  0.7468E+02
     -2.392  0.1160E+02  0.7620E+02
     -2.284  0.1927E+02  0.7776E+02
     -2.176  0.1231E+02  0.7941E+02
     -2.068  0.1980E+02  0.8083E+02
     -1.959  0.1724E+02  0.8296E+02
     -1.851  0.1765E+02  0.8488E+02
     -1.743  0.1432E+02  0.8669E+02
     -1.635  0.1080E+02  0.8804E+02
     -1.527  0.8952E+01  0.8910E+02
     -1.419  0.1249E+02  0.9015E+02
     -1.311  0.8632E+01  0.9110E+02
     -1.203  0.1131E+02  0.9217E+02
     -1.094  0.1276E+02  0.9354E+02
     -0.986  0.1885E+02  0.9507E+02
     -0.878  0.9353E+01  0.9630E+02
     -0.770  0.1061E+02  0.9740E+02
     -0.662  0.1063E+02  0.9858E+02
     -0.554  0.1043E+02  0.9970E+02
     -0.446  0.1041E+02  0.1009E+03
     -0.337  0.9634E+01  0.1019E+03
     -0.229  0.9638E+01  0.1030E+03
     -0.121  0.9444E+01  0.1041E+03
     -0.013  0.9346E+01  0.1051E+03
      0.095  0.9158E+01  0.1061E+03
      0.203  0.9116E+01  0.1071E+03
      0.311  0.9570E+01  0.1081E+03
      0.419  0.9443E+01  0.1091E+03
      0.528  0.9353E+01  0.1101E+03
      0.636  0.9226E+01  0.1111E+03
      0.744  0.9248E+01  0.1121E+03
      0.852  0.9467E+01  0.1131E+03
      0.960  0.9384E+01  0.1141E+03
      1.068  0.9686E+01  0.1152E+03
      1.176  0.9716E+01  0.1163E+03
      1.284  0.7075E+01  0.1172E+03
      1.393  0.6250E+01  0.1179E+03
      1.501  0.5523E+01  0.1186E+03
      1.609  0.4679E+01  0.1191E+03
      1.717  0.4051E+01  0.1196E+03
      1.825  0.3834E+01  0.1200E+03
      1.933  0.6742E+01  0.1205E+03
      2.041  0.1001E+02  0.1215E+03
      2.150  0.8632E+01  0.1224E+03
      2.258  0.7391E+01  0.1234E+03
      2.366  0.5598E+01  0.1241E+03
      2.474  0.4749E+01  0.1247E+03
      2.582  0.4072E+01  0.1251E+03
      2.690  0.3449E+01  0.1255E+03
      2.798  0.3180E+01  0.1259E+03
      2.906  0.3004E+01  0.1262E+03
      3.015  0.2766E+01  0.1265E+03
      3.123  0.2299E+01  0.1268E+03
      3.231  0.2015E+01  0.1270E+03
      3.339  0.1784E+01  0.1272E+03
      3.447  0.1545E+01  0.1274E+03
      3.555  0.1305E+01  0.1276E+03
      3.663  0.1066E+01  0.1277E+03
      3.771  0.8278E+00  0.1278E+03
      3.880  0.6090E+00  0.1279E+03
      3.988  0.4221E+00  0.1279E+03
      4.096  0.2527E+00  0.1280E+03
      4.204  0.9737E-01  0.1280E+03
      4.312  0.2686E-01  0.1280E+03
      4.420  0.1472E+00  0.1280E+03
      4.528  0.2819E+00  0.1280E+03
      4.637  0.4350E+00  0.1281E+03
      4.745  0.6127E+00  0.1281E+03
      4.853  0.8403E+00  0.1282E+03
      4.961  0.1091E+01  0.1283E+03
      5.069  0.1483E+01  0.1284E+03
      5.177  0.1868E+01  0.1286E+03
      5.285  0.2250E+01  0.1289E+03
      5.393  0.2815E+01  0.1291E+03
      5.502  0.2774E+01  0.1294E+03
      5.610  0.3540E+01  0.1298E+03
      5.718  0.4411E+01  0.1302E+03
      5.826  0.7995E+01  0.1309E+03
      5.934  0.8308E+01  0.1319E+03
      6.042  0.8468E+01  0.1329E+03
      6.150  0.9025E+01  0.1338E+03
      6.258  0.6650E+01  0.1346E+03
      6.367  0.6292E+01  0.1353E+03
      6.475  0.5917E+01  0.1360E+03
      6.583  0.5494E+01  0.1366E+03
      6.691  0.5023E+01  0.1372E+03
      6.799  0.4413E+01  0.1377E+03
      6.907  0.3768E+01  0.1381E+03
      7.015  0.3634E+01  0.1385E+03
      7.124  0.4029E+01  0.1389E+03
      7.232  0.4540E+01  0.1394E+03
      7.340  0.4719E+01  0.1399E+03
      7.448  0.4535E+01  0.1404E+03
      7.556  0.4396E+01  0.1409E+03
      7.664  0.4245E+01  0.1413E+03
      7.772  0.4101E+01  0.1418E+03
      7.880  0.3958E+01  0.1422E+03
      7.989  0.3795E+01  0.1426E+03
      8.097  0.3652E+01  0.1430E+03
      8.205  0.3550E+01  0.1434E+03
      8.313  0.3658E+01  0.1438E+03
      8.421  0.3892E+01  0.1442E+03
      8.529  0.3968E+01  0.1446E+03
      8.637  0.4047E+01  0.1451E+03
      8.745  0.4118E+01  0.1455E+03
      8.854  0.4256E+01  0.1460E+03
      8.962  0.4282E+01  0.1464E+03
      9.070  0.4345E+01  0.1469E+03
      9.178  0.4333E+01  0.1474E+03
      9.286  0.4177E+01  0.1478E+03
      9.394  0.4171E+01  0.1483E+03
      9.502  0.4166E+01  0.1487E+03
      9.610  0.4153E+01  0.1492E+03
      9.719  0.4288E+01  0.1496E+03
      9.827  0.4467E+01  0.1501E+03
      9.935  0.4514E+01  0.1506E+03
     10.043  0.4773E+01  0.1511E+03
     10.151  0.4831E+01  0.1516E+03
     10.259  0.5752E+01  0.1522E+03
     10.367  0.4922E+01  0.1527E+03
     10.476  0.4834E+01  0.1533E+03
     10.584  0.5108E+01  0.1538E+03
     10.692  0.5757E+01  0.1544E+03
     10.800  0.4239E+01  0.1549E+03
     10.908  0.3713E+01  0.1553E+03
     11.016  0.3599E+01  0.1557E+03
     11.124  0.3225E+01  0.1561E+03
     11.232  0.3371E+01  0.1564E+03
     11.341  0.4063E+01  0.1568E+03
     11.449  0.4302E+01  0.1573E+03
     11.557  0.5285E+01  0.1578E+03
     11.665  0.8606E+01  0.1586E+03
     11.773  0.1069E+02  0.1596E+03
     11.881  0.1262E+02  0.1609E+03
     11.989  0.1370E+02  0.1623E+03
     12.097  0.1249E+02  0.1638E+03
     12.206  0.1038E+02  0.1650E+03
     12.314  0.8037E+01  0.1660E+03
     12.422  0.5042E+01  0.1667E+03
     12.530  0.4268E+01  0.1672E+03
     12.638  0.2871E+01  0.1676E+03
     12.746  0.1648E+01  0.1678E+03
     12.854  0.8288E+00  0.1679E+03
     12.963  0.1187E+00  0.1680E+03
     13.071  0.4407E-02  0.1680E+03
     13.179  0.0000E+00  0.1680E+03
     13.287  0.0000E+00  0.1680E+03
     13.395  0.0000E+00  0.1680E+03
     13.503  0.0000E+00  0.1680E+03
     13.611  0.0000E+00  0.1680E+03
     13.719  0.0000E+00  0.1680E+03
     13.828  0.0000E+00  0.1680E+03
     13.936  0.0000E+00  0.1680E+03
     14.044  0.0000E+00  0.1680E+03
     14.152  0.0000E+00  0.1680E+03
     14.260  0.0000E+00  0.1680E+03
     14.368  0.0000E+00  0.1680E+03
     14.476  0.0000E+00  0.1680E+03
     14.584  0.0000E+00  0.1680E+03
     14.693  0.0000E+00  0.1680E+03
     14.801  0.0000E+00  0.1680E+03
     14.909  0.0000E+00  0.1680E+03
     15.017  0.0000E+00  0.1680E+03
     15.125  0.0000E+00  0.1680E+03
