       N       E                     dE             d eps       ncg     rms          rms(c)
DAV:   1     0.611587350298E+03    0.61159E+03   -0.71173E+04 27396   0.159E+03
DAV:   2    -0.260999160040E+03   -0.87259E+03   -0.84165E+03 34272   0.312E+02
DAV:   3    -0.313116404191E+03   -0.52117E+02   -0.51642E+02 33384   0.769E+01
DAV:   4    -0.314131418051E+03   -0.10150E+01   -0.10131E+01 35316   0.117E+01
DAV:   5    -0.314160894301E+03   -0.29476E-01   -0.29463E-01 35328   0.184E+00    0.221E+01
DAV:   6    -0.299520798874E+03    0.14640E+02   -0.15043E+01 31296   0.107E+01    0.116E+01
DAV:   7    -0.294820757852E+03    0.47000E+01   -0.16085E+01 30828   0.111E+01    0.196E+00
DAV:   8    -0.294895123957E+03   -0.74366E-01   -0.46686E-01 31080   0.197E+00    0.395E-01
DAV:   9    -0.294895258864E+03   -0.13491E-03   -0.25639E-02 32136   0.580E-01    0.203E-01
DAV:  10    -0.294896402146E+03   -0.11433E-02   -0.34804E-02 42444   0.457E-01    0.183E-01
DAV:  11    -0.294895427039E+03    0.97511E-03   -0.63321E-03 31416   0.263E-01    0.787E-02
DAV:  12    -0.294896385183E+03   -0.95814E-03   -0.73141E-03 34524   0.206E-01    0.104E-01
DAV:  13    -0.294896420795E+03   -0.35611E-04   -0.13660E-03 31296   0.103E-01    0.915E-02
DAV:  14    -0.294896275381E+03    0.14541E-03   -0.40348E-04 33408   0.563E-02    0.683E-02
DAV:  15    -0.294896185864E+03    0.89517E-04   -0.27191E-03 46704   0.120E-01    0.473E-02
DAV:  16    -0.294896139095E+03    0.46769E-04   -0.49299E-04 31824   0.509E-02    0.110E-02
DAV:  17    -0.294896143619E+03   -0.45235E-05   -0.56005E-05 32676   0.201E-02    0.142E-02
DAV:  18    -0.294896140870E+03    0.27489E-05   -0.96644E-05 28764   0.180E-02    0.981E-03
DAV:  19    -0.294896139511E+03    0.13584E-05   -0.33024E-05 20124   0.110E-02    0.532E-03
DAV:  20    -0.294896140596E+03   -0.10848E-05   -0.35838E-05 19464   0.103E-02    0.945E-03
DAV:  21    -0.294896139041E+03    0.15548E-05   -0.17109E-05 19380   0.765E-03    0.289E-03
DAV:  22    -0.294896139024E+03    0.16749E-07   -0.38789E-06 19104   0.380E-03
   1 F= -.29962662E+03 E0= -.29962662E+03  d E =0.000000E+00
