   32   32    1    1
  0.8992511E+01  0.4932875E-09  0.4932875E-09  0.1366141E-08  0.5000000E-15
  1.000000000000000E-004
  CAR 
 graphite                                
    128     76     84
 
  0.0000000E+00  0.0000000E+00  0.0000000E+00  0.6944444E-02
    1      -15.093577
    2      -14.967149
    3      -14.966678
    4      -14.832552
    5       -9.782611
    6       -9.772107
    7       -9.769771
    8       -9.731950
    9       -9.730374
   10       -9.720190
   11       -9.718768
   12       -9.718726
   13       -9.714928
   14       -9.687171
   15       -9.674707
   16       -9.671560
   17       -8.710699
   18       -8.709238
   19       -8.707530
   20       -8.682040
   21       -8.681456
   22       -8.679328
   23       -8.678782
   24       -8.678731
   25       -8.676306
   26       -8.636516
   27       -8.635974
   28       -8.633992
   29       -3.907576
   30       -3.095919
   31       -3.094422
   32       -2.114583
   33       -1.884441
   34       -1.882208
   35       -1.866738
   36       -1.861406
   37       -1.860764
   38       -1.860755
   39       -1.856820
   40       -1.844047
   41       -1.841972
   42       -1.837639
   43       -1.834881
   44       -1.819573
   45        1.509195
   46        1.515810
   47        1.515839
   48        1.520731
   49        1.527424
   50        1.532023
   51        1.532317
   52        1.538484
   53        1.801477
   54        1.804374
   55        1.805948
   56        2.158599
   57        2.161761
   58        2.168631
   59        2.169022
   60        2.169197
   61        2.173561
   62        2.414759
   63        2.431859
   64        2.434424
   65        6.026662
   66        6.029734
   67        6.035240
   68        6.175653
   69        6.177555
   70        6.179856
   71        6.182043
   72        6.182278
   73        6.184724
   74        6.653899
   75        6.660943
   76        6.663425
   77        8.681482
   78       11.178786
   79       11.182676
   80       11.739609
   81       11.743409
   82       11.775260
   83       11.910750
   84       11.915040
 
  0.1666667E+00 -0.1387779E-16  0.0000000E+00  0.1388889E-01
    1      -14.928105
    2      -14.802909
    3      -14.802446
    4      -14.669739
    5      -11.077618
    6      -10.982286
    7      -10.981859
    8      -10.882468
    9      -10.207185
   10      -10.199917
   11      -10.123644
   12      -10.123045
   13      -10.116003
   14      -10.115105
   15      -10.037044
   16      -10.029136
   17       -8.086033
   18       -8.080013
   19       -8.020126
   20       -8.018045
   21       -8.013055
   22       -8.012254
   23       -7.947789
   24       -7.941444
   25       -7.241880
   26       -7.173838
   27       -7.172471
   28       -7.101901
   29       -3.706748
   30       -2.900247
   31       -2.898751
   32       -2.374992
   33       -2.358347
   34       -2.346214
   35       -2.345975
   36       -2.330174
   37       -2.328293
   38       -2.316727
   39       -2.299957
   40       -1.926006
   41       -1.719936
   42       -1.698464
   43       -1.695594
   44       -1.673812
   45        0.729117
   46        0.858884
   47        0.872252
   48        0.876177
   49        0.888844
   50        1.171027
   51        1.181173
   52        1.185594
   53        1.197136
   54        1.321586
   55        1.323984
   56        1.581921
   57        1.586386
   58        1.964811
   59        2.051359
   60        2.054309
   61        2.060046
   62        2.061415
   63        2.486858
   64        2.499755
   65        6.221439
   66        6.224157
   67        6.456633
   68        6.459748
   69        6.462391
   70        6.465068
   71        6.918460
   72        6.932827
   73        6.939666
   74        7.280514
   75        7.283783
   76        7.820839
   77        8.883015
   78       11.357002
   79       11.360770
   80       11.831578
   81       11.994471
   82       11.995912
   83       12.157687
   84       12.479839
 
  0.3333333E+00 -0.5551115E-16  0.0000000E+00  0.1388889E-01
    1      -14.433480
    2      -14.312002
    3      -14.311563
    4      -14.183047
    5      -12.486745
    6      -12.379857
    7      -12.379473
    8      -12.267302
    9      -10.628974
   10      -10.625315
   11      -10.537621
   12      -10.537106
   13      -10.533886
   14      -10.532712
   15      -10.441735
   16      -10.437911
   17       -6.912924
   18       -6.903864
   19       -6.851761
   20       -6.849641
   21       -6.842066
   22       -6.840962
   23       -6.786225
   24       -6.777298
   25       -5.127531
   26       -5.071747
   27       -5.070121
   28       -5.012880
   29       -3.531005
   30       -3.516954
   31       -3.493086
   32       -3.492755
   33       -3.479632
   34       -3.477706
   35       -3.453503
   36       -3.439297
   37       -3.108738
   38       -2.318368
   39       -2.316875
   40       -1.366683
   41       -1.246101
   42       -1.225527
   43       -1.222445
   44       -1.201708
   45       -0.809994
   46       -0.791934
   47       -0.766272
   48       -0.763453
   49       -0.737527
   50       -0.101748
   51       -0.099979
   52        0.372751
   53        0.387977
   54        0.392127
   55        0.407867
   56        0.727262
   57        1.283934
   58        1.287253
   59        1.863002
   60        1.865826
   61        1.868794
   62        1.869949
   63        2.495520
   64        2.502049
   65        6.736228
   66        6.739365
   67        7.032639
   68        7.034748
   69        7.037316
   70        7.040561
   71        7.413263
   72        7.416791
   73        9.069072
   74        9.420089
   75        9.423403
   76        9.489659
   77        9.880309
   78       11.810543
   79       11.874402
   80       11.877584
   81       12.137618
   82       12.222480
   83       12.224375
   84       12.486349
 
  0.5000000E+00  0.0000000E+00  0.0000000E+00  0.6944444E-02
    1      -13.617013
    2      -13.614250
    3      -13.502673
    4      -13.500173
    5      -13.500147
    6      -13.497099
    7      -13.379576
    8      -13.376750
    9      -10.777375
   10      -10.775695
   11      -10.684521
   12      -10.683193
   13      -10.683161
   14      -10.681068
   15      -10.586442
   16      -10.584696
   17       -6.004444
   18       -6.002763
   19       -5.971136
   20       -5.971126
   21       -5.970385
   22       -5.966421
   23       -5.938663
   24       -5.936156
   25       -4.418276
   26       -4.416511
   27       -4.397447
   28       -4.394910
   29       -4.393942
   30       -4.393932
   31       -4.368778
   32       -4.367721
   33       -2.909415
   34       -2.905984
   35       -2.869676
   36       -2.864532
   37       -2.864515
   38       -2.863817
   39       -2.823925
   40       -2.821330
   41       -2.130460
   42       -2.128227
   43       -1.370455
   44       -1.368339
   45       -1.368257
   46       -1.364923
   47       -0.512850
   48       -0.509457
   49       -0.493250
   50       -0.492081
   51       -0.492069
   52       -0.484774
   53       -0.472464
   54       -0.464998
   55       -0.461691
   56       -0.459094
   57        1.166541
   58        1.168499
   59        1.779061
   60        1.782422
   61        1.782823
   62        1.784185
   63        2.474816
   64        2.477212
   65        7.067545
   66        7.069897
   67        7.338148
   68        7.339050
   69        7.339531
   70        7.344284
   71        7.612332
   72        7.615088
   73       10.492214
   74       10.493104
   75       11.494294
   76       11.497870
   77       11.690838
   78       11.696438
   79       11.697967
   80       11.701635
   81       12.061177
   82       12.064533
   83       12.461706
   84       12.465952
 
  0.1355253E-19  0.1666667E+00  0.0000000E+00  0.1388889E-01
    1      -14.928101
    2      -14.802908
    3      -14.802439
    4      -14.669735
    5      -11.077631
    6      -10.982291
    7      -10.981892
    8      -10.882495
    9      -10.207286
   10      -10.199681
   11      -10.123858
   12      -10.123056
   13      -10.115996
   14      -10.114486
   15      -10.037080
   16      -10.028840
   17       -8.086374
   18       -8.080899
   19       -8.020135
   20       -8.019342
   21       -8.013184
   22       -8.012964
   23       -7.948048
   24       -7.942118
   25       -7.240973
   26       -7.172497
   27       -7.172053
   28       -7.101044
   29       -3.706758
   30       -2.900257
   31       -2.898765
   32       -2.373854
   33       -2.358214
   34       -2.346201
   35       -2.343622
   36       -2.330186
   37       -2.328292
   38       -2.315476
   39       -2.299981
   40       -1.926020
   41       -1.721002
   42       -1.698471
   43       -1.698041
   44       -1.675273
   45        0.728545
   46        0.862369
   47        0.876182
   48        0.876588
   49        0.890520
   50        1.169479
   51        1.181163
   52        1.181437
   53        1.193037
   54        1.321289
   55        1.322798
   56        1.582009
   57        1.587286
   58        1.963823
   59        2.051766
   60        2.054265
   61        2.060187
   62        2.063311
   63        2.486984
   64        2.501038
   65        6.219674
   66        6.223780
   67        6.456282
   68        6.458015
   69        6.461986
   70        6.463460
   71        6.920103
   72        6.932454
   73        6.938112
   74        7.282814
   75        7.284490
   76        7.822245
   77        8.883005
   78       11.356955
   79       11.360724
   80       11.830958
   81       11.994317
   82       11.994791
   83       12.157028
   84       12.479041
 
  0.1666667E+00  0.1666667E+00  0.0000000E+00  0.1388889E-01
    1      -14.597815
    2      -14.475110
    3      -14.474662
    4      -14.344750
    5      -11.699093
    6      -11.696197
    7      -11.599365
    8      -11.596791
    9      -11.596764
   10      -11.593521
   11      -11.492447
   12      -11.489479
   13       -9.357523
   14       -9.308805
   15       -9.307684
   16       -9.266260
   17       -8.305760
   18       -8.282035
   19       -8.278503
   20       -8.241765
   21       -6.133269
   22       -6.129803
   23       -6.073345
   24       -6.069604
   25       -6.069579
   26       -6.066598
   27       -6.007883
   28       -6.004535
   29       -3.703057
   30       -3.663877
   31       -3.662128
   32       -3.621768
   33       -3.306985
   34       -2.511088
   35       -2.509594
   36       -2.046940
   37       -2.044370
   38       -2.019921
   39       -2.018507
   40       -2.018498
   41       -2.014337
   42       -1.991070
   43       -1.987880
   44       -1.551641
   45       -0.175218
   46       -0.162034
   47       -0.158120
   48       -0.146428
   49        0.088392
   50        0.090351
   51        0.494498
   52        0.502409
   53        0.506697
   54        0.517257
   55        0.746517
   56        0.748595
   57        0.748746
   58        0.751987
   59        1.501706
   60        1.504179
   61        2.400629
   62        2.756554
   63        2.759265
   64        3.001412
   65        5.945048
   66        5.962279
   67        5.967052
   68        6.231392
   69        7.871800
   70        7.874457
   71        8.232052
   72        8.235654
   73        8.235961
   74        8.237917
   75        8.696952
   76        8.699488
   77        9.288413
   78       11.715923
   79       11.719429
   80       12.607860
   81       12.611474
   82       12.807308
   83       12.808258
   84       12.812837
 
  0.3333333E+00  0.1666667E+00  0.0000000E+00  0.1388889E-01
    1      -13.941330
    2      -13.823533
    3      -13.823123
    4      -13.698779
    5      -12.969237
    6      -12.858742
    7      -12.858326
    8      -12.742125
    9      -12.014293
   10      -11.911103
   11      -11.910584
   12      -11.802505
   13       -9.339391
   14       -9.262802
   15       -9.262527
   16       -9.184131
   17       -7.445716
   18       -7.395548
   19       -7.392644
   20       -7.340636
   21       -5.137203
   22       -5.098721
   23       -5.096842
   24       -5.055041
   25       -4.973910
   26       -4.930382
   27       -4.928607
   28       -4.884695
   29       -3.992195
   30       -3.946339
   31       -3.944747
   32       -3.897846
   33       -2.946445
   34       -2.917204
   35       -2.915918
   36       -2.884982
   37       -2.517171
   38       -1.903208
   39       -1.876827
   40       -1.873339
   41       -1.844588
   42       -1.742825
   43       -1.741039
   44       -1.407254
   45       -1.383767
   46       -1.380990
   47       -1.363986
   48       -1.356932
   49       -0.816911
   50       -0.630752
   51       -0.629174
   52       -0.510699
   53       -0.494228
   54       -0.489682
   55       -0.472154
   56       -0.246500
   57        0.238149
   58        0.440968
   59        0.442385
   60        1.243305
   61        2.696729
   62        3.165042
   63        3.167419
   64        3.608122
   65        5.618705
   66        5.819401
   67        5.823116
   68        6.109914
   69        8.677434
   70        8.950312
   71        8.952466
   72        9.242252
   73       10.098004
   74       10.164843
   75       10.442862
   76       10.445185
   77       10.787738
   78       11.298138
   79       12.349100
   80       12.357125
   81       12.420159
   82       12.498964
   83       12.653193
   84       12.662678
 
  0.5000000E+00  0.1666667E+00  0.0000000E+00  0.1388889E-01
    1      -13.942529
    2      -13.824736
    3      -13.824305
    4      -13.699967
    5      -12.967553
    6      -12.857051
    7      -12.856656
    8      -12.740448
    9      -12.015513
   10      -11.912330
   11      -11.911801
   12      -11.803732
   13       -9.336553
   14       -9.259723
   15       -9.259415
   16       -9.180733
   17       -7.441094
   18       -7.390003
   19       -7.388808
   20       -7.335953
   21       -5.145368
   22       -5.106477
   23       -5.106036
   24       -5.063774
   25       -4.983261
   26       -4.940087
   27       -4.936949
   28       -4.893316
   29       -3.995879
   30       -3.950378
   31       -3.948089
   32       -3.901553
   33       -2.935393
   34       -2.906579
   35       -2.903728
   36       -2.873312
   37       -2.518458
   38       -1.901113
   39       -1.874058
   40       -1.872448
   41       -1.842865
   42       -1.744063
   43       -1.742308
   44       -1.403784
   45       -1.380658
   46       -1.377068
   47       -1.362260
   48       -1.353319
   49       -0.818181
   50       -0.629094
   51       -0.627440
   52       -0.512532
   53       -0.495380
   54       -0.492815
   55       -0.475007
   56       -0.247764
   57        0.239802
   58        0.439514
   59        0.440978
   60        1.241585
   61        2.697829
   62        3.168928
   63        3.170499
   64        3.616333
   65        5.615513
   66        5.819951
   67        5.822122
   68        6.109523
   69        8.673657
   70        8.946946
   71        8.949727
   72        9.241000
   73       10.096298
   74       10.165217
   75       10.441507
   76       10.444308
   77       10.785309
   78       11.300500
   79       12.349071
   80       12.356988
   81       12.417648
   82       12.497696
   83       12.651206
   84       12.660717
 
 -0.3333333E+00  0.1666667E+00  0.0000000E+00  0.1388889E-01
    1      -14.598530
    2      -14.475830
    3      -14.475367
    4      -14.345459
    5      -11.701251
    6      -11.695456
    7      -11.600544
    8      -11.600038
    9      -11.594669
   10      -11.594294
   11      -11.494732
   12      -11.488905
   13       -9.346987
   14       -9.296859
   15       -9.296491
   16       -9.253592
   17       -8.306332
   18       -8.280476
   19       -8.280111
   20       -8.241266
   21       -6.141119
   22       -6.135527
   23       -6.080528
   24       -6.078214
   25       -6.074683
   26       -6.073105
   27       -6.015783
   28       -6.010447
   29       -3.716515
   30       -3.676731
   31       -3.676322
   32       -3.635337
   33       -3.307779
   34       -2.511873
   35       -2.510395
   36       -2.042423
   37       -2.029497
   38       -2.016144
   39       -2.013136
   40       -2.002856
   41       -2.000553
   42       -1.986383
   43       -1.973543
   44       -1.552428
   45       -0.179822
   46       -0.165839
   47       -0.165517
   48       -0.152216
   49        0.085507
   50        0.091583
   51        0.500657
   52        0.510007
   53        0.510256
   54        0.520564
   55        0.743638
   56        0.745193
   57        0.750168
   58        0.752222
   59        1.497365
   60        1.504976
   61        2.402832
   62        2.765207
   63        2.766759
   64        3.018010
   65        5.938831
   66        5.964085
   67        5.965791
   68        6.234563
   69        7.868340
   70        7.871643
   71        8.228027
   72        8.231256
   73        8.231645
   74        8.234597
   75        8.693902
   76        8.694801
   77        9.287348
   78       11.714786
   79       11.718288
   80       12.608420
   81       12.632469
   82       12.807427
   83       12.811647
   84       12.829152
 
 -0.1666667E+00  0.1666667E+00  0.0000000E+00  0.1388889E-01
    1      -14.928341
    2      -14.803147
    3      -14.802673
    4      -14.669971
    5      -11.083924
    6      -10.988652
    7      -10.988250
    8      -10.888931
    9      -10.198578
   10      -10.196634
   11      -10.115172
   12      -10.113665
   13      -10.113631
   14      -10.111080
   15      -10.027956
   16      -10.025819
   17       -8.084338
   18       -8.082503
   19       -8.018321
   20       -8.015886
   21       -8.015864
   22       -8.014800
   23       -7.945800
   24       -7.944103
   25       -7.248247
   26       -7.180578
   27       -7.178429
   28       -7.108206
   29       -3.707026
   30       -2.900520
   31       -2.899034
   32       -2.374529
   33       -2.372487
   34       -2.346058
   35       -2.345367
   36       -2.345356
   37       -2.341515
   38       -2.316505
   39       -2.313894
   40       -1.926287
   41       -1.703959
   42       -1.682097
   43       -1.679958
   44       -1.658016
   45        0.723065
   46        0.851102
   47        0.863498
   48        0.868147
   49        0.881706
   50        1.178368
   51        1.190000
   52        1.193980
   53        1.204197
   54        1.314429
   55        1.316216
   56        1.587352
   57        1.589154
   58        1.954826
   59        2.060420
   60        2.061331
   61        2.061511
   62        2.065648
   63        2.499631
   64        2.502172
   65        6.219219
   66        6.222279
   67        6.456730
   68        6.461585
   69        6.461806
   70        6.463066
   71        6.917476
   72        6.935115
   73        6.937687
   74        7.276322
   75        7.279944
   76        7.816332
   77        8.882637
   78       11.356538
   79       11.360307
   80       11.863849
   81       12.027010
   82       12.028050
   83       12.189740
   84       12.472213
 
  0.2710505E-19  0.3333333E+00  0.0000000E+00  0.1388889E-01
    1      -14.433463
    2      -14.311997
    3      -14.311535
    4      -14.183030
    5      -12.486709
    6      -12.379847
    7      -12.379412
    8      -12.267266
    9      -10.629302
   10      -10.625052
   11      -10.538397
   12      -10.537130
   13      -10.533883
   14      -10.531909
   15      -10.441988
   16      -10.437590
   17       -6.913431
   18       -6.904767
   19       -6.851773
   20       -6.851110
   21       -6.842128
   22       -6.841926
   23       -6.786635
   24       -6.778003
   25       -5.126501
   26       -5.070139
   27       -5.069734
   28       -5.011910
   29       -3.529843
   30       -3.516641
   31       -3.492764
   32       -3.490710
   33       -3.479052
   34       -3.477703
   35       -3.452212
   36       -3.439046
   37       -3.108781
   38       -2.318407
   39       -2.316938
   40       -1.366745
   41       -1.247279
   42       -1.225536
   43       -1.225173
   44       -1.203370
   45       -0.810036
   46       -0.790062
   47       -0.763452
   48       -0.762696
   49       -0.735914
   50       -0.101929
   51       -0.100448
   52        0.371246
   53        0.387968
   54        0.388329
   55        0.405084
   56        0.726836
   57        1.283966
   58        1.288095
   59        1.863341
   60        1.865746
   61        1.868838
   62        1.871747
   63        2.495766
   64        2.503098
   65        6.735065
   66        6.738493
   67        7.031268
   68        7.033117
   69        7.037316
   70        7.039367
   71        7.411799
   72        7.415991
   73        9.070248
   74        9.421691
   75        9.423764
   76        9.489663
   77        9.881280
   78       11.810353
   79       11.874191
   80       11.877386
   81       12.136947
   82       12.222272
   83       12.223034
   84       12.485704
 
  0.1666667E+00  0.3333333E+00  0.0000000E+00  0.1388889E-01
    1      -13.941316
    2      -13.823528
    3      -13.823098
    4      -13.698763
    5      -12.969201
    6      -12.858733
    7      -12.858262
    8      -12.742086
    9      -12.014338
   10      -11.911112
   11      -11.910666
   12      -11.802551
   13       -9.339328
   14       -9.262707
   15       -9.262486
   16       -9.184058
   17       -7.446064
   18       -7.395552
   19       -7.393482
   20       -7.341143
   21       -5.136758
   22       -5.097974
   23       -5.096839
   24       -5.054720
   25       -4.975252
   26       -4.931351
   27       -4.930383
   28       -4.886108
   29       -3.990845
   30       -3.944749
   31       -3.943681
   32       -3.896532
   33       -2.944836
   34       -2.915914
   35       -2.914009
   36       -2.883363
   37       -2.517208
   38       -1.901969
   39       -1.875016
   40       -1.873334
   41       -1.843855
   42       -1.742848
   43       -1.741078
   44       -1.408716
   45       -1.384159
   46       -1.383768
   47       -1.364195
   48       -1.358697
   49       -0.816960
   50       -0.630946
   51       -0.629491
   52       -0.511392
   53       -0.494231
   54       -0.491728
   55       -0.473943
   56       -0.246194
   57        0.237834
   58        0.441266
   59        0.442819
   60        1.243768
   61        2.697177
   62        3.165839
   63        3.167560
   64        3.608530
   65        5.618439
   66        5.819316
   67        5.821824
   68        6.108887
   69        8.676307
   70        8.949464
   71        8.951030
   72        9.241038
   73       10.098021
   74       10.165895
   75       10.443812
   76       10.446164
   77       10.788755
   78       11.298085
   79       12.348692
   80       12.356829
   81       12.420491
   82       12.498994
   83       12.653773
   84       12.663192
 
  0.3333333E+00  0.3333333E+00  0.0000000E+00  0.1388889E-01
    1      -13.133473
    2      -13.130822
    3      -13.128318
    4      -13.023172
    5      -13.020047
    6      -13.020019
    7      -13.018410
    8      -13.017139
    9      -13.014599
   10      -12.903706
   11      -12.901097
   12      -12.898514
   13       -8.123421
   14       -8.048199
   15       -8.046523
   16       -8.040151
   17       -8.038032
   18       -8.033960
   19       -8.031679
   20       -7.959045
   21       -5.996768
   22       -5.996394
   23       -5.993424
   24       -5.992563
   25       -3.233786
   26       -3.230302
   27       -3.228666
   28       -3.211560
   29       -3.207162
   30       -3.207137
   31       -3.206490
   32       -3.206213
   33       -3.201479
   34       -3.185800
   35       -3.183787
   36       -3.180035
   37       -1.874299
   38       -1.870108
   39       -1.867707
   40       -1.858562
   41       -1.855637
   42       -1.853823
   43       -1.853087
   44       -1.853076
   45       -1.848284
   46       -1.837309
   47       -1.835903
   48       -1.830880
   49       -1.553368
   50       -1.551202
   51       -1.548633
   52       -0.813181
   53       -0.809923
   54       -0.809745
   55       -0.808447
   56       -0.807212
   57       -0.804288
   58        0.069333
   59        0.071685
   60        0.074404
   61        3.950076
   62        4.502229
   63        4.509940
   64        4.514985
   65        4.517529
   66        4.534060
   67        4.535477
   68        5.162589
   69       10.681134
   70       10.684335
   71       10.688211
   72       10.888285
   73       10.893730
   74       10.893930
   75       10.894857
   76       10.895631
   77       10.897679
   78       11.096167
   79       11.107921
   80       11.110390
   81       11.112970
   82       11.115738
   83       11.130600
   84       13.278153
 
  0.5000000E+00  0.3333333E+00  0.0000000E+00  0.1388889E-01
    1      -13.943226
    2      -13.825449
    3      -13.824987
    4      -13.700663
    5      -12.971090
    6      -12.860653
    7      -12.860115
    8      -12.743971
    9      -12.010507
   10      -11.907251
   11      -11.906879
   12      -11.798710
   13       -9.329190
   14       -9.252525
   15       -9.252010
   16       -9.173512
   17       -7.449394
   18       -7.398476
   19       -7.397965
   20       -7.345291
   21       -5.143619
   22       -5.105178
   23       -5.104040
   24       -5.062220
   25       -4.981690
   26       -4.938587
   27       -4.936223
   28       -4.892733
   29       -4.002669
   30       -3.957310
   31       -3.954323
   32       -3.907894
   33       -2.940887
   34       -2.912769
   35       -2.909208
   36       -2.879290
   37       -2.519292
   38       -1.910106
   39       -1.883035
   40       -1.880740
   41       -1.851275
   42       -1.745002
   43       -1.743280
   44       -1.393561
   45       -1.369991
   46       -1.367066
   47       -1.366233
   48       -1.343106
   49       -0.819065
   50       -0.633094
   51       -0.631642
   52       -0.502613
   53       -0.485009
   54       -0.483120
   55       -0.464943
   56       -0.242456
   57        0.235496
   58        0.444816
   59        0.446608
   60        1.247339
   61        2.703248
   62        3.173644
   63        3.175530
   64        3.619221
   65        5.619207
   66        5.815988
   67        5.817854
   68        6.098662
   69        8.677977
   70        8.947008
   71        8.949652
   72        9.235225
   73       10.095348
   74       10.159261
   75       10.437586
   76       10.440606
   77       10.785344
   78       11.295859
   79       12.344290
   80       12.352625
   81       12.413886
   82       12.504303
   83       12.654235
   84       12.663930
 
 -0.3333333E+00  0.3333333E+00  0.0000000E+00  0.1388889E-01
    1      -14.434414
    2      -14.312955
    3      -14.312473
    4      -14.183974
    5      -12.490538
    6      -12.383713
    7      -12.383196
    8      -12.271099
    9      -10.621673
   10      -10.619934
   11      -10.530600
   12      -10.529162
   13      -10.529133
   14      -10.527023
   15      -10.434346
   16      -10.432531
   17       -6.912070
   18       -6.910156
   19       -6.851251
   20       -6.848528
   21       -6.848515
   22       -6.847553
   23       -6.785683
   24       -6.783895
   25       -5.136485
   26       -5.080980
   27       -5.078629
   28       -5.021605
   29       -3.528365
   30       -3.526652
   31       -3.490438
   32       -3.490358
   33       -3.490310
   34       -3.486560
   35       -3.451124
   36       -3.448957
   37       -3.109842
   38       -2.319459
   39       -2.318008
   40       -1.367818
   41       -1.231245
   42       -1.210324
   43       -1.207887
   44       -1.187015
   45       -0.814229
   46       -0.801940
   47       -0.776799
   48       -0.772486
   49       -0.746889
   50       -0.106157
   51       -0.104706
   52        0.383206
   53        0.399042
   54        0.402557
   55        0.418042
   56        0.722165
   57        1.290368
   58        1.292213
   59        1.871077
   60        1.872141
   61        1.872329
   62        1.876237
   63        2.504177
   64        2.506616
   65        6.736571
   66        6.739316
   67        7.029995
   68        7.034792
   69        7.035011
   70        7.036192
   71        7.407794
   72        7.410464
   73        9.063289
   74        9.414781
   75        9.417171
   76        9.488265
   77        9.876352
   78       11.811555
   79       11.873026
   80       11.876267
   81       12.166041
   82       12.251880
   83       12.253316
   84       12.512429
 
 -0.1666667E+00  0.3333333E+00  0.0000000E+00  0.1388889E-01
    1      -14.598518
    2      -14.475826
    3      -14.475346
    4      -14.345446
    5      -11.701661
    6      -11.695149
    7      -11.601347
    8      -11.600484
    9      -11.594621
   10      -11.593092
   11      -11.495054
   12      -11.488483
   13       -9.346308
   14       -9.296839
   15       -9.295038
   16       -9.252804
   17       -8.308120
   18       -8.283171
   19       -8.280483
   20       -8.242692
   21       -6.141663
   22       -6.134400
   23       -6.080535
   24       -6.079924
   25       -6.073113
   26       -6.071484
   27       -6.016219
   28       -6.009092
   29       -3.715549
   30       -3.676718
   31       -3.674252
   32       -3.634209
   33       -3.307809
   34       -2.511903
   35       -2.510436
   36       -2.043648
   37       -2.029495
   38       -2.016152
   39       -2.015692
   40       -2.002256
   41       -2.000552
   42       -1.987580
   43       -1.973256
   44       -1.552472
   45       -0.178276
   46       -0.165827
   47       -0.161507
   48       -0.148760
   49        0.085372