 vasp.5.3.5 31Mar14 (build Nov 02 2014 15:17:37) complex                        
  
 executed on        ion-Intel-MKL date 2016.10.07  15:05:42
 running on    6 total cores
 distrk:  each k-point on    6 cores,    1 groups
 distr:  one band on NCORES_PER_BAND=   1 cores,    6 groups


--------------------------------------------------------------------------------------------------------


 INCAR:
 POTCAR:   PAW_PBE C 08Apr2002                    

 ----------------------------------------------------------------------------- 
|                                                                             |
|           W    W    AA    RRRRR   N    N  II  N    N   GGGG   !!!           |
|           W    W   A  A   R    R  NN   N  II  NN   N  G    G  !!!           |
|           W    W  A    A  R    R  N N  N  II  N N  N  G       !!!           |
|           W WW W  AAAAAA  RRRRR   N  N N  II  N  N N  G  GGG   !            |
|           WW  WW  A    A  R   R   N   NN  II  N   NN  G    G                |
|           W    W  A    A  R    R  N    N  II  N    N   GGGG   !!!           |
|                                                                             |
|      For optimal performance we recommend to set                            |
|        NCORE= 4 - approx SQRT( number of cores)                             |
|      NCORE specifies how many cores store one orbital (NPAR=cpu/NCORE).     |
|      This setting can  greatly improve the performance of VASP for DFT.     |
|      The default, NPAR=number of cores might be grossly inefficient         |
|      on modern multi-core architectures or massively parallel machines.     |
|      Do your own testing !!!!                                               |
|      Unfortunately you need to use the default for GW and RPA calculations. |
|      (for HF NCORE is supported but not extensively tested yet)             |
|                                                                             |
 ----------------------------------------------------------------------------- 

 POTCAR:   PAW_PBE C 08Apr2002                    
   VRHFIN =C: s2p2                                                              
   LEXCH  = PE                                                                  
   EATOM  =   147.1560 eV,   10.8157 Ry                                         
                                                                                
   TITEL  = PAW_PBE C 08Apr2002                                                 
   LULTRA =        F    use ultrasoft PP ?                                      
   IUNSCR =        0    unscreen: 0-lin 1-nonlin 2-no                           
   RPACOR =     .000    partial core radius                                     
   POMASS =   12.011; ZVAL   =    4.000    mass and valenz                      
   RCORE  =    1.500    outmost cutoff radius                                   
   RWIGS  =    1.630; RWIGS  =     .863    wigner-seitz radius (au A)           
   ENMAX  =  400.000; ENMIN  =  300.000 eV                                      
   ICORE  =        2    local potential                                         
   LCOR   =        T    correct aug charges                                     
   LPAW   =        T    paw PP                                                  
   EAUG   =  644.873                                                            
   DEXC   =     .000                                                            
   RMAX   =    2.266    core radius for proj-oper                               
   RAUG   =    1.300    factor for augmentation sphere                          
   RDEP   =    1.501    radius for radial grids                                 
   RDEPT  =    1.300    core radius for aug-charge                              
   QCUT   =   -5.516; QGAM   =   11.032    optimization parameters              
                                                                                
   Description                                                                  
     l     E      TYP  RCUT    TYP  RCUT                                        
     0   .000     23  1.200                                                     
     0   .000     23  1.200                                                     
     1   .000     23  1.500                                                     
     1  2.500     23  1.500                                                     
     2   .000      7  1.500                                                     
  local pseudopotential read in
  atomic valenz-charges read in
  non local Contribution for L=           0  read in
    real space projection operators read in
  non local Contribution for L=           0  read in
    real space projection operators read in
  non local Contribution for L=           1  read in
    real space projection operators read in
  non local Contribution for L=           1  read in
    real space projection operators read in
    PAW grid and wavefunctions read in
 
   number of l-projection  operators is LMAX  =           4
   number of lm-projection operators is LMMAX =           8
 

 ----------------------------------------------------------------------------- 
|                                                                             |
|  ADVICE TO THIS USER RUNNING 'VASP/VAMP'   (HEAR YOUR MASTER'S VOICE ...):  |
|                                                                             |
|      You have a (more or less) 'large supercell' and for larger cells       |
|      it might be more efficient to use real space projection operators      |
|      So try LREAL= Auto  in the INCAR   file.                               |
|      Mind: If you want to do a very accurate calculations keep the          |
|      reciprocal projection scheme          (i.e. LREAL=.FALSE.)             |
|                                                                             |
 ----------------------------------------------------------------------------- 

 PAW_PBE C 08Apr2002                    :
 energy of atom  1       EATOM= -147.1560
 kinetic energy error for atom=    0.0057 (will be added to EATOM!!)
 
 
 POSCAR: C                                       
  positions in direct lattice
  No initial velocities read in
 exchange correlation table for  LEXCH =        8
   RHO(1)=    0.500       N(1)  =     2000
   RHO(2)=  100.500       N(2)  =     4000
 


--------------------------------------------------------------------------------------------------------


 ion  position               nearest neighbor table
   1  0.499  0.000  0.124-  19 1.42  18 1.42  20 1.43
   2  1.000  0.000  0.125-  17 1.42  20 1.42  19 1.42
   3  0.500  0.500  0.125-  20 1.42  17 1.42  18 1.42
   4  1.000  0.500  0.125-  19 1.42  18 1.42  17 1.42
   5  0.500  0.000  0.625-  22 1.42  23 1.42  24 1.42
   6  1.000  0.000  0.625-  21 1.42  24 1.42  23 1.42
   7  0.500  0.500  0.625-  24 1.42  21 1.42  22 1.42
   8  1.000  0.500  0.625-  23 1.42  22 1.42  21 1.42
   9  0.000  0.500  0.375-  27 1.42  26 1.42  28 1.42
  10  0.500  0.500  0.375-  28 1.42  25 1.42  27 1.42
  11  0.000  1.000  0.375-  25 1.42  28 1.42  26 1.42
  12  0.500  1.000  0.375-  26 1.42  27 1.42  25 1.42
  13  0.000  0.500  0.875-  31 1.42  30 1.42  32 1.42
  14  0.500  0.500  0.875-  32 1.42  29 1.42  31 1.42
  15  0.000  1.000  0.875-  29 1.42  32 1.42  30 1.42
  16  0.500  1.000  0.875-  30 1.42  31 1.42  29 1.42
  17  0.166  0.334  0.125-   2 1.42   3 1.42   4 1.42
  18  0.666  0.334  0.125-   4 1.42   1 1.42   3 1.42
  19  0.166  0.834  0.125-   1 1.42   4 1.42   2 1.42
  20  0.666  0.834  0.125-   3 1.42   2 1.42   1 1.43
  21  0.166  0.334  0.625-   6 1.42   7 1.42   8 1.42
  22  0.666  0.334  0.625-   5 1.42   8 1.42   7 1.42
  23  0.166  0.834  0.625-   8 1.42   5 1.42   6 1.42
  24  0.666  0.834  0.625-   7 1.42   6 1.42   5 1.42
  25  0.334  0.166  0.375-  11 1.42  10 1.42  12 1.42
  26  0.834  0.166  0.375-  12 1.42   9 1.42  11 1.42
  27  0.334  0.666  0.375-   9 1.42  12 1.42  10 1.42
  28  0.834  0.666  0.375-  10 1.42  11 1.42   9 1.42
  29  0.334  0.166  0.875-  15 1.42  14 1.42  16 1.42
  30  0.834  0.166  0.875-  16 1.42  13 1.42  15 1.42
  31  0.334  0.666  0.875-  13 1.42  16 1.42  14 1.42
  32  0.834  0.666  0.875-  14 1.42  15 1.42  13 1.42
 
  LATTYP: Found a base centered orthorhombic cell.
 ALAT       =     4.9295501972
 B/A-ratio  =     1.7336081796
 C/A-ratio  =     2.7578761650
  
  Lattice vectors:
  
 A1 = (   4.9328744980,  -0.0019192860,   0.0000000000)
 A2 = (  -2.4680993993,   4.2710349859,   0.0000000000)
 A3 = (   0.0000000000,   0.0000000000,  13.5950889927)


Analysis of symmetry for initial positions (statically):
=====================================================================
 Subroutine PRICEL returns:
 Original cell was already a primitive cell.
 

 Routine SETGRP: Setting up the symmetry group for a 
 base centered orthorhombic supercell.


 Subroutine GETGRP returns: Found  1 space group operations
 (whereof  1 operations were pure point group operations)
 out of a pool of  8 trial point group operations.


The static configuration has the point symmetry C_1 .


Analysis of symmetry for dynamics (positions and initial velocities):
=====================================================================
 Subroutine PRICEL returns:
 Original cell was already a primitive cell.
 

 Routine SETGRP: Setting up the symmetry group for a 
 base centered orthorhombic supercell.


 Subroutine GETGRP returns: Found  1 space group operations
 (whereof  1 operations were pure point group operations)
 out of a pool of  8 trial point group operations.


The dynamic configuration has the point symmetry C_1 .
 
 
 KPOINTS: B4C B11C-CBC                            

Automatic generation of k-mesh.
Space group operators:
 irot       det(A)        alpha          n_x          n_y          n_z        tau_x        tau_y        tau_z
    1     1.000000     0.000000     1.000000     0.000000     0.000000     0.000000     0.000000     0.000000
 
 Subroutine IBZKPT returns following result:
 ===========================================
 
 Found    163 irreducible k-points:
 
 Following reciprocal coordinates:
            Coordinates               Weight
  0.000000  0.000000  0.000000      1.000000
  0.111111 -0.000000  0.000000      2.000000
  0.222222 -0.000000  0.000000      2.000000
  0.333333  0.000000  0.000000      2.000000
  0.444444 -0.000000  0.000000      2.000000
 -0.000000  0.111111  0.000000      2.000000
  0.111111  0.111111  0.000000      2.000000
  0.222222  0.111111  0.000000      2.000000
  0.333333  0.111111  0.000000      2.000000
  0.444444  0.111111  0.000000      2.000000
 -0.444444  0.111111  0.000000      2.000000
 -0.333333  0.111111  0.000000      2.000000
 -0.222222  0.111111  0.000000      2.000000
 -0.111111  0.111111  0.000000      2.000000
 -0.000000  0.222222  0.000000      2.000000
  0.111111  0.222222  0.000000      2.000000
  0.222222  0.222222  0.000000      2.000000
  0.333333  0.222222  0.000000      2.000000
  0.444444  0.222222  0.000000      2.000000
 -0.444444  0.222222  0.000000      2.000000
 -0.333333  0.222222  0.000000      2.000000
 -0.222222  0.222222  0.000000      2.000000
 -0.111111  0.222222  0.000000      2.000000
 -0.000000  0.333333  0.000000      2.000000
  0.111111  0.333333  0.000000      2.000000
  0.222222  0.333333  0.000000      2.000000
  0.333333  0.333333  0.000000      2.000000
  0.444444  0.333333  0.000000      2.000000
 -0.444444  0.333333  0.000000      2.000000
 -0.333333  0.333333  0.000000      2.000000
 -0.222222  0.333333  0.000000      2.000000
 -0.111111  0.333333  0.000000      2.000000
 -0.000000  0.444444  0.000000      2.000000
  0.111111  0.444444  0.000000      2.000000
  0.222222  0.444444  0.000000      2.000000
  0.333333  0.444444  0.000000      2.000000
  0.444444  0.444444  0.000000      2.000000
 -0.444444  0.444444  0.000000      2.000000
 -0.333333  0.444444  0.000000      2.000000
 -0.222222  0.444444  0.000000      2.000000
 -0.111111  0.444444  0.000000      2.000000
  0.000000  0.000000  0.250000      2.000000
  0.111111 -0.000000  0.250000      2.000000
  0.222222 -0.000000  0.250000      2.000000
  0.333333  0.000000  0.250000      2.000000
  0.444444 -0.000000  0.250000      2.000000
 -0.444444  0.000000  0.250000      2.000000
 -0.333333  0.000000  0.250000      2.000000
 -0.222222  0.000000  0.250000      2.000000
 -0.111111  0.000000  0.250000      2.000000
 -0.000000  0.111111  0.250000      2.000000
  0.111111  0.111111  0.250000      2.000000
  0.222222  0.111111  0.250000      2.000000
  0.333333  0.111111  0.250000      2.000000
  0.444444  0.111111  0.250000      2.000000
 -0.444444  0.111111  0.250000      2.000000
 -0.333333  0.111111  0.250000      2.000000
 -0.222222  0.111111  0.250000      2.000000
 -0.111111  0.111111  0.250000      2.000000
 -0.000000  0.222222  0.250000      2.000000
  0.111111  0.222222  0.250000      2.000000
  0.222222  0.222222  0.250000      2.000000
  0.333333  0.222222  0.250000      2.000000
  0.444444  0.222222  0.250000      2.000000
 -0.444444  0.222222  0.250000      2.000000
 -0.333333  0.222222  0.250000      2.000000
 -0.222222  0.222222  0.250000      2.000000
 -0.111111  0.222222  0.250000      2.000000
 -0.000000  0.333333  0.250000      2.000000
  0.111111  0.333333  0.250000      2.000000
  0.222222  0.333333  0.250000      2.000000
  0.333333  0.333333  0.250000      2.000000
  0.444444  0.333333  0.250000      2.000000
 -0.444444  0.333333  0.250000      2.000000
 -0.333333  0.333333  0.250000      2.000000
 -0.222222  0.333333  0.250000      2.000000
 -0.111111  0.333333  0.250000      2.000000
 -0.000000  0.444444  0.250000      2.000000
  0.111111  0.444444  0.250000      2.000000
  0.222222  0.444444  0.250000      2.000000
  0.333333  0.444444  0.250000      2.000000
  0.444444  0.444444  0.250000      2.000000
 -0.444444  0.444444  0.250000      2.000000
 -0.333333  0.444444  0.250000      2.000000
 -0.222222  0.444444  0.250000      2.000000
 -0.111111  0.444444  0.250000      2.000000
  0.000000 -0.444444  0.250000      2.000000
  0.111111 -0.444444  0.250000      2.000000
  0.222222 -0.444444  0.250000      2.000000
  0.333333 -0.444444  0.250000      2.000000
  0.444444 -0.444444  0.250000      2.000000
 -0.444444 -0.444444  0.250000      2.000000
 -0.333333 -0.444444  0.250000      2.000000
 -0.222222 -0.444444  0.250000      2.000000
 -0.111111 -0.444444  0.250000      2.000000
  0.000000 -0.333333  0.250000      2.000000
  0.111111 -0.333333  0.250000      2.000000
  0.222222 -0.333333  0.250000      2.000000
  0.333333 -0.333333  0.250000      2.000000
  0.444444 -0.333333  0.250000      2.000000
 -0.444444 -0.333333  0.250000      2.000000
 -0.333333 -0.333333  0.250000      2.000000
 -0.222222 -0.333333  0.250000      2.000000
 -0.111111 -0.333333  0.250000      2.000000
  0.000000 -0.222222  0.250000      2.000000
  0.111111 -0.222222  0.250000      2.000000
  0.222222 -0.222222  0.250000      2.000000
  0.333333 -0.222222  0.250000      2.000000
  0.444444 -0.222222  0.250000      2.000000
 -0.444444 -0.222222  0.250000      2.000000
 -0.333333 -0.222222  0.250000      2.000000
 -0.222222 -0.222222  0.250000      2.000000
 -0.111111 -0.222222  0.250000      2.000000
  0.000000 -0.111111  0.250000      2.000000
  0.111111 -0.111111  0.250000      2.000000
  0.222222 -0.111111  0.250000      2.000000
  0.333333 -0.111111  0.250000      2.000000
  0.444444 -0.111111  0.250000      2.000000
 -0.444444 -0.111111  0.250000      2.000000
 -0.333333 -0.111111  0.250000      2.000000
 -0.222222 -0.111111  0.250000      2.000000
 -0.111111 -0.111111  0.250000      2.000000
  0.000000  0.000000  0.500000      1.000000
  0.111111 -0.000000  0.500000      2.000000
  0.222222 -0.000000  0.500000      2.000000
  0.333333  0.000000  0.500000      2.000000
  0.444444 -0.000000  0.500000      2.000000
 -0.000000  0.111111  0.500000      2.000000
  0.111111  0.111111  0.500000      2.000000
  0.222222  0.111111  0.500000      2.000000
  0.333333  0.111111  0.500000      2.000000
  0.444444  0.111111  0.500000      2.000000
 -0.444444  0.111111  0.500000      2.000000
 -0.333333  0.111111  0.500000      2.000000
 -0.222222  0.111111  0.500000      2.000000
 -0.111111  0.111111  0.500000      2.000000
 -0.000000  0.222222  0.500000      2.000000
  0.111111  0.222222  0.500000      2.000000
  0.222222  0.222222  0.500000      2.000000
  0.333333  0.222222  0.500000      2.000000
  0.444444  0.222222  0.500000      2.000000
 -0.444444  0.222222  0.500000      2.000000
 -0.333333  0.222222  0.500000      2.000000
 -0.222222  0.222222  0.500000      2.000000
 -0.111111  0.222222  0.500000      2.000000
 -0.000000  0.333333  0.500000      2.000000
  0.111111  0.333333  0.500000      2.000000
  0.222222  0.333333  0.500000      2.000000
  0.333333  0.333333  0.500000      2.000000
  0.444444  0.333333  0.500000      2.000000
 -0.444444  0.333333  0.500000      2.000000
 -0.333333  0.333333  0.500000      2.000000
 -0.222222  0.333333  0.500000      2.000000
 -0.111111  0.333333  0.500000      2.000000
 -0.000000  0.444444  0.500000      2.000000
  0.111111  0.444444  0.500000      2.000000
  0.222222  0.444444  0.500000      2.000000
  0.333333  0.444444  0.500000      2.000000
  0.444444  0.444444  0.500000      2.000000
 -0.444444  0.444444  0.500000      2.000000
 -0.333333  0.444444  0.500000      2.000000
 -0.222222  0.444444  0.500000      2.000000
 -0.111111  0.444444  0.500000      2.000000
 
 Following cartesian coordinates:
            Coordinates               Weight
  0.000000  0.000000  0.000000      1.000000
  0.022530  0.013019  0.000000      2.000000
  0.045059  0.026038  0.000000      2.000000
  0.067589  0.039058  0.000000      2.000000
  0.090119  0.052077  0.000000      2.000000
  0.000010  0.026021  0.000000      2.000000
  0.022540  0.039040  0.000000      2.000000
  0.045069  0.052059  0.000000      2.000000
  0.067599  0.065079  0.000000      2.000000
  0.090129  0.078098  0.000000      2.000000
 -0.090109 -0.026056  0.000000      2.000000
 -0.067579 -0.013037  0.000000      2.000000
 -0.045049 -0.000018  0.000000      2.000000
 -0.022520  0.013002  0.000000      2.000000
  0.000020  0.052042  0.000000      2.000000
  0.022550  0.065061  0.000000      2.000000
  0.045080  0.078080  0.000000      2.000000
  0.067609  0.091099  0.000000      2.000000
  0.090139  0.104119  0.000000      2.000000
 -0.090098 -0.000035  0.000000      2.000000
 -0.067569  0.012984  0.000000      2.000000
 -0.045039  0.026003  0.000000      2.000000
 -0.022509  0.039023  0.000000      2.000000
  0.000030  0.078063  0.000000      2.000000
  0.022560  0.091082  0.000000      2.000000
  0.045090  0.104101  0.000000      2.000000
  0.067619  0.117120  0.000000      2.000000
  0.090149  0.130139  0.000000      2.000000
 -0.090088  0.025986  0.000000      2.000000
 -0.067559  0.039005  0.000000      2.000000
 -0.045029  0.052024  0.000000      2.000000
 -0.022499  0.065043  0.000000      2.000000
  0.000040  0.104084  0.000000      2.000000
  0.022570  0.117103  0.000000      2.000000
  0.045100  0.130122  0.000000      2.000000
  0.067630  0.143141  0.000000      2.000000
  0.090159  0.156160  0.000000      2.000000
 -0.090078  0.052007  0.000000      2.000000
 -0.067549  0.065026  0.000000      2.000000
 -0.045019  0.078045  0.000000      2.000000
 -0.022489  0.091064  0.000000      2.000000
  0.000000  0.000000  0.018389      2.000000
  0.022530  0.013019  0.018389      2.000000
  0.045059  0.026038  0.018389      2.000000
  0.067589  0.039058  0.018389      2.000000
  0.090119  0.052077  0.018389      2.000000
 -0.090119 -0.052077  0.018389      2.000000
 -0.067589 -0.039058  0.018389      2.000000
 -0.045059 -0.026038  0.018389      2.000000
 -0.022530 -0.013019  0.018389      2.000000
  0.000010  0.026021  0.018389      2.000000
  0.022540  0.039040  0.018389      2.000000
  0.045069  0.052059  0.018389      2.000000
  0.067599  0.065079  0.018389      2.000000
  0.090129  0.078098  0.018389      2.000000
 -0.090109 -0.026056  0.018389      2.000000
 -0.067579 -0.013037  0.018389      2.000000
 -0.045049 -0.000018  0.018389      2.000000
 -0.022520  0.013002  0.018389      2.000000
  0.000020  0.052042  0.018389      2.000000
  0.022550  0.065061  0.018389      2.000000
  0.045080  0.078080  0.018389      2.000000
  0.067609  0.091099  0.018389      2.000000
  0.090139  0.104119  0.018389      2.000000
 -0.090098 -0.000035  0.018389      2.000000
 -0.067569  0.012984  0.018389      2.000000
 -0.045039  0.026003  0.018389      2.000000
 -0.022509  0.039023  0.018389      2.000000
  0.000030  0.078063  0.018389      2.000000
  0.022560  0.091082  0.018389      2.000000
  0.045090  0.104101  0.018389      2.000000
  0.067619  0.117120  0.018389      2.000000
  0.090149  0.130139  0.018389      2.000000
 -0.090088  0.025986  0.018389      2.000000
 -0.067559  0.039005  0.018389      2.000000
 -0.045029  0.052024  0.018389      2.000000
 -0.022499  0.065043  0.018389      2.000000
  0.000040  0.104084  0.018389      2.000000
  0.022570  0.117103  0.018389      2.000000
  0.045100  0.130122  0.018389      2.000000
  0.067630  0.143141  0.018389      2.000000
  0.090159  0.156160  0.018389      2.000000
 -0.090078  0.052007  0.018389      2.000000
 -0.067549  0.065026  0.018389      2.000000
 -0.045019  0.078045  0.018389      2.000000
 -0.022489  0.091064  0.018389      2.000000
 -0.000040 -0.104084  0.018389      2.000000
  0.022489 -0.091064  0.018389      2.000000
  0.045019 -0.078045  0.018389      2.000000
  0.067549 -0.065026  0.018389      2.000000
  0.090078 -0.052007  0.018389      2.000000
 -0.090159 -0.156160  0.018389      2.000000
 -0.067630 -0.143141  0.018389      2.000000
 -0.045100 -0.130122  0.018389      2.000000
 -0.022570 -0.117103  0.018389      2.000000
 -0.000030 -0.078063  0.018389      2.000000
  0.022499 -0.065043  0.018389      2.000000
  0.045029 -0.052024  0.018389      2.000000
  0.067559 -0.039005  0.018389      2.000000
  0.090088 -0.025986  0.018389      2.000000
 -0.090149 -0.130139  0.018389      2.000000
 -0.067619 -0.117120  0.018389      2.000000
 -0.045090 -0.104101  0.018389      2.000000
 -0.022560 -0.091082  0.018389      2.000000
 -0.000020 -0.052042  0.018389      2.000000
  0.022509 -0.039023  0.018389      2.000000
  0.045039 -0.026003  0.018389      2.000000
  0.067569 -0.012984  0.018389      2.000000
  0.090098  0.000035  0.018389      2.000000
 -0.090139 -0.104119  0.018389      2.000000
 -0.067609 -0.091099  0.018389      2.000000
 -0.045080 -0.078080  0.018389      2.000000
 -0.022550 -0.065061  0.018389      2.000000
 -0.000010 -0.026021  0.018389      2.000000
  0.022520 -0.013002  0.018389      2.000000
  0.045049  0.000018  0.018389      2.000000
  0.067579  0.013037  0.018389      2.000000
  0.090109  0.026056  0.018389      2.000000
 -0.090129 -0.078098  0.018389      2.000000
 -0.067599 -0.065079  0.018389      2.000000
 -0.045069 -0.052059  0.018389      2.000000
 -0.022540 -0.039040  0.018389      2.000000
  0.000000  0.000000  0.036778      1.000000
  0.022530  0.013019  0.036778      2.000000
  0.045059  0.026038  0.036778      2.000000
  0.067589  0.039058  0.036778      2.000000
  0.090119  0.052077  0.036778      2.000000
  0.000010  0.026021  0.036778      2.000000
  0.022540  0.039040  0.036778      2.000000
  0.045069  0.052059  0.036778      2.000000
  0.067599  0.065079  0.036778      2.000000
  0.090129  0.078098  0.036778      2.000000
 -0.090109 -0.026056  0.036778      2.000000
 -0.067579 -0.013037  0.036778      2.000000
 -0.045049 -0.000018  0.036778      2.000000
 -0.022520  0.013002  0.036778      2.000000
  0.000020  0.052042  0.036778      2.000000
  0.022550  0.065061  0.036778      2.000000
  0.045080  0.078080  0.036778      2.000000
  0.067609  0.091099  0.036778      2.000000
  0.090139  0.104119  0.036778      2.000000
 -0.090098 -0.000035  0.036778      2.000000
 -0.067569  0.012984  0.036778      2.000000
 -0.045039  0.026003  0.036778      2.000000
 -0.022509  0.039023  0.036778      2.000000
  0.000030  0.078063  0.036778      2.000000
  0.022560  0.091082  0.036778      2.000000
  0.045090  0.104101  0.036778      2.000000
  0.067619  0.117120  0.036778      2.000000
  0.090149  0.130139  0.036778      2.000000
 -0.090088  0.025986  0.036778      2.000000
 -0.067559  0.039005  0.036778      2.000000
 -0.045029  0.052024  0.036778      2.000000
 -0.022499  0.065043  0.036778      2.000000
  0.000040  0.104084  0.036778      2.000000
  0.022570  0.117103  0.036778      2.000000
  0.045100  0.130122  0.036778      2.000000
  0.067630  0.143141  0.036778      2.000000
  0.090159  0.156160  0.036778      2.000000
 -0.090078  0.052007  0.036778      2.000000
 -0.067549  0.065026  0.036778      2.000000
 -0.045019  0.078045  0.036778      2.000000
 -0.022489  0.091064  0.036778      2.000000
 
 TETIRR: Found    970 inequivalent tetrahedra from     1944


--------------------------------------------------------------------------------------------------------




 Dimension of arrays:
   k-points           NKPTS =    163   k-points in BZ     NKDIM =    163   number of bands    NBANDS=     84
   number of dos      NEDOS =    301   number of ions     NIONS =     32
   non local maximal  LDIM  =      4   non local SUM 2l+1 LMDIM =      8
   total plane-waves  NPLWV = 179200
   max r-space proj   IRMAX =      1   max aug-charges    IRDMAX=   7583
   dimension x,y,z NGX =    40 NGY =   40 NGZ =  112
   dimension x,y,z NGXF=    80 NGYF=   80 NGZF=  224
   support grid    NGXF=    80 NGYF=   80 NGZF=  224
   ions per type =              32
 NGX,Y,Z   is equivalent  to a cutoff of  13.48, 13.48, 13.70 a.u.
 NGXF,Y,Z  is equivalent  to a cutoff of  26.96, 26.96, 27.39 a.u.


 I would recommend the setting:
   dimension x,y,z NGX =    39 NGY =   39 NGZ =  109
 SYSTEM =  graphite                                
 POSCAR =  C                                       

 Startparameter for this run:
   NWRITE =      2    write-flag & timer
   PREC   = accura    normal or accurate (medium, high low for compatibility)
   ISTART =      0    job   : 0-new  1-cont  2-samecut
   ICHARG =      2    charge: 1-file 2-atom 10-const
   ISPIN  =      1    spin polarized calculation?
   LNONCOLLINEAR =      F non collinear calculations
   LSORBIT =      F    spin-orbit coupling
   INIWAV =      1    electr: 0-lowe 1-rand  2-diag
   LASPH  =      F    aspherical Exc in radial PAW
   METAGGA=      F    non-selfconsistent MetaGGA calc.

 Electronic Relaxation 1
   ENCUT  =  600.0 eV  44.10 Ry    6.64 a.u.   9.85  9.85 27.15*2*pi/ulx,y,z
   ENINI  =  600.0     initial cutoff
   ENAUG  =  644.9 eV  augmentation charge cutoff
   NELM   =    200;   NELMIN=  2; NELMDL=  0     # of ELM steps 
   EDIFF  = 0.1E-05   stopping-criterion for ELM
   LREAL  =      F    real-space projection
   NLSPLINE    = F    spline interpolate recip. space projectors
   LCOMPAT=      F    compatible to vasp.4.4
   GGA_COMPAT  = T    GGA compatible to vasp.4.4-vasp.4.6
   LMAXPAW     = -100 max onsite density
   LMAXMIX     =    2 max onsite mixed and CHGCAR
   VOSKOWN=      0    Vosko Wilk Nusair interpolation
   ROPT   =    0.00000
 Ionic relaxation
   EDIFFG = 0.1E-02   stopping-criterion for IOM
   NSW    =      0    number of steps for IOM
   NBLOCK =      1;   KBLOCK =      1    inner block; outer block 
   IBRION =     -1    ionic relax: 0-MD 1-quasi-New 2-CG
   NFREE  =      0    steps in history (QN), initial steepest desc. (CG)
   ISIF   =      2    stress and relaxation
   IWAVPR =     10    prediction:  0-non 1-charg 2-wave 3-comb
   ISYM   =      2    0-nonsym 1-usesym 2-fastsym
   LCORR  =      T    Harris-Foulkes like correction to forces

   POTIM  = 0.5000    time-step for ionic-motion
   TEIN   =    0.0    initial temperature
   TEBEG  =    0.0;   TEEND  =   0.0 temperature during run
   SMASS  =  -3.00    Nose mass-parameter (am)
   estimated Nose-frequenzy (Omega)   =  0.10E-29 period in steps =****** mass=  -0.556E-27a.u.
   SCALEE = 1.0000    scale energy and forces
   NPACO  =    256;   APACO  = 16.0  distance and # of slots for P.C.
   PSTRESS=    0.0 pullay stress

  Mass of Ions in am
   POMASS =  12.01
  Ionic Valenz
   ZVAL   =   4.00
  Atomic Wigner-Seitz radii
   RWIGS  =  -1.00
  virtual crystal weights 
   VCA    =   1.00
   NELECT =     128.0000    total number of electrons
   NUPDOWN=      -1.0000    fix difference up-down

 DOS related values:
   EMIN   =  10.00;   EMAX   =-10.00  energy-range for DOS
   EFERMI =   0.00
   ISMEAR =    -5;   SIGMA  =   0.20  broadening in eV -4-tet -1-fermi 0-gaus

 Electronic relaxation 2 (details)
   IALGO  =     38    algorithm
   LDIAG  =      T    sub-space diagonalisation (order eigenvalues)
   LSUBROT=      F    optimize rotation matrix (better conditioning)
   TURBO    =      0    0=normal 1=particle mesh
   IRESTART =      0    0=no restart 2=restart with 2 vectors
   NREBOOT  =      0    no. of reboots
   NMIN     =      0    reboot dimension
   EREF     =   0.00    reference energy to select bands
   IMIX   =      4    mixing-type and parameters
     AMIX     =   0.40;   BMIX     =  1.00
     AMIX_MAG =   1.60;   BMIX_MAG =  1.00
     AMIN     =   0.10
     WC   =   100.;   INIMIX=   1;  MIXPRE=   1;  MAXMIX= -45

 Intra band minimization:
   WEIMIN = 0.0000     energy-eigenvalue tresh-hold
   EBREAK =  0.30E-08  absolut break condition
   DEPER  =   0.30     relativ break condition  

   TIME   =   0.40     timestep for ELM

  volume/ion in A,a.u.               =       8.95        60.39
  Fermi-wavevector in a.u.,A,eV,Ry     =   1.251715  2.365399 21.317494  1.566792
  Thomas-Fermi vector in A             =   2.385650
 
 Write flags
   LWAVE  =      F    write WAVECAR
   LCHARG =      F    write CHGCAR
   LVTOT  =      F    write LOCPOT, total local potential
   LVHAR  =      F    write LOCPOT, Hartree potential only
   LELF   =      F    write electronic localiz. function (ELF)
   LORBIT =      0    0 simple, 1 ext, 2 COOP (PROOUT)


 Dipole corrections
   LMONO  =      F    monopole corrections only (constant potential shift)
   LDIPOL =      F    correct potential (dipole corrections)
   IDIPOL =      0    1-x, 2-y, 3-z, 4-all directions 
   EPSILON=  1.0000000 bulk dielectric constant

 Exchange correlation treatment:
   GGA     =    PE    GGA type
   LEXCH   =     8    internal setting for exchange type
   VOSKOWN=      0    Vosko Wilk Nusair interpolation
   LHFCALC =     F    Hartree Fock is set to
   LHFONE  =     F    Hartree Fock one center treatment
   AEXX    =    0.0000 exact exchange contribution

 Linear response parameters
   LEPSILON=     F    determine dielectric tensor
   LRPA    =     F    only Hartree local field effects (RPA)
   LNABLA  =     F    use nabla operator in PAW spheres
   LVEL    =     F    velocity operator in full k-point grid
   LINTERFAST=   F  fast interpolation
   KINTER  =     0    interpolate to denser k-point grid
   CSHIFT  =0.1000    complex shift for real part using Kramers Kronig
   OMEGAMAX=  -1.0    maximum frequency
   DEG_THRESHOLD= 0.2000000E-02 threshold for treating states as degnerate
   RTIME   =    0.100 relaxation time in fs

 Orbital magnetization related:
   ORBITALMAG=     F  switch on orbital magnetization
   LCHIMAG   =     F  perturbation theory with respect to B field
   DQ        =  0.001000  dq finite difference perturbation B field



--------------------------------------------------------------------------------------------------------


 Static calculation
 charge density and potential will be updated during run
 non-spin polarized calculation
 Variant of blocked Davidson
 Davidson routine will perform the subspace rotation
 perform sub-space diagonalisation
    after iterative eigenvector-optimisation
 modified Broyden-mixing scheme, WC =      100.0
 initial mixing is a Kerker type mixing with AMIX =  0.4000 and BMIX =      1.0000
 Hartree-type preconditioning will be used
 using additional bands           20
 reciprocal scheme for non local part
 calculate Harris-corrections to forces 
   (improved forces if not selfconsistent)
 use gradient corrections 
 use of overlap-Matrix (Vanderbilt PP)
 Fermi weights with tetrahedron method with Bloechl corrections


--------------------------------------------------------------------------------------------------------


  energy-cutoff  :      600.00
  volume of cell :      286.36
      direct lattice vectors                 reciprocal lattice vectors
     4.932874498 -0.001919286  0.000000000     0.202767147  0.117172881  0.000000000
    -2.468099399  4.271034986  0.000000000     0.000091118  0.234187941  0.000000000
     0.000000000  0.000000000 13.595088993     0.000000000  0.000000000  0.073555973

  length of vectors
     4.932874871  4.932874871 13.595088993     0.234187958  0.234187958  0.073555973


 
 k-points in units of 2pi/SCALE and weight: B4C B11C-CBC                            
   0.00000000  0.00000000  0.00000000       0.003
   0.02252968  0.01301921  0.00000000       0.006
   0.04505937  0.02603842  0.00000000       0.006
   0.06758905  0.03905763  0.00000000       0.006
   0.09011873  0.05207684  0.00000000       0.006
   0.00001012  0.02602088  0.00000000       0.006
   0.02253981  0.03904009  0.00000000       0.006
   0.04506949  0.05205930  0.00000000       0.006
   0.06759917  0.06507851  0.00000000       0.006
   0.09012886  0.07809772  0.00000000       0.006
  -0.09010861 -0.02605595  0.00000000       0.006
  -0.06757892 -0.01303674  0.00000000       0.006
  -0.04504924 -0.00001754  0.00000000       0.006
  -0.02251956  0.01300167  0.00000000       0.006
   0.00002025  0.05204176  0.00000000       0.006
   0.02254993  0.06506097  0.00000000       0.006
   0.04507961  0.07808018  0.00000000       0.006
   0.06760930  0.09109939  0.00000000       0.006
   0.09013898  0.10411860  0.00000000       0.006
  -0.09009848 -0.00003507  0.00000000       0.006
  -0.06756880  0.01298414  0.00000000       0.006
  -0.04503912  0.02600335  0.00000000       0.006
  -0.02250943  0.03902256  0.00000000       0.006
   0.00003037  0.07806265  0.00000000       0.006
   0.02256006  0.09108186  0.00000000       0.006
   0.04508974  0.10410106  0.00000000       0.006
   0.06761942  0.11712027  0.00000000       0.006
   0.09014910  0.13013948  0.00000000       0.006
  -0.09008836  0.02598581  0.00000000       0.006
  -0.06755868  0.03900502  0.00000000       0.006
  -0.04502899  0.05202423  0.00000000       0.006
  -0.02249931  0.06504344  0.00000000       0.006
   0.00004050  0.10408353  0.00000000       0.006
   0.02257018  0.11710274  0.00000000       0.006
   0.04509986  0.13012195  0.00000000       0.006
   0.06762955  0.14314116  0.00000000       0.006
   0.09015923  0.15616037  0.00000000       0.006
  -0.09007824  0.05200669  0.00000000       0.006
  -0.06754855  0.06502590  0.00000000       0.006
  -0.04501887  0.07804511  0.00000000       0.006
  -0.02248919  0.09106432  0.00000000       0.006
   0.00000000  0.00000000  0.01838899       0.006
   0.02252968  0.01301921  0.01838899       0.006
   0.04505937  0.02603842  0.01838899       0.006
   0.06758905  0.03905763  0.01838899       0.006
   0.09011873  0.05207684  0.01838899       0.006
  -0.09011873 -0.05207684  0.01838899       0.006
  -0.06758905 -0.03905763  0.01838899       0.006
  -0.04505937 -0.02603842  0.01838899       0.006
  -0.02252968 -0.01301921  0.01838899       0.006
   0.00001012  0.02602088  0.01838899       0.006
   0.02253981  0.03904009  0.01838899       0.006
   0.04506949  0.05205930  0.01838899       0.006
   0.06759917  0.06507851  0.01838899       0.006
   0.09012886  0.07809772  0.01838899       0.006
  -0.09010861 -0.02605595  0.01838899       0.006
  -0.06757892 -0.01303674  0.01838899       0.006
  -0.04504924 -0.00001754  0.01838899       0.006
  -0.02251956  0.01300167  0.01838899       0.006
   0.00002025  0.05204176  0.01838899       0.006
   0.02254993  0.06506097  0.01838899       0.006
   0.04507961  0.07808018  0.01838899       0.006
   0.06760930  0.09109939  0.01838899       0.006
   0.09013898  0.10411860  0.01838899       0.006
  -0.09009848 -0.00003507  0.01838899       0.006
  -0.06756880  0.01298414  0.01838899       0.006
  -0.04503912  0.02600335  0.01838899       0.006
  -0.02250943  0.03902256  0.01838899       0.006
   0.00003037  0.07806265  0.01838899       0.006
   0.02256006  0.09108186  0.01838899       0.006
   0.04508974  0.10410106  0.01838899       0.006
   0.06761942  0.11712027  0.01838899       0.006
   0.09014910  0.13013948  0.01838899       0.006
  -0.09008836  0.02598581  0.01838899       0.006
  -0.06755868  0.03900502  0.01838899       0.006
  -0.04502899  0.05202423  0.01838899       0.006
  -0.02249931  0.06504344  0.01838899       0.006
   0.00004050  0.10408353  0.01838899       0.006
   0.02257018  0.11710274  0.01838899       0.006
   0.04509986  0.13012195  0.01838899       0.006
   0.06762955  0.14314116  0.01838899       0.006
   0.09015923  0.15616037  0.01838899       0.006
  -0.09007824  0.05200669  0.01838899       0.006
  -0.06754855  0.06502590  0.01838899       0.006
  -0.04501887  0.07804511  0.01838899       0.006
  -0.02248919  0.09106432  0.01838899       0.006
  -0.00004050 -0.10408353  0.01838899       0.006
   0.02248919 -0.09106432  0.01838899       0.006
   0.04501887 -0.07804511  0.01838899       0.006
   0.06754855 -0.06502590  0.01838899       0.006
   0.09007824 -0.05200669  0.01838899       0.006
  -0.09015923 -0.15616037  0.01838899       0.006
  -0.06762955 -0.14314116  0.01838899       0.006
  -0.04509986 -0.13012195  0.01838899       0.006
  -0.02257018 -0.11710274  0.01838899       0.006
  -0.00003037 -0.07806265  0.01838899       0.006
   0.02249931 -0.06504344  0.01838899       0.006
   0.04502899 -0.05202423  0.01838899       0.006
   0.06755868 -0.03900502  0.01838899       0.006
   0.09008836 -0.02598581  0.01838899       0.006
  -0.09014910 -0.13013948  0.01838899       0.006
  -0.06761942 -0.11712027  0.01838899       0.006
  -0.04508974 -0.10410106  0.01838899       0.006
  -0.02256006 -0.09108186  0.01838899       0.006
  -0.00002025 -0.05204176  0.01838899       0.006
   0.02250943 -0.03902256  0.01838899       0.006
   0.04503912 -0.02600335  0.01838899       0.006
   0.06756880 -0.01298414  0.01838899       0.006
   0.09009848  0.00003507  0.01838899       0.006
  -0.09013898 -0.10411860  0.01838899       0.006
  -0.06760930 -0.09109939  0.01838899       0.006
  -0.04507961 -0.07808018  0.01838899       0.006
  -0.02254993 -0.06506097  0.01838899       0.006
  -0.00001012 -0.02602088  0.01838899       0.006
   0.02251956 -0.01300167  0.01838899       0.006
   0.04504924  0.00001754  0.01838899       0.006
   0.06757892  0.01303674  0.01838899       0.006
   0.09010861  0.02605595  0.01838899       0.006
  -0.09012886 -0.07809772  0.01838899       0.006
  -0.06759917 -0.06507851  0.01838899       0.006
  -0.04506949 -0.05205930  0.01838899       0.006
  -0.02253981 -0.03904009  0.01838899       0.006
   0.00000000  0.00000000  0.03677799       0.003
   0.02252968  0.01301921  0.03677799       0.006
   0.04505937  0.02603842  0.03677799       0.006
   0.06758905  0.03905763  0.03677799       0.006
   0.09011873  0.05207684  0.03677799       0.006
   0.00001012  0.02602088  0.03677799       0.006
   0.02253981  0.03904009  0.03677799       0.006
   0.04506949  0.05205930  0.03677799       0.006
   0.06759917  0.06507851  0.03677799       0.006
   0.09012886  0.07809772  0.03677799       0.006
  -0.09010861 -0.02605595  0.03677799       0.006
  -0.06757892 -0.01303674  0.03677799       0.006
  -0.04504924 -0.00001754  0.03677799       0.006
  -0.02251956  0.01300167  0.03677799       0.006
   0.00002025  0.05204176  0.03677799       0.006
   0.02254993  0.06506097  0.03677799       0.006
   0.04507961  0.07808018  0.03677799       0.006
   0.06760930  0.09109939  0.03677799       0.006
   0.09013898  0.10411860  0.03677799       0.006
  -0.09009848 -0.00003507  0.03677799       0.006
  -0.06756880  0.01298414  0.03677799       0.006
  -0.04503912  0.02600335  0.03677799       0.006
  -0.02250943  0.03902256  0.03677799       0.006
   0.00003037  0.07806265  0.03677799       0.006
   0.02256006  0.09108186  0.03677799       0.006
   0.04508974  0.10410106  0.03677799       0.006
   0.06761942  0.11712027  0.03677799       0.006
   0.09014910  0.13013948  0.03677799       0.006
  -0.09008836  0.02598581  0.03677799       0.006
  -0.06755868  0.03900502  0.03677799       0.006
  -0.04502899  0.05202423  0.03677799       0.006
  -0.02249931  0.06504344  0.03677799       0.006
   0.00004050  0.10408353  0.03677799       0.006
   0.02257018  0.11710274  0.03677799       0.006
   0.04509986  0.13012195  0.03677799       0.006
   0.06762955  0.14314116  0.03677799       0.006
   0.09015923  0.15616037  0.03677799       0.006
  -0.09007824  0.05200669  0.03677799       0.006
  -0.06754855  0.06502590  0.03677799       0.006
  -0.04501887  0.07804511  0.03677799       0.006
  -0.02248919  0.09106432  0.03677799       0.006
 
 k-points in reciprocal lattice and weights: B4C B11C-CBC                            
   0.00000000  0.00000000  0.00000000       0.003
   0.11111111 -0.00000000  0.00000000       0.006
   0.22222222 -0.00000000  0.00000000       0.006
   0.33333333  0.00000000  0.00000000       0.006
   0.44444444 -0.00000000  0.00000000       0.006
  -0.00000000  0.11111111  0.00000000       0.006
   0.11111111  0.11111111  0.00000000       0.006
   0.22222222  0.11111111  0.00000000       0.006
   0.33333333  0.11111111  0.00000000       0.006
   0.44444444  0.11111111  0.00000000       0.006
  -0.44444444  0.11111111  0.00000000       0.006
  -0.33333333  0.11111111  0.00000000       0.006
  -0.22222222  0.11111111  0.00000000       0.006
  -0.11111111  0.11111111  0.00000000       0.006
  -0.00000000  0.22222222  0.00000000       0.006
   0.11111111  0.22222222  0.00000000       0.006
   0.22222222  0.22222222  0.00000000       0.006
   0.33333333  0.22222222  0.00000000       0.006
   0.44444444  0.22222222  0.00000000       0.006
  -0.44444444  0.22222222  0.00000000       0.006
  -0.33333333  0.22222222  0.00000000       0.006
  -0.22222222  0.22222222  0.00000000       0.006
  -0.11111111  0.22222222  0.00000000       0.006
  -0.00000000  0.33333333  0.00000000       0.006
   0.11111111  0.33333333  0.00000000       0.006
   0.22222222  0.33333333  0.00000000       0.006
   0.33333333  0.33333333  0.00000000       0.006
   0.44444444  0.33333333  0.00000000       0.006
  -0.44444444  0.33333333  0.00000000       0.006
  -0.33333333  0.33333333  0.00000000       0.006
  -0.22222222  0.33333333  0.00000000       0.006
  -0.11111111  0.33333333  0.00000000       0.006
  -0.00000000  0.44444444  0.00000000       0.006
   0.11111111  0.44444444  0.00000000       0.006
   0.22222222  0.44444444  0.00000000       0.006
   0.33333333  0.44444444  0.00000000       0.006
   0.44444444  0.44444444  0.00000000       0.006
  -0.44444444  0.44444444  0.00000000       0.006
  -0.33333333  0.44444444  0.00000000       0.006
  -0.22222222  0.44444444  0.00000000       0.006
  -0.11111111  0.44444444  0.00000000       0.006
   0.00000000  0.00000000  0.25000000       0.006
   0.11111111 -0.00000000  0.25000000       0.006
   0.22222222 -0.00000000  0.25000000       0.006
   0.33333333  0.00000000  0.25000000       0.006
   0.44444444 -0.00000000  0.25000000       0.006
  -0.44444444  0.00000000  0.25000000       0.006
  -0.33333333  0.00000000  0.25000000       0.006
  -0.22222222  0.00000000  0.25000000       0.006
  -0.11111111  0.00000000  0.25000000       0.006
  -0.00000000  0.11111111  0.25000000       0.006
   0.11111111  0.11111111  0.25000000       0.006
   0.22222222  0.11111111  0.25000000       0.006
   0.33333333  0.11111111  0.25000000       0.006
   0.44444444  0.11111111  0.25000000       0.006
  -0.44444444  0.11111111  0.25000000       0.006
  -0.33333333  0.11111111  0.25000000       0.006
  -0.22222222  0.11111111  0.25000000       0.006
  -0.11111111  0.11111111  0.25000000       0.006
  -0.00000000  0.22222222  0.25000000       0.006
   0.11111111  0.22222222  0.25000000       0.006
   0.22222222  0.22222222  0.25000000       0.006
   0.33333333  0.22222222  0.25000000       0.006
   0.44444444  0.22222222  0.25000000       0.006
  -0.44444444  0.22222222  0.25000000       0.006
  -0.33333333  0.22222222  0.25000000       0.006
  -0.22222222  0.22222222  0.25000000       0.006
  -0.11111111  0.22222222  0.25000000       0.006
  -0.00000000  0.33333333  0.25000000       0.006
   0.11111111  0.33333333  0.25000000       0.006
   0.22222222  0.33333333  0.25000000       0.006
   0.33333333  0.33333333  0.25000000       0.006
   0.44444444  0.33333333  0.25000000       0.006
  -0.44444444  0.33333333  0.25000000       0.006
  -0.33333333  0.33333333  0.25000000       0.006
  -0.22222222  0.33333333  0.25000000       0.006
  -0.11111111  0.33333333  0.25000000       0.006
  -0.00000000  0.44444444  0.25000000       0.006
   0.11111111  0.44444444  0.25000000       0.006
   0.22222222  0.44444444  0.25000000       0.006
   0.33333333  0.44444444  0.25000000       0.006
   0.44444444  0.44444444  0.25000000       0.006
  -0.44444444  0.44444444  0.25000000       0.006
  -0.33333333  0.44444444  0.25000000       0.006
  -0.22222222  0.44444444  0.25000000       0.006
  -0.11111111  0.44444444  0.25000000       0.006
   0.00000000 -0.44444444  0.25000000       0.006
   0.11111111 -0.44444444  0.25000000       0.006
   0.22222222 -0.44444444  0.25000000       0.006
   0.33333333 -0.44444444  0.25000000       0.006
   0.44444444 -0.44444444  0.25000000       0.006
  -0.44444444 -0.44444444  0.25000000       0.006
  -0.33333333 -0.44444444  0.25000000       0.006
  -0.22222222 -0.44444444  0.25000000       0.006
  -0.11111111 -0.44444444  0.25000000       0.006
   0.00000000 -0.33333333  0.25000000       0.006
   0.11111111 -0.33333333  0.25000000       0.006
   0.22222222 -0.33333333  0.25000000       0.006
   0.33333333 -0.33333333  0.25000000       0.006
   0.44444444 -0.33333333  0.25000000       0.006
  -0.44444444 -0.33333333  0.25000000       0.006
  -0.33333333 -0.33333333  0.25000000       0.006
  -0.22222222 -0.33333333  0.25000000       0.006
  -0.11111111 -0.33333333  0.25000000       0.006
   0.00000000 -0.22222222  0.25000000       0.006
   0.11111111 -0.22222222  0.25000000       0.006
   0.22222222 -0.22222222  0.25000000       0.006
   0.33333333 -0.22222222  0.25000000       0.006
   0.44444444 -0.22222222  0.25000000       0.006
  -0.44444444 -0.22222222  0.25000000       0.006
  -0.33333333 -0.22222222  0.25000000       0.006
  -0.22222222 -0.22222222  0.25000000       0.006
  -0.11111111 -0.22222222  0.25000000       0.006
   0.00000000 -0.11111111  0.25000000       0.006
   0.11111111 -0.11111111  0.25000000       0.006
   0.22222222 -0.11111111  0.25000000       0.006
   0.33333333 -0.11111111  0.25000000       0.006
   0.44444444 -0.11111111  0.25000000       0.006
  -0.44444444 -0.11111111  0.25000000       0.006
  -0.33333333 -0.11111111  0.25000000       0.006
  -0.22222222 -0.11111111  0.25000000       0.006
  -0.11111111 -0.11111111  0.25000000       0.006
   0.00000000  0.00000000  0.50000000       0.003
   0.11111111 -0.00000000  0.50000000       0.006
   0.22222222 -0.00000000  0.50000000       0.006
   0.33333333  0.00000000  0.50000000       0.006
   0.44444444 -0.00000000  0.50000000       0.006
  -0.00000000  0.11111111  0.50000000       0.006
   0.11111111  0.11111111  0.50000000       0.006
   0.22222222  0.11111111  0.50000000       0.006
   0.33333333  0.11111111  0.50000000       0.006
   0.44444444  0.11111111  0.50000000       0.006
  -0.44444444  0.11111111  0.50000000       0.006
  -0.33333333  0.11111111  0.50000000       0.006
  -0.22222222  0.11111111  0.50000000       0.006
  -0.11111111  0.11111111  0.50000000       0.006
  -0.00000000  0.22222222  0.50000000       0.006
   0.11111111  0.22222222  0.50000000       0.006
   0.22222222  0.22222222  0.50000000       0.006
   0.33333333  0.22222222  0.50000000       0.006
   0.44444444  0.22222222  0.50000000       0.006
  -0.44444444  0.22222222  0.50000000       0.006
  -0.33333333  0.22222222  0.50000000       0.006
  -0.22222222  0.22222222  0.50000000       0.006
  -0.11111111  0.22222222  0.50000000       0.006
  -0.00000000  0.33333333  0.50000000       0.006
   0.11111111  0.33333333  0.50000000       0.006
   0.22222222  0.33333333  0.50000000       0.006
   0.33333333  0.33333333  0.50000000       0.006
   0.44444444  0.33333333  0.50000000       0.006
  -0.44444444  0.33333333  0.50000000       0.006
  -0.33333333  0.33333333  0.50000000       0.006
  -0.22222222  0.33333333  0.50000000       0.006
  -0.11111111  0.33333333  0.50000000       0.006
  -0.00000000  0.44444444  0.50000000       0.006
   0.11111111  0.44444444  0.50000000       0.006
   0.22222222  0.44444444  0.50000000       0.006
   0.33333333  0.44444444  0.50000000       0.006
   0.44444444  0.44444444  0.50000000       0.006
  -0.44444444  0.44444444  0.50000000       0.006
  -0.33333333  0.44444444  0.50000000       0.006
  -0.22222222  0.44444444  0.50000000       0.006
  -0.11111111  0.44444444  0.50000000       0.006
 
 position of ions in fractional coordinates (direct lattice) 
   0.49898185  0.00032672  0.12430855
   0.99967330  0.00032672  0.12500000
   0.49967330  0.50032672  0.12500000
   0.99967330  0.50032672  0.12500000
   0.49967330  0.00032672  0.62500000
   0.99967330  0.00032672  0.62500000
   0.49967330  0.50032672  0.62500000
   0.99967330  0.50032672  0.62500000
   0.00032672  0.49967330  0.37500000
   0.50032672  0.49967330  0.37500000
   0.00032672  0.99967330  0.37500000
   0.50032672  0.99967330  0.37500000
   0.00032672  0.49967330  0.87500000
   0.50032672  0.49967330  0.87500000
   0.00032672  0.99967330  0.87500000
   0.50032672  0.99967330  0.87500000
   0.16629246  0.33370753  0.12500000
   0.66629246  0.33370753  0.12500000
   0.16629246  0.83370753  0.12500000
   0.66629246  0.83370753  0.12500000
   0.16629246  0.33370753  0.62500000
   0.66629246  0.33370753  0.62500000
   0.16629246  0.83370753  0.62500000
   0.66629246  0.83370753  0.62500000
   0.33370753  0.16629246  0.37500000
   0.83370753  0.16629246  0.37500000
   0.33370753  0.66629246  0.37500000
   0.83370753  0.66629246  0.37500000
   0.33370753  0.16629246  0.87500000
   0.83370753  0.16629246  0.87500000
   0.33370753  0.66629246  0.87500000
   0.83370753  0.66629246  0.87500000
 
 position of ions in cartesian coordinates  (Angst):
   2.46060849  0.00043774  1.68998580
   4.93045658 -0.00052323  1.69938612
   1.22996963  2.13595390  1.69938612
   3.69640688  2.13499426  1.69938612
   2.46401933  0.00043641  8.49693062
   4.93045658 -0.00052323  8.49693062
   1.22996963  2.13595390  8.49693062
   3.69640688  2.13499426  8.49693062
  -1.23163172  2.13412154  5.09815837
   1.23480553  2.13316189  5.09815837
  -2.46568142  4.26963903  5.09815837
   0.00075583  4.26867939  5.09815837
  -1.23163172  2.13412154 11.89570287
   1.23480553  2.13316189 11.89570287
  -2.46568142  4.26963903 11.89570287
   0.00075583  4.26867939 11.89570287
  -0.00332350  1.42495737  1.69938612
   2.46311374  1.42399773  1.69938612
  -1.23737320  3.56047486  1.69938612
   1.22906405  3.55951522  1.69938612
  -0.00332350  1.42495737  8.49693062
   2.46311374  1.42399773  8.49693062
  -1.23737320  3.56047486  8.49693062
   1.22906405  3.55951522  8.49693062
   1.23571103  0.70960044  5.09815837
   3.70214828  0.70864080  5.09815837
   0.00166133  2.84511794  5.09815837
   2.46809858  2.84415829  5.09815837
   1.23571103  0.70960044 11.89570287
   3.70214828  0.70864080 11.89570287
   0.00166133  2.84511794 11.89570287
   2.46809858  2.84415829 11.89570287
 


--------------------------------------------------------------------------------------------------------


 k-point  1 :   0.0000 0.0000 0.0000  plane waves:    9455
 k-point  2 :   0.1111-0.0000 0.0000  plane waves:    9525
 k-point  3 :   0.2222-0.0000 0.0000  plane waves:    9545
 k-point  4 :   0.3333 0.0000 0.0000  plane waves:    9565
 k-point  5 :   0.4444-0.0000 0.0000  plane waves:    9587
 k-point  6 :  -0.0000 0.1111 0.0000  plane waves:    9525
 k-point  7 :   0.1111 0.1111 0.0000  plane waves:    9526
 k-point  8 :   0.2222 0.1111 0.0000  plane waves:    9564
 k-point  9 :   0.3333 0.1111 0.0000  plane waves:    9568
 k-point 10 :   0.4444 0.1111 0.0000  plane waves:    9570
 k-point 11 :  -0.4444 0.1111 0.0000  plane waves:    9568
 k-point 12 :  -0.3333 0.1111 0.0000  plane waves:    9570
 k-point 13 :  -0.2222 0.1111 0.0000  plane waves:    9526
 k-point 14 :  -0.1111 0.1111 0.0000  plane waves:    9519
 k-point 15 :  -0.0000 0.2222 0.0000  plane waves:    9545
 k-point 16 :   0.1111 0.2222 0.0000  plane waves:    9564
 k-point 17 :   0.2222 0.2222 0.0000  plane waves:    9558
 k-point 18 :   0.3333 0.2222 0.0000  plane waves:    9556
 k-point 19 :   0.4444 0.2222 0.0000  plane waves:    9552
 k-point 20 :  -0.4444 0.2222 0.0000  plane waves:    9556
 k-point 21 :  -0.3333 0.2222 0.0000  plane waves:    9568
 k-point 22 :  -0.2222 0.2222 0.0000  plane waves:    9541
 k-point 23 :  -0.1111 0.2222 0.0000  plane waves:    9526
 k-point 24 :  -0.0000 0.3333 0.0000  plane waves:    9565
 k-point 25 :   0.1111 0.3333 0.0000  plane waves:    9568
 k-point 26 :   0.2222 0.3333 0.0000  plane waves:    9556
 k-point 27 :   0.3333 0.3333 0.0000  plane waves:    9546
 k-point 28 :   0.4444 0.3333 0.0000  plane waves:    9554
 k-point 29 :  -0.4444 0.3333 0.0000  plane waves:    9566
 k-point 30 :  -0.3333 0.3333 0.0000  plane waves:    9565
 k-point 31 :  -0.2222 0.3333 0.0000  plane waves:    9568
 k-point 32 :  -0.1111 0.3333 0.0000  plane waves:    9570
 k-point 33 :  -0.0000 0.4444 0.0000  plane waves:    9587
 k-point 34 :   0.1111 0.4444 0.0000  plane waves:    9570
 k-point 35 :   0.2222 0.4444 0.0000  plane waves:    9552
 k-point 36 :   0.3333 0.4444 0.0000  plane waves:    9554
 k-point 37 :   0.4444 0.4444 0.0000  plane waves:    9572
 k-point 38 :  -0.4444 0.4444 0.0000  plane waves:    9589
 k-point 39 :  -0.3333 0.4444 0.0000  plane waves:    9566
 k-point 40 :  -0.2222 0.4444 0.0000  plane waves:    9556
 k-point 41 :  -0.1111 0.4444 0.0000  plane waves:    9568
 k-point 42 :   0.0000 0.0000 0.2500  plane waves:    9516
 k-point 43 :   0.1111-0.0000 0.2500  plane waves:    9536
 k-point 44 :   0.2222-0.0000 0.2500  plane waves:    9552
 k-point 45 :   0.3333 0.0000 0.2500  plane waves:    9561
 k-point 46 :   0.4444-0.0000 0.2500  plane waves:    9580
 k-point 47 :  -0.4444 0.0000 0.2500  plane waves:    9580
 k-point 48 :  -0.3333 0.0000 0.2500  plane waves:    9561
 k-point 49 :  -0.2222 0.0000 0.2500  plane waves:    9552
 k-point 50 :  -0.1111 0.0000 0.2500  plane waves:    9536
 k-point 51 :  -0.0000 0.1111 0.2500  plane waves:    9536
 k-point 52 :   0.1111 0.1111 0.2500  plane waves:    9538
 k-point 53 :   0.2222 0.1111 0.2500  plane waves:    9562
 k-point 54 :   0.3333 0.1111 0.2500  plane waves:    9556
 k-point 55 :   0.4444 0.1111 0.2500  plane waves:    9576
 k-point 56 :  -0.4444 0.1111 0.2500  plane waves:    9556
 k-point 57 :  -0.3333 0.1111 0.2500  plane waves:    9555
 k-point 58 :  -0.2222 0.1111 0.2500  plane waves:    9542
 k-point 59 :  -0.1111 0.1111 0.2500  plane waves:    9537
 k-point 60 :  -0.0000 0.2222 0.2500  plane waves:    9552
 k-point 61 :   0.1111 0.2222 0.2500  plane waves:    9562
 k-point 62 :   0.2222 0.2222 0.2500  plane waves:    9552
 k-point 63 :   0.3333 0.2222 0.2500  plane waves:    9569
 k-point 64 :   0.4444 0.2222 0.2500  plane waves:    9566
 k-point 65 :  -0.4444 0.2222 0.2500  plane waves:    9553
 k-point 66 :  -0.3333 0.2222 0.2500  plane waves:    9556
 k-point 67 :  -0.2222 0.2222 0.2500  plane waves:    9556
 k-point 68 :  -0.1111 0.2222 0.2500  plane waves:    9542
 k-point 69 :  -0.0000 0.3333 0.2500  plane waves:    9561
 k-point 70 :   0.1111 0.3333 0.2500  plane waves:    9556
 k-point 71 :   0.2222 0.3333 0.2500  plane waves:    9569
 k-point 72 :   0.3333 0.3333 0.2500  plane waves:    9542
 k-point 73 :   0.4444 0.3333 0.2500  plane waves:    9569
 k-point 74 :  -0.4444 0.3333 0.2500  plane waves:    9558
 k-point 75 :  -0.3333 0.3333 0.2500  plane waves:    9557
 k-point 76 :  -0.2222 0.3333 0.2500  plane waves:    9556
 k-point 77 :  -0.1111 0.3333 0.2500  plane waves:    9555
 k-point 78 :  -0.0000 0.4444 0.2500  plane waves:    9580
 k-point 79 :   0.1111 0.4444 0.2500  plane waves:    9576
 k-point 80 :   0.2222 0.4444 0.2500  plane waves:    9566
 k-point 81 :   0.3333 0.4444 0.2500  plane waves:    9569
 k-point 82 :   0.4444 0.4444 0.2500  plane waves:    9578
 k-point 83 :  -0.4444 0.4444 0.2500  plane waves:    9584
 k-point 84 :  -0.3333 0.4444 0.2500  plane waves:    9558
 k-point 85 :  -0.2222 0.4444 0.2500  plane waves:    9553
 k-point 86 :  -0.1111 0.4444 0.2500  plane waves:    9556
 k-point 87 :   0.0000-0.4444 0.2500  plane waves:    9580
 k-point 88 :   0.1111-0.4444 0.2500  plane waves:    9556
 k-point 89 :   0.2222-0.4444 0.2500  plane waves:    9553
 k-point 90 :   0.3333-0.4444 0.2500  plane waves:    9558
 k-point 91 :   0.4444-0.4444 0.2500  plane waves:    9584
 k-point 92 :  -0.4444-0.4444 0.2500  plane waves:    9578
 k-point 93 :  -0.3333-0.4444 0.2500  plane waves:    9569
 k-point 94 :  -0.2222-0.4444 0.2500  plane waves:    9566
 k-point 95 :  -0.1111-0.4444 0.2500  plane waves:    9576
 k-point 96 :   0.0000-0.3333 0.2500  plane waves:    9561
 k-point 97 :   0.1111-0.3333 0.2500  plane waves:    9555
 k-point 98 :   0.2222-0.3333 0.2500  plane waves:    9556
 k-point 99 :   0.3333-0.3333 0.2500  plane waves:    9557
 k-point ** :   0.4444-0.3333 0.2500  plane waves:    9558
 k-point ** :  -0.4444-0.3333 0.2500  plane waves:    9569
 k-point ** :  -0.3333-0.3333 0.2500  plane waves:    9542
 k-point ** :  -0.2222-0.3333 0.2500  plane waves:    9569
 k-point ** :  -0.1111-0.3333 0.2500  plane waves:    9556
 k-point ** :   0.0000-0.2222 0.2500  plane waves:    9552
 k-point ** :   0.1111-0.2222 0.2500  plane waves:    9542
 k-point ** :   0.2222-0.2222 0.2500  plane waves:    9556
 k-point ** :   0.3333-0.2222 0.2500  plane waves:    9556
 k-point ** :   0.4444-0.2222 0.2500  plane waves:    9553
 k-point ** :  -0.4444-0.2222 0.2500  plane waves:    9566
 k-point ** :  -0.3333-0.2222 0.2500  plane waves:    9569
 k-point ** :  -0.2222-0.2222 0.2500  plane waves:    9552
 k-point ** :  -0.1111-0.2222 0.2500  plane waves:    9562
 k-point ** :   0.0000-0.1111 0.2500  plane waves:    9536
 k-point ** :   0.1111-0.1111 0.2500  plane waves:    9537
 k-point ** :   0.2222-0.1111 0.2500  plane waves:    9542
 k-point ** :   0.3333-0.1111 0.2500  plane waves:    9555
 k-point ** :   0.4444-0.1111 0.2500  plane waves:    9556
 k-point ** :  -0.4444-0.1111 0.2500  plane waves:    9576
 k-point ** :  -0.3333-0.1111 0.2500  plane waves:    9556
 k-point ** :  -0.2222-0.1111 0.2500  plane waves:    9562
 k-point ** :  -0.1111-0.1111 0.2500  plane waves:    9538
 k-point ** :   0.0000 0.0000 0.5000  plane waves:    9534
 k-point ** :   0.1111-0.0000 0.5000  plane waves:    9534
 k-point ** :   0.2222-0.0000 0.5000  plane waves:    9556
 k-point ** :   0.3333 0.0000 0.5000  plane waves:    9584
 k-point ** :   0.4444-0.0000 0.5000  plane waves:    9558
 k-point ** :  -0.0000 0.1111 0.5000  plane waves:    9534
 k-point ** :   0.1111 0.1111 0.5000  plane waves:    9544
 k-point ** :   0.2222 0.1111 0.5000  plane waves:    9554
 k-point ** :   0.3333 0.1111 0.5000  plane waves:    9560
 k-point ** :   0.4444 0.1111 0.5000  plane waves:    9574
 k-point ** :  -0.4444 0.1111 0.5000  plane waves:    9562
 k-point ** :  -0.3333 0.1111 0.5000  plane waves:    9554
 k-point ** :  -0.2222 0.1111 0.5000  plane waves:    9538
 k-point ** :  -0.1111 0.1111 0.5000  plane waves:    9536
 k-point ** :  -0.0000 0.2222 0.5000  plane waves:    9556
 k-point ** :   0.1111 0.2222 0.5000  plane waves:    9554
 k-point ** :   0.2222 0.2222 0.5000  plane waves:    9576
 k-point ** :   0.3333 0.2222 0.5000  plane waves:    9570
 k-point ** :   0.4444 0.2222 0.5000  plane waves:    9568
 k-point ** :  -0.4444 0.2222 0.5000  plane waves:    9574
 k-point ** :  -0.3333 0.2222 0.5000  plane waves:    9554
 k-point ** :  -0.2222 0.2222 0.5000  plane waves:    9558
 k-point ** :  -0.1111 0.2222 0.5000  plane waves:    9538
 k-point ** :  -0.0000 0.3333 0.5000  plane waves:    9584
 k-point ** :   0.1111 0.3333 0.5000  plane waves:    9560
 k-point ** :   0.2222 0.3333 0.5000  plane waves:    9570
 k-point ** :   0.3333 0.3333 0.5000  plane waves:    9578
 k-point ** :   0.4444 0.3333 0.5000  plane waves:    9566
 k-point ** :  -0.4444 0.3333 0.5000  plane waves:    9558
 k-point ** :  -0.3333 0.3333 0.5000  plane waves:    9580
 k-point ** :  -0.2222 0.3333 0.5000  plane waves:    9554
 k-point ** :  -0.1111 0.3333 0.5000  plane waves:    9554
 k-point ** :  -0.0000 0.4444 0.5000  plane waves:    9558
 k-point ** :   0.1111 0.4444 0.5000  plane waves:    9574
 k-point ** :   0.2222 0.4444 0.5000  plane waves:    9568
 k-point ** :   0.3333 0.4444 0.5000  plane waves:    9566
 k-point ** :   0.4444 0.4444 0.5000  plane waves:    9574
 k-point ** :  -0.4444 0.4444 0.5000  plane waves:    9562
 k-point ** :  -0.3333 0.4444 0.5000  plane waves:    9558
 k-point ** :  -0.2222 0.4444 0.5000  plane waves:    9574
 k-point ** :  -0.1111 0.4444 0.5000  plane waves:    9562

 maximum and minimum number of plane-waves per node :      9589     9455

 maximum number of plane-waves:      9589
 maximum index in each direction: 
   IXMAX=   10   IYMAX=   10   IZMAX=   27
   IXMIN=  -10   IYMIN=  -10   IZMIN=  -27

 WARNING: aliasing errors must be expected set NGX to  42 to avoid them
 WARNING: aliasing errors must be expected set NGY to  42 to avoid them
 NGZ is ok and might be reduce to 110
 aliasing errors are usually negligible using standard VASP settings
 and one can safely disregard these warnings

 serial   3D FFT for wavefunctions
 parallel 3D FFT for charge:
    minimum data exchange during FFTs selected (reduces bandwidth)


 total amount of memory used by VASP on root node   523221. kBytes
========================================================================

   base      :      30000. kBytes
   nonl-proj :     104996. kBytes
   fftplans  :       9104. kBytes
   grid      :      19307. kBytes
   one-center:         98. kBytes
   wavefun   :     359716. kBytes
 
     INWAV:  cpu time    0.00: real time    0.00
 Broyden mixing: mesh for mixing (old mesh)
   NGX = 19   NGY = 19   NGZ = 55
  (NGX  = 80   NGY  = 80   NGZ  =224)
  gives a total of  19855 points

 initial charge density was supplied:
 charge density of overlapping atoms calculated
 number of electron     128.0000000 magnetization 
 keeping initial charge density in first step


--------------------------------------------------------------------------------------------------------


 Maximum index for augmentation-charges         1470 (set IRDMAX)


--------------------------------------------------------------------------------------------------------


 First call to EWALD:  gamma=   0.269
 Maximum number of real-space cells 4x 4x 2
 Maximum number of reciprocal cells 2x 2x 5

 FEWALD executed in parallel
    FEWALD:  cpu time    0.00: real time    0.01


----------------------------------------- Iteration    1(   1)  ---------------------------------------


    POTLOK:  cpu time    0.45: real time    0.45
    SETDIJ:  cpu time    0.02: real time    0.02
     EDDAV:  cpu time  379.28: real time  379.39
 BZINTS: Fermi energy: 15.753279;128.000000 electrons
         Band energy:  41.732317;  BLOECHL correction: -0.101349
       DOS:  cpu time    0.37: real time    0.37
    --------------------------------------------
      LOOP:  cpu time  380.12: real time  380.25

 eigenvalue-minimisations  : 27384
 total energy-change (2. order) : 0.5963524E+03  (-0.7159631E+04)
 number of electron     128.0000000 magnetization 
 augmentation part      128.0000000 magnetization 

 Free energy of the ion-electron system (eV)
  ---------------------------------------------------
  alpha Z        PSCENC =       291.36290451
  Ewald energy   TEWEN  =     -3621.42909635
  -Hartree energ DENC   =     -1230.23493377
  -exchange      EXHF   =         0.00000000
  -V(xc)+E(xc)   XCENC  =       442.92737303
  PAW double counting   =      1210.60617908    -1247.42152856
  entropy T*S    EENTRO =         0.00000000
  eigenvalues    EBANDS =        41.73231704
  atomic energy  EATOM  =      4708.80920826
  ---------------------------------------------------
  free energy    TOTEN  =       596.35242325 eV

  energy without entropy =      596.35242325  energy(sigma->0) =      596.35242325


--------------------------------------------------------------------------------------------------------




----------------------------------------- Iteration    1(   2)  ---------------------------------------


     EDDAV:  cpu time  441.65: real time  441.74
 BZINTS: Fermi energy:  3.732998;128.000000 electrons
         Band energy:-817.677529;  BLOECHL correction: -0.000998
       DOS:  cpu time    0.30: real time    0.30
    --------------------------------------------
      LOOP:  cpu time  441.96: real time  442.06

 eigenvalue-minimisations  : 34200
 total energy-change (2. order) :-0.8594098E+03  (-0.8286379E+03)
 number of electron     128.0000000 magnetization 
 augmentation part      128.0000000 magnetization 

 Free energy of the ion-electron system (eV)
  ---------------------------------------------------
  alpha Z        PSCENC =       291.36290451
  Ewald energy   TEWEN  =     -3621.42909635
  -Hartree energ DENC   =     -1230.23493377
  -exchange      EXHF   =         0.00000000
  -V(xc)+E(xc)   XCENC  =       442.92737303
  PAW double counting   =      1210.60617908    -1247.42152856
  entropy T*S    EENTRO =         0.00000000
  eigenvalues    EBANDS =      -817.67752928
  atomic energy  EATOM  =      4708.80920826
  ---------------------------------------------------
  free energy    TOTEN  =      -263.05742308 eV

  energy without entropy =     -263.05742308  energy(sigma->0) =     -263.05742308


--------------------------------------------------------------------------------------------------------




----------------------------------------- Iteration    1(   3)  ---------------------------------------


     EDDAV:  cpu time  434.07: real time  434.16
 BZINTS: Fermi energy:  3.050973;128.000000 electrons
         Band energy:-867.445450;  BLOECHL correction: -0.000000
       DOS:  cpu time    0.19: real time    0.19
    --------------------------------------------
      LOOP:  cpu time  434.27: real time  434.36

 eigenvalue-minimisations  : 33408
 total energy-change (2. order) :-0.4976792E+02  (-0.4930646E+02)
 number of electron     128.0000000 magnetization 
 augmentation part      128.0000000 magnetization 

 Free energy of the ion-electron system (eV)
  ---------------------------------------------------
  alpha Z        PSCENC =       291.36290451
  Ewald energy   TEWEN  =     -3621.42909635
  -Hartree energ DENC   =     -1230.23493377
  -exchange      EXHF   =         0.00000000
  -V(xc)+E(xc)   XCENC  =       442.92737303
  PAW double counting   =      1210.60617908    -1247.42152856
  entropy T*S    EENTRO =         0.00000000
  eigenvalues    EBANDS =      -867.44545038
  atomic energy  EATOM  =      4708.80920826
  ---------------------------------------------------
  free energy    TOTEN  =      -312.82534418 eV

  energy without entropy =     -312.82534418  energy(sigma->0) =     -312.82534418


--------------------------------------------------------------------------------------------------------




----------------------------------------- Iteration    1(   4)  ---------------------------------------


     EDDAV:  cpu time  446.19: real time  446.27
 BZINTS: Fermi energy:  3.043753;128.000000 electrons
         Band energy:-868.388930;  BLOECHL correction:  0.000000
       DOS:  cpu time    0.12: real time    0.12
    --------------------------------------------
      LOOP:  cpu time  446.31: real time  446.40

 eigenvalue-minimisations  : 35004
 total energy-change (2. order) :-0.9434797E+00  (-0.9417758E+00)
 number of electron     128.0000000 magnetization 
 augmentation part      128.0000000 magnetization 

 Free energy of the ion-electron system (eV)
  ---------------------------------------------------
  alpha Z        PSCENC =       291.36290451
  Ewald energy   TEWEN  =     -3621.42909635
  -Hartree energ DENC   =     -1230.23493377
  -exchange      EXHF   =         0.00000000
  -V(xc)+E(xc)   XCENC  =       442.92737303
  PAW double counting   =      1210.60617908    -1247.42152856
  entropy T*S    EENTRO =         0.00000000
  eigenvalues    EBANDS =      -868.38893008
  atomic energy  EATOM  =      4708.80920826
  ---------------------------------------------------
  free energy    TOTEN  =      -313.76882388 eV

  energy without entropy =     -313.76882388  energy(sigma->0) =     -313.76882388


--------------------------------------------------------------------------------------------------------




----------------------------------------- Iteration    1(   5)  ---------------------------------------


     EDDAV:  cpu time  452.34: real time  452.43
 BZINTS: Fermi energy:  3.043656;128.000000 electrons
         Band energy:-868.416250;  BLOECHL correction:  0.000000
       DOS:  cpu time    0.12: real time    0.12
    CHARGE:  cpu time   24.62: real time   24.63
    MIXING:  cpu time    0.01: real time    0.01
    --------------------------------------------
      LOOP:  cpu time  477.10: real time  477.20

 eigenvalue-minimisations  : 34992
 total energy-change (2. order) :-0.2731965E-01  (-0.2730777E-01)
 number of electron     128.0000003 magnetization 
 augmentation part        3.4009814 magnetization 

 Broyden mixing:
  rms(total) = 0.22085E+01    rms(broyden)= 0.22082E+01
  rms(prec ) = 0.26011E+01
  weight for this iteration     100.00

 Free energy of the ion-electron system (eV)
  ---------------------------------------------------
  alpha Z        PSCENC =       291.36290451
  Ewald energy   TEWEN  =     -3621.42909635
  -Hartree energ DENC   =     -1230.23493377
  -exchange      EXHF   =         0.00000000
  -V(xc)+E(xc)   XCENC  =       442.92737303
  PAW double counting   =      1210.60617908    -1247.42152856
  entropy T*S    EENTRO =         0.00000000
  eigenvalues    EBANDS =      -868.41624973
  atomic energy  EATOM  =      4708.80920826
  ---------------------------------------------------
  free energy    TOTEN  =      -313.79614353 eV

  energy without entropy =     -313.79614353  energy(sigma->0) =     -313.79614353


--------------------------------------------------------------------------------------------------------




----------------------------------------- Iteration    1(   6)  ---------------------------------------


    POTLOK:  cpu time    0.45: real time    0.45
    SETDIJ:  cpu time    0.02: real time    0.02
     EDDAV:  cpu time  427.77: real time  427.86
 BZINTS: Fermi energy:  3.814798;128.000000 electrons
         Band energy:-726.862616;  BLOECHL correction:  0.000000
       DOS:  cpu time    0.13: real time    0.13
    CHARGE:  cpu time   25.77: real time   25.77
    MIXING:  cpu time    0.01: real time    0.01
    --------------------------------------------
      LOOP:  cpu time  454.16: real time  454.26

 eigenvalue-minimisations  : 31296
 total energy-change (2. order) : 0.1450982E+02  (-0.1495793E+01)
 number of electron     128.0000003 magnetization 
 augmentation part        3.2447997 magnetization 

 Broyden mixing:
  rms(total) = 0.11583E+01    rms(broyden)= 0.11583E+01
  rms(prec ) = 0.13554E+01
  weight for this iteration     100.00

 eigenvalues of (default mixing * dielectric matrix)
  average eigenvalue GAMMA=   2.0335
  2.0335

 Free energy of the ion-electron system (eV)
  ---------------------------------------------------
  alpha Z        PSCENC =       291.36290451
  Ewald energy   TEWEN  =     -3621.42909635
  -Hartree energ DENC   =     -1362.73768584
  -exchange      EXHF   =         0.00000000
  -V(xc)+E(xc)   XCENC  =       451.31862447
  PAW double counting   =      1642.09975972    -1681.84742199
  entropy T*S    EENTRO =         0.00000000
  eigenvalues    EBANDS =      -726.86261641
  atomic energy  EATOM  =      4708.80920826
  ---------------------------------------------------
  free energy    TOTEN  =      -299.28632361 eV

  energy without entropy =     -299.28632361  energy(sigma->0) =     -299.28632361


--------------------------------------------------------------------------------------------------------




----------------------------------------- Iteration    1(   7)  ---------------------------------------


    POTLOK:  cpu time    0.68: real time    0.68
    SETDIJ:  cpu time    0.02: real time    0.02
     EDDAV:  cpu time  412.24: real time  412.35
 BZINTS: Fermi energy:  4.571381;128.000000 electrons
         Band energy:-582.167791;  BLOECHL correction:  0.000000
       DOS:  cpu time    0.10: real time    0.10
    CHARGE:  cpu time   24.89: real time   24.90
    MIXING:  cpu time    0.01: real time    0.01
    --------------------------------------------
      LOOP:  cpu time  437.95: real time  438.07

 eigenvalue-minimisations  : 30888
 total energy-change (2. order) : 0.4610691E+01  (-0.1577605E+01)
 number of electron     128.0000003 magnetization 
 augmentation part        3.0788323 magnetization 

 Broyden mixing:
  rms(total) = 0.19429E+00    rms(broyden)= 0.19414E+00
  rms(prec ) = 0.20781E+00
  weight for this iteration     100.00

 eigenvalues of (default mixing * dielectric matrix)
  average eigenvalue GAMMA=   2.1719
  2.1719  2.1719

 Free energy of the ion-electron system (eV)
  ---------------------------------------------------
  alpha Z        PSCENC =       291.36290451
  Ewald energy   TEWEN  =     -3621.42909635
  -Hartree energ DENC   =     -1509.99049662
  -exchange      EXHF   =         0.00000000
  -V(xc)+E(xc)   XCENC  =       460.87772928
  PAW double counting   =      2180.79678354    -2222.93487509
  entropy T*S    EENTRO =         0.00000000
  eigenvalues    EBANDS =      -582.16779063
  atomic energy  EATOM  =      4708.80920826
  ---------------------------------------------------
  free energy    TOTEN  =      -294.67563310 eV

  energy without entropy =     -294.67563310  energy(sigma->0) =     -294.67563310


--------------------------------------------------------------------------------------------------------




----------------------------------------- Iteration    1(   8)  ---------------------------------------


    POTLOK:  cpu time    0.52: real time    0.52
    SETDIJ:  cpu time    0.03: real time    0.03
     EDDAV:  cpu time  425.64: real time  425.80
 BZINTS: Fermi energy:  4.540736;128.000000 electrons
         Band energy:-585.130085;  BLOECHL correction:  0.000000
       DOS:  cpu time    0.10: real time    0.10
    CHARGE:  cpu time   25.65: real time   25.66
    MIXING:  cpu time    0.01: real time    0.01
    --------------------------------------------
      LOOP:  cpu time  451.96: real time  452.13

 eigenvalue-minimisations  : 31008
 total energy-change (2. order) :-0.6623387E-01  (-0.4142576E-01)
 number of electron     128.0000003 magnetization 
 augmentation part        3.0727436 magnetization 

 Broyden mixing:
  rms(total) = 0.33147E-01    rms(broyden)= 0.33118E-01
  rms(prec ) = 0.47566E-01
  weight for this iteration     100.00

 eigenvalues of (default mixing * dielectric matrix)
  average eigenvalue GAMMA=   1.7109
  2.4123  2.0148  0.7056

 Free energy of the ion-electron system (eV)
  ---------------------------------------------------
  alpha Z        PSCENC =       291.36290451
  Ewald energy   TEWEN  =     -3621.42909635
  -Hartree energ DENC   =     -1507.75614063
  -exchange      EXHF   =         0.00000000
  -V(xc)+E(xc)   XCENC  =       460.75468218
  PAW double counting   =      2211.26523975    -2252.61857999
  entropy T*S    EENTRO =         0.00000000
  eigenvalues    EBANDS =      -585.13008471
  atomic energy  EATOM  =      4708.80920826
  ---------------------------------------------------
  free energy    TOTEN  =      -294.74186697 eV

  energy without entropy =     -294.74186697  energy(sigma->0) =     -294.74186697


--------------------------------------------------------------------------------------------------------




----------------------------------------- Iteration    1(   9)  ---------------------------------------


    POTLOK:  cpu time    0.49: real time    0.49
    SETDIJ:  cpu time    0.02: real time    0.02
     EDDAV:  cpu time  439.83: real time  440.06
 BZINTS: Fermi energy:  4.551483;128.000000 electrons
         Band energy:-583.282326;  BLOECHL correction:  0.000000
       DOS:  cpu time    0.10: real time    0.10
    CHARGE:  cpu time   26.53: real time   26.53
    MIXING:  cpu time    0.01: real time    0.02
    --------------------------------------------
      LOOP:  cpu time  466.99: real time  467.22

 eigenvalue-minimisations  : 32460
 total energy-change (2. order) :-0.7218217E-03  (-0.2554976E-02)
 number of electron     128.0000003 magnetization 
 augmentation part        3.0696289 magnetization 

 Broyden mixing:
  rms(total) = 0.16327E-01    rms(broyden)= 0.16322E-01
  rms(prec ) = 0.23800E-01
  weight for this iteration     100.00

 eigenvalues of (default mixing * dielectric matrix)
  average eigenvalue GAMMA=   1.4750
  2.4518  1.9984  0.7248  0.7248

 Free energy of the ion-electron system (eV)
  ---------------------------------------------------
  alpha Z        PSCENC =       291.36290451
  Ewald energy   TEWEN  =     -3621.42909635
  -Hartree energ DENC   =     -1509.76345673
  -exchange      EXHF   =         0.00000000
  -V(xc)+E(xc)   XCENC  =       460.89414729
  PAW double counting   =      2219.55076057    -2260.88473026
  entropy T*S    EENTRO =         0.00000000
  eigenvalues    EBANDS =      -583.28232608
  atomic energy  EATOM  =      4708.80920826
  ---------------------------------------------------
  free energy    TOTEN  =      -294.74258880 eV

  energy without entropy =     -294.74258880  energy(sigma->0) =     -294.74258880


--------------------------------------------------------------------------------------------------------




----------------------------------------- Iteration    1(  10)  ---------------------------------------


    POTLOK:  cpu time    0.48: real time    0.48
    SETDIJ:  cpu time    0.02: real time    0.02
     EDDAV:  cpu time  444.06: real time  444.15
 BZINTS: Fermi energy:  4.554490;128.000000 electrons
         Band energy:-582.670863;  BLOECHL correction: -0.000000
       DOS:  cpu time    0.19: real time    0.19
    CHARGE:  cpu time   26.00: real time   26.01
    MIXING:  cpu time    0.01: real time    0.01
    --------------------------------------------
      LOOP:  cpu time  470.78: real time  470.88

 eigenvalue-minimisations  : 33636
 total energy-change (2. order) :-0.2642222E-03  (-0.5449366E-03)
 number of electron     128.0000003 magnetization 
 augmentation part        3.0685279 magnetization 

 Broyden mixing:
  rms(total) = 0.11261E-01    rms(broyden)= 0.11258E-01
  rms(prec ) = 0.16041E-01
  weight for this iteration     100.00

 eigenvalues of (default mixing * dielectric matrix)
  average eigenvalue GAMMA=   1.3665
  2.4968  1.9828  1.1384  0.6934  0.5212

 Free energy of the ion-electron system (eV)
  ---------------------------------------------------
[...]
     79      12.1220      0.00000
     80      12.1257      0.00000
     81      12.6583      0.00000
     82      12.6597      0.00000
     83      12.9419      0.00000
     84      12.9504      0.00000

 k-point   162 :      -0.2222    0.4444    0.5000
  band No.  band energies     occupation 
      1     -14.1405      2.00000
      2     -14.1400      2.00000
      3     -13.9590      2.00000
      4     -13.9586      2.00000
      5     -12.2080      2.00000
      6     -12.2069      2.00000
      7     -12.2021      2.00000
      8     -12.2005      2.00000
      9     -12.0490      2.00000
     10     -12.0480      2.00000
     11     -12.0432      2.00000
     12     -12.0415      2.00000
     13      -8.9594      2.00000
     14      -8.9576      2.00000
     15      -8.8924      2.00000
     16      -8.8905      2.00000
     17      -7.9902      2.00000
     18      -7.9869      2.00000
     19      -7.9511      2.00000
     20      -7.9484      2.00000
     21      -4.9843      2.00000
     22      -4.9840      2.00000
     23      -4.9769      2.00000
     24      -4.9757      2.00000
     25      -4.9056      2.00000
     26      -4.9051      2.00000
     27      -4.8985      2.00000
     28      -4.8969      2.00000
     29      -4.6799      2.00000
     30      -4.6776      2.00000
     31      -4.6134      2.00000
     32      -4.6110      2.00000
     33      -2.5978      2.00000
     34      -2.5967      2.00000
     35      -2.0611      2.00000
     36      -2.0609      2.00000
     37      -2.0496      2.00000
     38      -2.0481      2.00000
     39      -2.0179      2.00000
     40      -2.0172      2.00000
     41      -2.0059      2.00000
     42      -2.0048      2.00000
     43      -1.3589      2.00000
     44      -1.3578      2.00000
     45      -1.1169      2.00000
     46      -1.1132      2.00000
     47      -1.0920      2.00000
     48      -1.0868      2.00000
     49      -0.3333      2.00000
     50      -0.3318      2.00000
     51      -0.3275      2.00000
     52      -0.3258      2.00000
     53      -0.1559      2.00000
     54      -0.1509      2.00000
     55      -0.1362      2.00000
     56      -0.1332      2.00000
     57       0.7599      2.00000
     58       0.7614      2.00000
     59       0.7659      2.00000
     60       0.7678      2.00000
     61       3.0130      2.00000
     62       3.0158      2.00000
     63       3.4634      2.00000
     64       3.4665      2.00000
     65       5.7596      0.00000
     66       5.7639      0.00000
     67       5.7911      0.00000
     68       5.7938      0.00000
     69       9.0402      0.00000
     70       9.0417      0.00000
     71       9.0468      0.00000
     72       9.0483      0.00000
     73       9.5441      0.00000
     74       9.5455      0.00000
     75       9.5474      0.00000
     76       9.5489      0.00000
     77      10.5196      0.00000
     78      10.5212      0.00000
     79      12.8008      0.00000
     80      12.8043      0.00000
     81      12.8067      0.00000
     82      12.8087      0.00000
     83      13.2163      0.00000
     84      13.2199      0.00000

 k-point   163 :      -0.1111    0.4444    0.5000
  band No.  band energies     occupation 
      1     -14.0673      2.00000
      2     -14.0668      2.00000
      3     -13.8866      2.00000
      4     -13.8862      2.00000
      5     -12.7694      2.00000
      6     -12.7691      2.00000
      7     -12.6038      2.00000
      8     -12.6035      2.00000
      9     -11.5096      2.00000
     10     -11.5092      2.00000
     11     -11.3589      2.00000
     12     -11.3586      2.00000
     13      -9.7155      2.00000
     14      -9.7149      2.00000
     15      -9.5912      2.00000
     16      -9.5906      2.00000
     17      -7.2234      2.00000
     18      -7.2219      2.00000
     19      -7.1371      2.00000
     20      -7.1357      2.00000
     21      -5.5692      2.00000
     22      -5.5674      2.00000
     23      -5.4923      2.00000
     24      -5.4905      2.00000
     25      -4.5737      2.00000
     26      -4.5718      2.00000
     27      -4.5111      2.00000
     28      -4.5090      2.00000
     29      -4.3133      2.00000
     30      -4.3131      2.00000
     31      -4.2376      2.00000
     32      -4.2376      2.00000
     33      -3.1219      2.00000
     34      -3.1204      2.00000
     35      -3.0707      2.00000
     36      -3.0693      2.00000
     37      -2.5107      2.00000
     38      -2.5096      2.00000
     39      -1.4538      2.00000
     40      -1.4523      2.00000
     41      -1.4094      2.00000
     42      -1.4078      2.00000
     43      -1.2755      2.00000
     44      -1.2741      2.00000
     45      -1.2065      2.00000
     46      -1.2056      2.00000
     47      -1.1715      2.00000
     48      -1.1706      2.00000
     49      -0.9839      2.00000
     50      -0.9827      2.00000
     51      -0.0787      2.00000
     52      -0.0773      2.00000
     53      -0.0514      2.00000
     54      -0.0503      2.00000
     55       0.1578      2.00000
     56       0.1590      2.00000
     57       0.4657      2.00000
     58       0.4668      2.00000
     59       1.4927      2.00000
     60       1.4939      2.00000
     61       2.3946      2.00000
     62       2.3962      2.00000
     63       3.1455      2.00000
     64       3.1475      2.00000
     65       6.0956      0.00000
     66       6.0981      0.00000
     67       6.4911      0.00000
     68       6.4928      0.00000
     69       8.1096      0.00000
     70       8.1114      0.00000
     71       8.5659      0.00000
     72       8.5674      0.00000
     73       9.9446      0.00000
     74       9.9469      0.00000
     75      10.4635      0.00000
     76      10.4653      0.00000
     77      10.6024      0.00000
     78      10.6042      0.00000
     79      12.1228      0.00000
     80      12.1265      0.00000
     81      12.6278      0.00000
     82      12.6286      0.00000
     83      12.9213      0.00000
     84      12.9415      0.00000


--------------------------------------------------------------------------------------------------------


 soft charge-density along one line, spin component           1
         0         1         2         3         4         5         6         7         8         9
 total charge-density along one line
 
 pseudopotential strength for first ion, spin component:           1
  9.780   0.005  -0.000   0.000  -0.000   0.000  -0.000   0.000
  0.005  -0.002   0.000  -0.000  -0.000   0.000  -0.000   0.000
 -0.000   0.000  -3.951  -0.000  -0.000  -0.015  -0.000  -0.000
  0.000  -0.000  -0.000  -3.944   0.000  -0.000  -0.012   0.000
 -0.000  -0.000  -0.000   0.000  -3.951  -0.000   0.000  -0.015
  0.000   0.000  -0.015  -0.000  -0.000  -0.764  -0.000  -0.000
 -0.000  -0.000  -0.000  -0.012   0.000  -0.000  -0.764   0.000
  0.000   0.000  -0.000   0.000  -0.015  -0.000   0.000  -0.764
 total augmentation occupancy for first ion, spin component:           1
  1.470  -1.108   0.000  -0.001  -0.003   0.000   0.001  -0.001
 -1.108   1.040  -0.000  -0.007   0.003  -0.000  -0.002   0.001
  0.000  -0.000   1.224   0.000   0.003   0.225   0.000   0.001
 -0.001  -0.007   0.000   0.928  -0.000   0.000   0.103  -0.000
 -0.003   0.003   0.003  -0.000   1.224   0.001  -0.000   0.225
  0.000  -0.000   0.225   0.000   0.001   0.047   0.000   0.000
  0.001  -0.002   0.000   0.103  -0.000   0.000   0.013  -0.000
 -0.001   0.001   0.001  -0.000   0.225   0.000  -0.000   0.047


------------------------ aborting loop because EDIFF is reached ----------------------------------------


    CHARGE:  cpu time   24.78: real time   24.79
    FORLOC:  cpu time    0.09: real time    0.09
    FORNL :  cpu time  165.51: real time  165.55
    STRESS:  cpu time  190.42: real time  190.46
    FORHAR:  cpu time    0.19: real time    0.19
    MIXING:  cpu time    0.02: real time    0.02
    OFIELD:  cpu time    0.00: real time    0.00

 ---------------------------------------------------------------------------------------------

         DFTD3 V3.0 Rev 1        
 IVDW         = 12
 DF pbe       
 parameters
 VDW_S6       =    1.0000
 VDW_S8       =    0.7875
 VDW_A1       =    0.4289
 VDW_A2       =    4.4407
 k1-k3        =   16.0000    1.3333   -4.0000
 VDW_RADIUS   =   50.2022 A
 VDW_CNRADIUS =   21.1671 A
 Edisp (eV)   -4.92532

 E6    (eV) :    -3.5321
 E8    (eV) :    -1.3933
 % E8        : 28.29
    FORVDW:  cpu time    0.50: real time    0.51

  FORCE on cell =-STRESS in cart. coord.  units (eV):
  Direction    XX          YY          ZZ          XY          YZ          ZX
  --------------------------------------------------------------------------------------
  Alpha Z   291.36290   291.36290   291.36290
  Ewald     682.07356   681.59822 -4985.11892     0.33413     0.00060    -0.00919
  Hartree  1331.42476  1331.43137 -1150.99017     0.10801     0.00019    -0.00208
  E(xc)    -467.54834  -467.55517  -484.81920    -0.00307     0.00003    -0.00007
  Local   -3633.73332 -3633.36228  4245.96089    -0.38388    -0.00038     0.00863
  n-local  -112.44868  -112.55917  -102.67441    -0.09022     0.00032    -0.00063
  augment   -12.37499   -12.37408   -11.33847    -0.00040    -0.00000     0.00002
  Kinetic  1921.54322  1922.35705  2202.46517     0.58348    -0.00460     0.01045
  Fock        0.00000     0.00000     0.00000     0.00000     0.00000     0.00000
  vdW        -0.77431    -0.76461    -5.91180     0.00805    -0.00000    -0.00001
  -------------------------------------------------------------------------------------
  Total      -0.47519     0.13423    -1.06400     0.55611    -0.00386     0.00711
  in kB      -2.65865     0.75101    -5.95296     3.11140    -0.02158     0.03976
  external pressure =       -2.62 kB  Pullay stress =        0.00 kB


 VOLUME and BASIS-vectors are now :
 -----------------------------------------------------------------------------
  energy-cutoff  :      600.00
  volume of cell :      286.36
      direct lattice vectors                 reciprocal lattice vectors
     4.932874498 -0.001919286  0.000000000     0.202767147  0.117172881  0.000000000
    -2.468099399  4.271034986  0.000000000     0.000091118  0.234187941  0.000000000
     0.000000000  0.000000000 13.595088993     0.000000000  0.000000000  0.073555973

  length of vectors
     4.932874871  4.932874871 13.595088993     0.234187958  0.234187958  0.073555973


 FORCES acting on ions
    electron-ion (+dipol)            ewald-force                    non-local-force                 convergence-correction
 -----------------------------------------------------------------------------------------------
   -.858E+00 0.637E-01 0.175E+01   0.967E+00 -.591E-01 -.179E+01   0.885E-01 0.281E-02 0.174E+00   0.163E-03 -.161E-04 0.242E-02
   0.828E-01 0.657E-01 -.389E+00   -.108E+00 -.619E-01 0.370E+00   -.226E-01 0.270E-02 0.225E-01   -.263E-03 -.178E-04 0.237E-02
   -.894E-01 -.337E-01 -.389E+00   0.886E-01 0.518E-01 0.370E+00   -.120E-01 0.870E-02 0.225E-01   -.366E-04 0.865E-04 0.237E-02
   -.899E-01 0.166E+00 -.390E+00   0.889E-01 -.176E+00 0.370E+00   -.120E-01 -.351E-02 0.225E-01   -.361E-04 -.184E-03 0.237E-02
   -.114E+00 0.660E-01 0.965E-01   0.108E+00 -.621E-01 -.956E-01   -.448E-02 0.269E-02 -.157E-02   0.152E-03 0.110E-04 -.111E-02
   -.114E+00 0.660E-01 0.958E-01   0.107E+00 -.621E-01 -.949E-01   -.448E-02 0.269E-02 -.159E-02   0.112E-03 0.335E-04 -.112E-02
   -.114E+00 0.660E-01 0.958E-01   0.107E+00 -.620E-01 -.949E-01   -.448E-02 0.268E-02 -.160E-02   0.117E-03 -.296E-04 -.112E-02
   -.114E+00 0.662E-01 0.958E-01   0.107E+00 -.621E-01 -.949E-01   -.448E-02 0.269E-02 -.159E-02   0.157E-03 -.796E-04 -.112E-02
   0.114E+00 -.628E-01 0.923E-01   -.108E+00 0.583E-01 -.823E-01   0.448E-02 -.271E-02 0.172E-02   0.881E-04 -.501E-05 -.988E-02
   0.114E+00 -.700E-01 0.920E-01   -.108E+00 0.657E-01 -.822E-01   0.459E-02 -.286E-02 0.196E-02   0.279E-04 0.932E-05 -.987E-02
   0.120E+00 -.665E-01 0.921E-01   -.114E+00 0.621E-01 -.822E-01   0.466E-02 -.288E-02 0.184E-02   0.540E-04 -.412E-05 -.988E-02
   0.107E+00 -.665E-01 0.145E+00   -.100E+00 0.621E-01 -.136E+00   0.444E-02 -.281E-02 0.138E-02   0.659E-04 -.430E-04 -.989E-02
   0.114E+00 -.614E-01 0.734E-01   -.108E+00 0.581E-01 -.821E-01   0.460E-02 -.240E-02 0.184E-02   0.195E-04 -.424E-04 0.872E-02
   0.114E+00 -.692E-01 0.736E-01   -.108E+00 0.661E-01 -.821E-01   0.448E-02 -.255E-02 0.160E-02   0.773E-04 -.203E-04 0.871E-02
   0.121E+00 -.651E-01 0.735E-01   -.114E+00 0.620E-01 -.821E-01   0.466E-02 -.238E-02 0.172E-02   0.370E-04 -.752E-04 0.872E-02
   0.106E+00 -.651E-01 0.127E+00   -.998E-01 0.619E-01 -.136E+00   0.445E-02 -.244E-02 0.135E-02   0.580E-04 -.386E-04 0.870E-02
   0.191E+00 -.655E-01 -.327E+00   -.183E+00 0.620E-01 0.323E+00   0.375E-02 -.252E-02 -.105E-01   -.706E-04 0.969E-05 0.240E-02
   -.118E+00 -.587E-01 -.850E+00   0.123E+00 0.543E-01 0.880E+00   -.209E-01 -.219E-02 -.801E-01   0.158E-03 -.496E-05 0.242E-02
   0.434E+00 0.254E+00 -.854E+00   -.482E+00 -.288E+00 0.885E+00   -.134E-01 0.181E-02 -.804E-01   0.617E-04 0.191E-06 0.242E-02
   0.445E+00 -.389E+00 -.845E+00   -.493E+00 0.416E+00 0.875E+00   -.123E-01 -.739E-02 -.799E-01   0.354E-04 0.120E-03 0.242E-02
   0.113E+00 -.655E-01 0.958E-01   -.107E+00 0.618E-01 -.948E-01   0.427E-02 -.255E-02 0.376E-03   -.153E-03 -.633E-05 -.114E-02
   0.113E+00 -.655E-01 0.961E-01   -.107E+00 0.618E-01 -.951E-01   0.427E-02 -.256E-02 0.368E-03   -.898E-04 -.360E-04 -.113E-02
   0.113E+00 -.655E-01 0.961E-01   -.107E+00 0.618E-01 -.951E-01   0.427E-02 -.256E-02 0.366E-03   -.905E-04 0.450E-04 -.114E-02
   0.113E+00 -.656E-01 0.961E-01   -.107E+00 0.618E-01 -.951E-01   0.427E-02 -.255E-02 0.369E-03   -.142E-03 0.569E-04 -.113E-02
   -.132E+00 0.748E-01 0.104E+00   0.126E+00 -.707E-01 -.939E-01   -.438E-02 0.264E-02 -.748E-03   -.925E-04 -.271E-05 -.987E-02
   -.940E-01 0.788E-01 0.117E+00   0.877E-01 -.748E-01 -.107E+00   -.444E-02 0.274E-02 -.415E-03   -.312E-04 -.900E-05 -.988E-02
   -.116E+00 0.441E-01 0.110E+00   0.110E+00 -.398E-01 -.101E+00   -.450E-02 0.273E-02 -.585E-03   -.508E-04 0.290E-04 -.987E-02
   -.110E+00 0.660E-01 0.873E-01   0.104E+00 -.619E-01 -.773E-01   -.429E-02 0.270E-02 -.139E-03   -.666E-04 0.562E-04 -.987E-02
   -.935E-01 0.515E-01 0.990E-01   0.875E-01 -.484E-01 -.108E+00   -.431E-02 0.228E-02 -.536E-03   -.340E-04 0.355E-04 0.870E-02
   -.132E+00 0.559E-01 0.850E-01   0.126E+00 -.529E-01 -.935E-01   -.427E-02 0.238E-02 -.842E-03   -.763E-04 0.199E-04 0.871E-02
   -.116E+00 0.867E-01 0.918E-01   0.111E+00 -.841E-01 -.101E+00   -.437E-02 0.229E-02 -.671E-03   -.348E-04 0.743E-04 0.871E-02
   -.110E+00 0.646E-01 0.686E-01   0.104E+00 -.618E-01 -.772E-01   -.415E-02 0.232E-02 -.223E-03   -.788E-04 0.504E-04 0.872E-02
 -----------------------------------------------------------------------------------------------
   -.858E-05 -.229E-04 0.408E-02   -.130E-13 -.241E-13 -.497E-13   -.166E-04 0.137E-05 -.464E-02   0.377E-04 0.232E-04 0.888E-03
 
 
 POSITION                                       TOTAL-FORCE (eV/Angst)
 -----------------------------------------------------------------------------------
      2.46061      0.00044      1.68999         0.199293      0.007426      0.134315
      4.93046     -0.00052      1.69939        -0.049417      0.006455      0.005320
      1.22997      2.13595      1.69939        -0.013160      0.027415      0.005382
      3.69641      2.13499      1.69939        -0.013254     -0.014481      0.005353
      2.46402      0.00044      8.49693        -0.010933      0.006721     -0.001779
      4.93046     -0.00052      8.49693        -0.010952      0.006720     -0.001805
      1.22997      2.13595      8.49693        -0.010944      0.006724     -0.001804
      3.69641      2.13499      8.49693        -0.010944      0.006721     -0.001805
     -1.23163      2.13412      5.09816         0.011085     -0.007281      0.001895
      1.23481      2.13316      5.09816         0.011237     -0.007202      0.001946
     -2.46568      4.26964      5.09816         0.011092     -0.007370      0.001919
      0.00076      4.26868      5.09816         0.011252     -0.007272      0.001222
     -1.23163      2.13412     11.89570         0.011195     -0.005789      0.001914
      1.23481      2.13316     11.89570         0.011031     -0.005720      0.001859
     -2.46568      4.26964     11.89570         0.011051     -0.005606      0.001888
      0.00076      4.26868     11.89570         0.011202     -0.005697      0.001261
     -0.00332      1.42496      1.69939         0.011333     -0.006123     -0.012181
      2.46311      1.42400      1.69939        -0.015678     -0.006651     -0.047290
     -1.23737      3.56047      1.69939        -0.061093     -0.032334     -0.046863
      1.22906      3.55952      1.69939        -0.060597      0.019752     -0.047663
     -0.00332      1.42496      8.49693         0.010232     -0.006279      0.000254
      2.46311      1.42400      8.49693         0.010226     -0.006280      0.000238
     -1.23737      3.56047      8.49693         0.010229     -0.006285      0.000239
      1.22906      3.55952      8.49693         0.010228     -0.006280      0.000236
      1.23571      0.70960      5.09816        -0.010511      0.006845     -0.000650
      3.70215      0.70864      5.09816        -0.010879      0.006749     -0.000671
      0.00166      2.84512      5.09816        -0.010613      0.007097     -0.000663
      2.46810      2.84416      5.09816        -0.010764      0.006895     -0.000029
      1.23571      0.70960     11.89570        -0.010456      0.005458     -0.000701
      3.70215      0.70864     11.89570        -0.010030      0.005357     -0.000650
      0.00166      2.84512     11.89570        -0.010159      0.005033     -0.000659
      2.46810      2.84416     11.89570        -0.010304      0.005280     -0.000026
 -----------------------------------------------------------------------------------
    total drift:                                0.000013      0.000002      0.000322


--------------------------------------------------------------------------------------------------------



  FREE ENERGIE OF THE ION-ELECTRON SYSTEM (eV)
  ---------------------------------------------------
  free  energy   TOTEN  =      -299.66917463 eV

  energy  without entropy=     -299.66917463  energy(sigma->0) =     -299.66917463
 


--------------------------------------------------------------------------------------------------------


    POTLOK:  cpu time    0.51: real time    0.51


--------------------------------------------------------------------------------------------------------


     LOOP+:  cpu time 7504.06: real time 7505.91
    4ORBIT:  cpu time    0.00: real time    0.00
 BZINTS: Fermi energy:  4.561756;128.000000 electrons
         Band energy:-581.375945;  BLOECHL correction: -0.000000

 total amount of memory used by VASP on root node   523221. kBytes
========================================================================

   base      :      30000. kBytes
   nonl-proj :     104996. kBytes
   fftplans  :       9104. kBytes
   grid      :      19307. kBytes
   one-center:         98. kBytes
   wavefun   :     359716. kBytes
 
  
  
 General timing and accounting informations for this job:
 ========================================================
  
                  Total CPU time used (sec):     7577.346
                            User time (sec):     6835.124
                          System time (sec):      742.222
                         Elapsed time (sec):     7579.327
  
                   Maximum memory used (kb):      628716.
                   Average memory used (kb):           0.
  
                          Minor page faults:     57353261
                          Major page faults:            0
                 Voluntary context switches:          960
