   4   4   0   0
  0.1019246E+02  0.2467155E-09  0.2467155E-09  0.7734604E-09  0.5000000E-15
  1.000000000000000E-004
  CAR 
 graphite                                
     17.03608443    -18.03015038  301      3.50849536      1.00000000
    -18.030  0.0000E+00  0.0000E+00
    -17.913  0.0000E+00  0.0000E+00
    -17.796  0.0000E+00  0.0000E+00
    -17.679  0.0000E+00  0.0000E+00
    -17.563  0.0000E+00  0.0000E+00
    -17.446  0.0000E+00  0.0000E+00
    -17.329  0.0000E+00  0.0000E+00
    -17.212  0.0000E+00  0.0000E+00
    -17.095  0.0000E+00  0.0000E+00
    -16.978  0.0000E+00  0.0000E+00
    -16.861  0.0000E+00  0.0000E+00
    -16.744  0.0000E+00  0.0000E+00
    -16.628  0.0000E+00  0.0000E+00
    -16.511  0.0000E+00  0.0000E+00
    -16.394  0.0000E+00  0.0000E+00
    -16.277  0.0000E+00  0.0000E+00
    -16.160  0.0000E+00  0.0000E+00
    -16.043  0.0000E+00  0.0000E+00
    -15.926  0.2572E-02  0.1287E-03
    -15.809  0.3139E-02  0.4795E-03
    -15.692  0.2995E-02  0.8469E-03
    -15.576  0.3110E-02  0.1199E-02
    -15.459  0.3136E-02  0.1569E-02
    -15.342  0.3021E-02  0.1925E-02
    -15.225  0.3115E-02  0.2283E-02
    -15.108  0.3178E-02  0.2653E-02
    -14.991  0.3053E-02  0.3015E-02
    -14.874  0.3078E-02  0.3374E-02
    -14.757  0.3132E-02  0.3736E-02
    -14.640  0.3187E-02  0.4106E-02
    -14.524  0.3103E-02  0.4474E-02
    -14.407  0.3094E-02  0.4835E-02
    -14.290  0.3126E-02  0.5199E-02
    -14.173  0.3162E-02  0.5566E-02
    -14.056  0.3205E-02  0.5939E-02
    -13.939  0.3139E-02  0.6309E-02
    -13.822  0.3136E-02  0.6676E-02
    -13.705  0.3148E-02  0.7043E-02
    -13.588  0.3178E-02  0.7413E-02
    -13.472  0.3209E-02  0.7786E-02
    -13.355  0.3229E-02  0.8163E-02
    -13.238  0.3192E-02  0.8538E-02
    -13.121  0.3191E-02  0.8911E-02
    -13.004  0.3204E-02  0.9284E-02
    -12.887  0.3221E-02  0.9660E-02
    -12.770  0.3250E-02  0.1004E-01
    -12.653  0.3279E-02  0.1042E-01
    -12.536  0.3283E-02  0.1080E-01
    -12.420  0.3271E-02  0.1119E-01
    -12.303  0.3281E-02  0.1157E-01
    -12.186  0.3305E-02  0.1195E-01
    -12.069  0.3331E-02  0.1234E-01
    -11.952  0.3359E-02  0.1273E-01
    -11.835  0.3402E-02  0.1313E-01
    -11.718  0.3445E-02  0.1353E-01
    -11.601  0.3464E-02  0.1393E-01
    -11.484  0.3516E-02  0.1434E-01
    -11.368  0.3620E-02  0.1476E-01
    -11.251  0.3779E-02  0.1519E-01
    -11.134  0.4000E-02  0.1564E-01
    -11.017  0.4222E-02  0.1612E-01
    -10.900  0.5801E-02  0.1676E-01
    -10.783  0.3921E-02  0.1733E-01
    -10.666  0.3191E-02  0.1773E-01
    -10.549  0.2899E-02  0.1827E-01
    -10.432  0.2236E-02  0.1854E-01
    -10.316  0.1987E-02  0.1879E-01
    -10.199  0.1739E-02  0.1901E-01
    -10.082  0.1490E-02  0.1920E-01
     -9.965  0.1663E-02  0.1936E-01
     -9.848  0.1830E-02  0.1961E-01
     -9.731  0.8206E-03  0.1973E-01
     -9.614  0.1173E-02  0.1984E-01
     -9.497  0.2218E-02  0.2001E-01
     -9.380  0.5137E-02  0.2047E-01
     -9.264  0.2721E-02  0.2084E-01
     -9.147  0.2856E-02  0.2116E-01
     -9.030  0.7682E-02  0.2160E-01
     -8.913  0.4054E-02  0.2214E-01
     -8.796  0.4694E-02  0.2265E-01
     -8.679  0.5366E-02  0.2323E-01
     -8.562  0.3989E-02  0.2385E-01
     -8.445  0.3836E-02  0.2431E-01
     -8.328  0.3684E-02  0.2475E-01
     -8.212  0.3533E-02  0.2517E-01
     -8.095  0.3390E-02  0.2558E-01
     -7.978  0.3252E-02  0.2596E-01
     -7.861  0.3112E-02  0.2634E-01
     -7.744  0.2997E-02  0.2669E-01
     -7.627  0.2961E-02  0.2704E-01
     -7.510  0.2925E-02  0.2738E-01
     -7.393  0.2889E-02  0.2772E-01
     -7.277  0.2852E-02  0.2806E-01
     -7.160  0.2790E-02  0.2839E-01
     -7.043  0.2576E-02  0.2869E-01
     -6.926  0.2905E-02  0.2901E-01
     -6.809  0.3331E-02  0.2938E-01
     -6.692  0.3755E-02  0.2979E-01
     -6.575  0.3938E-02  0.3025E-01
     -6.458  0.3722E-02  0.3069E-01
     -6.341  0.3666E-02  0.3112E-01
     -6.225  0.3609E-02  0.3155E-01
     -6.108  0.3607E-02  0.3197E-01
     -5.991  0.3710E-02  0.3240E-01
     -5.874  0.3803E-02  0.3283E-01
     -5.757  0.3895E-02  0.3328E-01
     -5.640  0.3946E-02  0.3374E-01
     -5.523  0.3958E-02  0.3421E-01
     -5.406  0.3965E-02  0.3467E-01
     -5.289  0.3847E-02  0.3512E-01
     -5.173  0.4024E-02  0.3559E-01
     -5.056  0.4064E-02  0.3606E-01
     -4.939  0.4103E-02  0.3654E-01
     -4.822  0.4143E-02  0.3702E-01
     -4.705  0.4183E-02  0.3751E-01
     -4.588  0.4329E-02  0.3801E-01
     -4.471  0.4642E-02  0.3852E-01
     -4.354  0.5174E-02  0.3911E-01
     -4.237  0.5559E-02  0.3973E-01
     -4.121  0.5826E-02  0.4040E-01
     -4.004  0.6113E-02  0.4110E-01
     -3.887  0.6438E-02  0.4183E-01
     -3.770  0.6890E-02  0.4260E-01
     -3.653  0.7808E-02  0.4347E-01
     -3.536  0.8610E-02  0.4444E-01
     -3.419  0.9432E-02  0.4549E-01
     -3.302  0.9738E-02  0.4668E-01
     -3.185  0.8343E-02  0.4773E-01
     -3.069  0.9339E-02  0.4872E-01
     -2.952  0.1049E-01  0.4988E-01
     -2.835  0.1004E-01  0.5113E-01
     -2.718  0.9513E-02  0.5224E-01
     -2.601  0.8665E-02  0.5333E-01
     -2.484  0.8471E-02  0.5431E-01
     -2.367  0.8341E-02  0.5529E-01
     -2.250  0.7305E-02  0.5632E-01
     -2.133  0.5234E-02  0.5702E-01
     -2.017  0.5084E-02  0.5762E-01
     -1.900  0.6120E-02  0.5831E-01
     -1.783  0.7919E-02  0.5907E-01
     -1.666  0.7868E-02  0.6006E-01
     -1.549  0.7371E-02  0.6095E-01
     -1.432  0.6813E-02  0.6178E-01
     -1.315  0.6415E-02  0.6255E-01
     -1.198  0.6187E-02  0.6328E-01
     -1.081  0.6165E-02  0.6401E-01
     -0.965  0.6044E-02  0.6472E-01
     -0.848  0.5926E-02  0.6542E-01
     -0.731  0.5812E-02  0.6611E-01
     -0.614  0.5728E-02  0.6678E-01
     -0.497  0.5909E-02  0.6745E-01
     -0.380  0.5809E-02  0.6814E-01
     -0.263  0.5684E-02  0.6881E-01
     -0.146  0.5552E-02  0.6947E-01
     -0.029  0.5631E-02  0.7011E-01
      0.087  0.5659E-02  0.7078E-01
      0.204  0.5972E-02  0.7144E-01
      0.321  0.5344E-02  0.7210E-01
      0.438  0.4547E-02  0.7274E-01
      0.555  0.3679E-02  0.7319E-01
      0.672  0.3877E-02  0.7363E-01
      0.789  0.4161E-02  0.7410E-01
      0.906  0.4588E-02  0.7461E-01
      1.023  0.5274E-02  0.7523E-01
      1.139  0.5168E-02  0.7584E-01
      1.256  0.5250E-02  0.7644E-01
      1.373  0.3879E-02  0.7696E-01
      1.490  0.3245E-02  0.7738E-01
      1.607  0.2904E-02  0.7774E-01
      1.724  0.2624E-02  0.7806E-01
      1.841  0.2259E-02  0.7835E-01
      1.958  0.2086E-02  0.7860E-01
      2.074  0.1809E-02  0.7883E-01
      2.191  0.1604E-02  0.7903E-01
      2.308  0.1473E-02  0.7921E-01
      2.425  0.1390E-02  0.7938E-01
      2.542  0.1167E-02  0.7953E-01
      2.659  0.9768E-03  0.7965E-01
      2.776  0.7693E-03  0.7975E-01
      2.893  0.6034E-03  0.7983E-01
      3.010  0.4728E-03  0.7989E-01
      3.126  0.3422E-03  0.7994E-01
      3.243  0.2115E-03  0.7997E-01
      3.360  0.1039E-03  0.7999E-01
      3.477  0.1971E-04  0.8000E-01
      3.594  0.5212E-04  0.8000E-01
      3.711  0.1404E-03  0.8001E-01
      3.828  0.2629E-03  0.8004E-01
      3.945  0.4018E-03  0.8008E-01
      4.062  0.5409E-03  0.8013E-01
      4.178  0.6801E-03  0.8020E-01
      4.295  0.8766E-03  0.8029E-01
      4.412  0.1285E-02  0.8042E-01
      4.529  0.1661E-02  0.8059E-01
      4.646  0.1529E-02  0.8078E-01
      4.763  0.1836E-02  0.8097E-01
      4.880  0.2338E-02  0.8121E-01
      4.997  0.2839E-02  0.8152E-01
      5.114  0.4935E-02  0.8203E-01
      5.230  0.5642E-02  0.8268E-01
      5.347  0.5129E-02  0.8331E-01
      5.464  0.5257E-02  0.8392E-01
      5.581  0.4188E-02  0.8447E-01
      5.698  0.3812E-02  0.8493E-01
      5.815  0.3511E-02  0.8536E-01
      5.932  0.3297E-02  0.8576E-01
      6.049  0.3126E-02  0.8613E-01
      6.166  0.2970E-02  0.8649E-01
      6.282  0.2827E-02  0.8683E-01
      6.399  0.2715E-02  0.8715E-01
      6.516  0.2642E-02  0.8747E-01
      6.633  0.2581E-02  0.8777E-01
      6.750  0.2521E-02  0.8807E-01
      6.867  0.2464E-02  0.8836E-01
      6.984  0.2444E-02  0.8865E-01
      7.101  0.2670E-02  0.8895E-01
      7.218  0.2714E-02  0.8926E-01
      7.334  0.2748E-02  0.8958E-01
      7.451  0.2770E-02  0.8990E-01
      7.568  0.2803E-02  0.9023E-01
      7.685  0.2836E-02  0.9056E-01
      7.802  0.2865E-02  0.9089E-01
      7.919  0.2906E-02  0.9123E-01
      8.036  0.2942E-02  0.9157E-01
      8.153  0.2968E-02  0.9191E-01
      8.270  0.2980E-02  0.9226E-01
      8.386  0.3007E-02  0.9261E-01
      8.503  0.3041E-02  0.9297E-01
      8.620  0.3071E-02  0.9332E-01
      8.737  0.3120E-02  0.9368E-01
      8.854  0.3164E-02  0.9405E-01
      8.971  0.3375E-02  0.9443E-01
      9.088  0.3692E-02  0.9485E-01
      9.205  0.3600E-02  0.9528E-01
      9.322  0.3411E-02  0.9569E-01
      9.438  0.3238E-02  0.9608E-01
      9.555  0.2840E-02  0.9644E-01
      9.672  0.2747E-02  0.9676E-01
      9.789  0.2316E-02  0.9705E-01
      9.906  0.2549E-02  0.9733E-01
     10.023  0.3028E-02  0.9766E-01
     10.140  0.3336E-02  0.9804E-01
     10.257  0.3372E-02  0.9843E-01
     10.373  0.3407E-02  0.9882E-01
     10.490  0.3462E-02  0.9923E-01
     10.607  0.3739E-02  0.9964E-01
     10.724  0.3757E-02  0.1001E+00
     10.841  0.4172E-02  0.1005E+00
     10.958  0.7311E-02  0.1012E+00
     11.075  0.9657E-02  0.1022E+00
     11.192  0.9918E-02  0.1034E+00
     11.309  0.8533E-02  0.1045E+00
     11.425  0.7508E-02  0.1054E+00
     11.542  0.7202E-02  0.1063E+00
     11.659  0.7215E-02  0.1071E+00
     11.776  0.7199E-02  0.1079E+00
     11.893  0.1566E-01  0.1091E+00
     12.010  0.1315E-01  0.1110E+00
     12.127  0.8366E-02  0.1123E+00
     12.244  0.4771E-02  0.1130E+00
     12.361  0.3562E-02  0.1135E+00
     12.477  0.3240E-02  0.1139E+00
     12.594  0.2999E-02  0.1143E+00
     12.711  0.2780E-02  0.1146E+00
     12.828  0.2653E-02  0.1149E+00
     12.945  0.2554E-02  0.1152E+00
     13.062  0.2480E-02  0.1155E+00
     13.179  0.2441E-02  0.1158E+00
     13.296  0.2435E-02  0.1161E+00
     13.413  0.2558E-02  0.1164E+00
     13.529  0.2759E-02  0.1167E+00
     13.646  0.2727E-02  0.1170E+00
     13.763  0.2548E-02  0.1173E+00
     13.880  0.3399E-02  0.1177E+00
     13.997  0.4672E-02  0.1182E+00
     14.114  0.3988E-02  0.1187E+00
     14.231  0.3189E-02  0.1191E+00
     14.348  0.2408E-02  0.1195E+00
     14.465  0.1709E-02  0.1197E+00
     14.581  0.1059E-02  0.1199E+00
     14.698  0.5359E-03  0.1200E+00
     14.815  0.1396E-03  0.1200E+00
     14.932  0.1922E-04  0.1200E+00
     15.049  0.0000E+00  0.1200E+00
     15.166  0.0000E+00  0.1200E+00
     15.283  0.0000E+00  0.1200E+00
     15.400  0.0000E+00  0.1200E+00
     15.517  0.0000E+00  0.1200E+00
     15.633  0.0000E+00  0.1200E+00
     15.750  0.0000E+00  0.1200E+00
     15.867  0.0000E+00  0.1200E+00
     15.984  0.0000E+00  0.1200E+00
     16.101  0.0000E+00  0.1200E+00
     16.218  0.0000E+00  0.1200E+00
     16.335  0.0000E+00  0.1200E+00
     16.452  0.0000E+00  0.1200E+00
     16.569  0.0000E+00  0.1200E+00
     16.685  0.0000E+00  0.1200E+00
     16.802  0.0000E+00  0.1200E+00
     16.919  0.0000E+00  0.1200E+00
     17.036  0.0000E+00  0.1200E+00
