   32   32    1    1
  0.8730593E+01  0.4932875E-09  0.4932875E-09  0.1326350E-08  0.5000000E-15
  1.000000000000000E-004
  CAR 
 graphite                                
    128    163     84
 
  0.0000000E+00  0.0000000E+00  0.0000000E+00  0.3086420E-02
    1      -14.862967
    2      -14.705111
    3      -14.704254
    4      -14.534596
    5       -9.531650
    6       -9.523646
    7       -9.520424
    8       -9.464749
    9       -9.464555
   10       -9.456853
   11       -9.452908
   12       -9.452896
   13       -9.451131
   14       -9.410107
   15       -9.398900
   16       -9.396521
   17       -8.451000
   18       -8.447774
   19       -8.446162
   20       -8.419089
   21       -8.414901
   22       -8.413308
   23       -8.412328
   24       -8.412326
   25       -8.409058
   26       -8.359681
   27       -8.354873
   28       -8.352271
   29       -3.769982
   30       -2.832690
   31       -2.830813
   32       -1.684921
   33       -1.624053
   34       -1.621306
   35       -1.602097
   36       -1.594768
   37       -1.590360
   38       -1.590352
   39       -1.589919
   40       -1.571672
   41       -1.569829
   42       -1.561042
   43       -1.558663
   44       -1.539276
   45        1.769439
   46        1.781386
   47        1.786827
   48        1.793840
   49        1.795427
   50        1.802931
   51        1.806937
   52        1.818313
   53        1.988211
   54        1.990070
   55        1.991814
   56        2.423557
   57        2.424933
   58        2.427240
   59        2.431166
   60        2.431189
   61        2.432195
   62        2.708326
   63        2.723829
   64        2.725554
   65        6.301068
   66        6.303089
   67        6.304859
   68        6.427337
   69        6.433755
   70        6.437781
   71        6.439031
   72        6.439410
   73        6.445147
   74        6.992284
   75        7.005934
   76        7.009134
   77        9.186265
   78       11.915125
   79       11.918793
   80       11.962190
   81       11.966166
   82       11.999470
   83       12.172157
   84       12.180287
 
  0.1111111E+00  0.1387779E-16  0.0000000E+00  0.6172840E-02
    1      -14.789194
    2      -14.632023
    3      -14.631170
    4      -14.462266
    5      -10.323292
    6      -10.210367
    7      -10.209336
    8      -10.091479
    9       -9.783086
   10       -9.774860
   11       -9.685501
   12       -9.684823
   13       -9.676280
   14       -9.675970
   15       -9.586498
   16       -9.577106
   17       -8.153794
   18       -8.147418
   19       -8.077847
   20       -8.074457
   21       -8.069510
   22       -8.068994
   23       -7.988745
   24       -7.981676
   25       -7.636090
   26       -7.547425
   27       -7.546107
   28       -7.452525
   29       -3.680450
   30       -2.745747
   31       -2.743870
   32       -1.848991
   33       -1.829492
   34       -1.814970
   35       -1.814141
   36       -1.795827
   37       -1.793956
   38       -1.779579
   39       -1.759927
   40       -1.601446
   41       -1.550721
   42       -1.521214
   43       -1.517969
   44       -1.488506
   45        1.390002
   46        1.487251
   47        1.500521
   48        1.504251
   49        1.518227
   50        1.616815
   51        1.629546
   52        1.634640
   53        1.646044
   54        1.869803
   55        1.871986
   56        2.001618
   57        2.004238
   58        2.371834
   59        2.373091
   60        2.378664
   61        2.379315
   62        2.600455
   63        2.770567
   64        2.784529
   65        6.369872
   66        6.371668
   67        6.559034
   68        6.565212
   69        6.569530
   70        6.571975
   71        6.648829
   72        6.979688
   73        6.983765
   74        7.128725
   75        7.140684
   76        7.611165
   77        9.274524
   78       11.989217
   79       11.992891
   80       12.004893
   81       12.210609
   82       12.212724
   83       12.298797
   84       12.334440
 
  0.2222222E+00  0.1387779E-16  0.0000000E+00  0.6172840E-02
    1      -14.568308
    2      -14.413097
    3      -14.412254
    4      -14.245630
    5      -11.336132
    6      -11.210280
    7      -11.209506
    8      -11.076623
    9      -10.131638
   10      -10.125913
   11      -10.021050
   12      -10.019883
   13      -10.014434
   14      -10.014087
   15       -9.904136
   16       -9.898004
   17       -7.474603
   18       -7.465358
   19       -7.389780
   20       -7.386784
   21       -7.379198
   22       -7.378542
   23       -7.296847
   24       -7.287521
   25       -6.309724
   26       -6.226686
   27       -6.225511
   28       -6.138959
   29       -3.412694
   30       -2.485724
   31       -2.483842
   32       -2.457034
   33       -2.438696
   34       -2.415211
   35       -2.414515
   36       -2.397317
   37       -2.395428
   38       -2.371398
   39       -2.352930
   40       -1.352293
   41       -1.335526
   42       -1.306756
   43       -1.303364
   44       -1.274569
   45        0.363828
   46        0.659353
   47        0.681928
   48        0.685574
   49        0.708633
   50        1.112552
   51        1.114598
   52        1.196141
   53        1.213183
   54        1.218401
   55        1.234729
   56        1.643095
   57        1.645962
   58        1.964213
   59        2.250686
   60        2.251399
   61        2.255961
   62        2.257208
   63        2.845198
   64        2.854735
   65        6.599853
   66        6.603174
   67        6.894188
   68        6.899934
   69        6.904143
   70        6.906353
   71        7.436041
   72        7.444131
   73        7.762373
   74        8.202431
   75        8.205745
   76        8.822237
   77        9.540045
   78       12.122460
   79       12.209276
   80       12.212915
   81       12.320804
   82       12.322947
   83       12.506405
   84       13.155748
 
  0.3333333E+00  0.8326673E-16  0.0000000E+00  0.6172840E-02
    1      -14.201334
    2      -14.049422
    3      -14.048595
    4      -13.885773
    5      -12.250311
    6      -12.115880
    7      -12.115135
    8      -11.972269
    9      -10.388619
   10      -10.384985
   11      -10.273173
   12      -10.271634
   13      -10.268518
   14      -10.268183
   15      -10.150337
   16      -10.146549
   17       -6.665788
   18       -6.655065
   19       -6.587592
   20       -6.584470
   21       -6.575780
   22       -6.574823
   23       -6.502996
   24       -6.492514
   25       -4.874310
   26       -4.802290
   27       -4.800921
   28       -4.726388
   29       -3.273486
   30       -3.257539
   31       -3.224311
   32       -3.223996
   33       -3.208940
   34       -3.206931
   35       -3.172718
   36       -3.156526
   37       -2.969219
   38       -2.055814
   39       -2.053929
   40       -0.986418
   41       -0.958953
   42       -0.955333
   43       -0.941671
   44       -0.927378
   45       -0.661133
   46       -0.528158
   47       -0.493634
   48       -0.490553
   49       -0.455803
   50        0.159278
   51        0.161156
   52        0.632955
   53        0.653861
   54        0.658620
   55        0.679413
   56        1.131032
   57        1.447820
   58        1.450417
   59        2.126664
   60        2.127195
   61        2.130267
   62        2.132162
   63        2.864916
   64        2.870640
   65        6.945458
   66        6.950529
   67        7.286706
   68        7.291938
   69        7.295065
   70        7.296831
   71        7.738378
   72        7.742838
   73        9.266770
   74        9.680508
   75        9.683462
   76        9.982983
   77       10.224858
   78       12.191742
   79       12.416205
   80       12.490094
   81       12.492485
   82       12.540493
   83       12.544530
   84       12.823856
 
  0.4444444E+00  0.2775558E-16  0.0000000E+00  0.6172840E-02
    1      -13.690278
    2      -13.542896
    3      -13.542079
    4      -13.384599
    5      -13.038195
    6      -12.896646
    7      -12.895898
    8      -12.745009
    9      -10.520800
   10      -10.518752
   11      -10.403802
   12      -10.401716
   13      -10.400681
   14      -10.400044
   15      -10.278366
   16      -10.276276
   17       -5.912730
   18       -5.904680
   19       -5.856362
   20       -5.852513
   21       -5.847647
   22       -5.845750
   23       -5.796498
   24       -5.789555
   25       -4.019457
   26       -4.010817
   27       -3.979647
   28       -3.978711
   29       -3.971088
   30       -3.968616
   31       -3.933463
   32       -3.923719
   33       -3.391346
   34       -3.331811
   35       -3.330033
   36       -3.268539
   37       -2.355215
   38       -1.916739
   39       -1.870435
   40       -1.868157
   41       -1.819388
   42       -1.579824
   43       -1.461207
   44       -1.459471
   45       -0.716015
   46       -0.714176
   47       -0.520079
   48       -0.493954
   49       -0.489991
   50       -0.463694
   51       -0.377710
   52        0.035561
   53        0.059677
   54        0.063891
   55        0.088014
   56        0.324015
   57        1.340116
   58        1.342182
   59        2.051913
   60        2.053135
   61        2.054243
   62        2.056925
   63        2.859251
   64        2.862157
   65        7.226749
   66        7.230413
   67        7.555100
   68        7.560225
   69        7.561050
   70        7.562106
   71        7.903300
   72        7.905983
   73       10.600166
   74       10.894299
   75       11.219796
   76       11.223257
   77       11.381836
   78       11.673846
   79       12.494197
   80       12.581071
   81       12.585308
   82       12.590752
   83       12.692210
   84       12.693755
 
  0.0000000E+00  0.1111111E+00  0.0000000E+00  0.6172840E-02
    1      -14.789196
    2      -14.632026
    3      -14.631170
    4      -14.462268
    5      -10.323212
    6      -10.210195
    7      -10.209330
    8      -10.091380
    9       -9.783073
   10       -9.775159
   11       -9.685496
   12       -9.684821
   13       -9.676848
   14       -9.676040
   15       -9.586466
   16       -9.577498
   17       -8.153911
   18       -8.146147
   19       -8.078147
   20       -8.074458
   21       -8.069024
   22       -8.066776
   23       -7.988850
   24       -7.980313
   25       -7.637049
   26       -7.548083
   27       -7.547384
   28       -7.453503
   29       -3.680445
   30       -2.745740
   31       -2.743867
   32       -1.850299
   33       -1.829441
   34       -1.817368
   35       -1.814143
   36       -1.795827
   37       -1.794099
   38       -1.780823
   39       -1.760078
   40       -1.601439
   41       -1.549258
   42       -1.518599
   43       -1.517966
   44       -1.487312
   45        1.390827
   46        1.485011
   47        1.498719
   48        1.500524
   49        1.514131
   50        1.621340
   51        1.634637
   52        1.634931
   53        1.648184
   54        1.869439
   55        1.871114
   56        2.003430
   57        2.004401
   58        2.371816
   59        2.373086
   60        2.376558
   61        2.378908
   62        2.601562
   63        2.770586
   64        2.783364
   65        6.371218
   66        6.372138
   67        6.559488
   68        6.565153
   69        6.570417
   70        6.574938
   71        6.647029
   72        6.978447
   73        6.981420
   74        7.128862
   75        7.142827
   76        7.609355
   77        9.274530
   78       11.989247
   79       11.992913
   80       12.005384
   81       12.211497
   82       12.212735
   83       12.298360
   84       12.334109
 
  0.1111111E+00  0.1111111E+00  0.0000000E+00  0.6172840E-02
    1      -14.641750
    2      -14.485900
    3      -14.485054
    4      -14.317666
    5      -10.789614
    6      -10.786573
    7      -10.671245
    8      -10.667456
    9      -10.667433
   10      -10.665140
   11      -10.542622
   12      -10.539553
   13       -9.342006
   14       -9.276583
   15       -9.275792
   16       -9.222852
   17       -8.266359
   18       -8.235816
   19       -8.231979
   20       -8.179109
   21       -6.953568
   22       -6.950378
   23       -6.868146
   24       -6.865042
   25       -6.865020
   26       -6.861577
   27       -6.775346
   28       -6.771946
   29       -3.501688
   30       -2.572109
   31       -2.570232
   32       -2.514316
   33       -2.472316
   34       -2.470702
   35       -2.427741
   36       -1.705841
   37       -1.702881
   38       -1.673861
   39       -1.669327
   40       -1.669319
   41       -1.668533
   42       -1.636986
   43       -1.634509
   44       -1.435022
   45        0.950673
   46        0.951854
   47        0.959025
   48        0.971504
   49        0.976123
   50        0.989664
   51        1.302458
   52        1.313736
   53        1.318678
   54        1.329134
   55        1.641529
   56        1.645179
   57        1.645284
   58        1.646658
   59        2.257410
   60        2.391454
   61        2.393811
   62        2.689487
   63        2.691555
   64        2.968951
   65        6.290496
   66        6.355989
   67        6.361502
   68        6.811156
   69        7.118446
   70        7.120859
   71        7.520657
   72        7.522634
   73        7.523306
   74        7.527589
   75        8.134829
   76        8.137577
   77        9.451759
   78       12.138529
   79       12.142169
   80       12.377607
   81       12.381736
   82       12.580965
   83       12.586214
   84       12.587506
 
  0.2222222E+00  0.1111111E+00  0.0000000E+00  0.6172840E-02
    1      -14.347726
    2      -14.194484
    3      -14.193654
    4      -14.029327
    5      -11.756246
    6      -11.626496
    7      -11.625715
    8      -11.488274
    9      -11.131006
   10      -11.007288
   11      -11.006452
   12      -10.875785
   13       -9.396607
   14       -9.302376
   15       -9.302095
   16       -9.207530
   17       -7.806155
   18       -7.735405
   19       -7.732080
   20       -7.652514
   21       -6.167548
   22       -6.088108
   23       -6.087034
   24       -6.004372
   25       -5.568130
   26       -5.491298
   27       -5.490098
   28       -5.410429
   29       -3.423939
   30       -3.373005
   31       -3.371432
   32       -3.318581
   33       -3.145897
   34       -2.231615
   35       -2.226901
   36       -2.225035
   37       -2.190914
   38       -2.190594
   39       -2.148979
   40       -1.418631
   41       -1.387243
   42       -1.383926
   43       -1.352124
   44       -1.104928
   45       -0.095303
   46        0.001984
   47        0.025184
   48        0.029448
   49        0.052281
   50        0.614633
   51        0.692310
   52        0.694237
   53        0.757460
   54        0.773577
   55        0.779120
   56        0.795075
   57        1.356627
   58        1.357871
   59        1.611312
   60        2.200243
   61        2.389570
   62        2.891689
   63        2.893641
   64        3.289069
   65        6.255158
   66        6.365233
   67        6.370376
   68        6.753341
   69        7.688302
   70        8.091627
   71        8.094376
   72        8.466186
   73        8.616058
   74        8.893486
   75        8.896325
   76        9.453868
   77        9.807174
   78       12.432902
   79       12.436703
   80       12.512493
   81       12.724698
   82       12.726830
   83       12.798079
   84       13.199035
 
  0.3333333E+00  0.1111111E+00  0.0000000E+00  0.6172840E-02
    1      -13.908568
    2      -13.759285
    3      -13.758475
    4      -13.598679
    5      -12.607857
    6      -12.470200
    7      -12.469433
    8      -12.323018
    9      -11.340266
   10      -11.214346
   11      -11.213475
   12      -11.080523
   13       -9.541991
   14       -9.436882
   15       -9.436359
   16       -9.327247
   17       -7.040725
   18       -6.968889
   19       -6.965714
   20       -6.890683
   21       -5.366222
   22       -5.300907
   23       -5.299125
   24       -5.232209
   25       -4.362503
   26       -4.309884
   27       -4.308161
   28       -4.251935
   29       -4.116489
   30       -4.051674
   31       -4.050264
   32       -3.983620
   33       -2.930434
   34       -2.887155
   35       -2.886586
   36       -2.840529
   37       -2.616764
   38       -1.715144
   39       -1.713193
   40       -1.247220
   41       -1.209327
   42       -1.206191
   43       -1.168946
   44       -1.072890
   45       -1.001912
   46       -0.972322
   47       -0.968836
   48       -0.938884
   49       -0.617026
   50       -0.230938
   51       -0.229132
   52        0.132330
   53        0.154541
   54        0.159640
   55        0.182072
   56        0.403510
   57        0.775923
   58        1.172505
   59        1.173813
   60        2.067029
   61        2.382579
   62        2.981780
   63        2.983359
   64        3.579339
   65        6.223141
   66        6.485742
   67        6.489975
   68        6.854991
   69        8.196838
   70        8.546497
   71        8.549169
   72        8.934235
   73       10.033430
   74       10.338458
   75       10.400223
   76       10.403315
   77       10.868623
   78       11.902032
   79       12.784689
   80       12.791950
   81       12.798988
   82       12.905620
   83       12.907893
   84       13.171256
 
  0.4444444E+00  0.1111111E+00  0.0000000E+00  0.6172840E-02
    1      -13.328944
    2      -13.325959
    3      -13.186099
    4      -13.183029
    5      -13.182072
    6      -13.180314
    7      -13.030182
    8      -13.027147
    9      -11.410884
   10      -11.284440
   11      -11.283551
   12      -11.149875
   13       -9.597150
   14       -9.490022
   15       -9.489334
   16       -9.377543
   17       -6.527338
   18       -6.481266
   19       -6.478236
   20       -6.434698
   21       -4.890761
   22       -4.881103
   23       -4.854107
   24       -4.853513
   25       -4.851293
   26       -4.848852
   27       -4.816593
   28       -4.812826
   29       -3.341809
   30       -3.316890
   31       -3.314467
   32       -3.283484
   33       -2.655103
   34       -2.651891
   35       -2.603333
   36       -2.603153
   37       -2.601174
   38       -2.596997
   39       -2.549094
   40       -2.545196
   41       -1.923001
   42       -1.920537
   43       -1.046377
   44       -1.043107
   45       -1.042291
   46       -1.040431
   47       -0.477242
   48       -0.470549
   49       -0.450699
   50       -0.443575
   51       -0.441722
   52       -0.441356
   53       -0.417093
   54       -0.412971
   55        0.015709
   56        0.018441
   57        0.331282
   58        1.108900
   59        1.110243
   60        2.019177
   61        2.369018
   62        3.004878
   63        3.006012
   64        3.689722
   65        6.221892
   66        6.554530
   67        6.557644
   68        6.910345
   69        8.416708
   70        8.723308
   71        8.726288
   72        9.031216
   73       11.042323
   74       11.044029
   75       11.631314
   76       11.634716
   77       11.892145
   78       11.895418
   79       11.896598
   80       11.902479
   81       12.275624
   82       12.279163
   83       13.021041
   84       13.038782
 
 -0.4444444E+00  0.1111111E+00  0.0000000E+00  0.6172840E-02
    1      -13.909325
    2      -13.760060
    3      -13.759228
    4      -13.599438
    5      -12.606649
    6      -12.468980
    7      -12.468244
    8      -12.321815
    9      -11.342045
   10      -11.216140
   11      -11.215250
   12      -11.082329
   13       -9.539330
   14       -9.434167
   15       -9.433414
   16       -9.324204
   17       -7.032341
   18       -6.959717
   19       -6.958269
   20       -6.882505
   21       -5.377651
   22       -5.312777
   23       -5.309515
   24       -5.242984
   25       -4.374617
   26       -4.321513
   27       -4.321339
   28       -4.264561
   29       -4.118688
   30       -4.054059
   31       -4.052292
   32       -3.985832
   33       -2.916044
   34       -2.873309
   35       -2.870977
   36       -2.825613
   37       -2.617505
   38       -1.715850
   39       -1.713931
   40       -1.247154
   41       -1.208693
   42       -1.207013
   43       -1.169272
   44       -1.071816
   45       -0.999865
   46       -0.970426
   47       -0.966550
   48       -0.936780
   49       -0.617723
   50       -0.229934
   51       -0.228055
   52        0.132635
   53        0.155001
   54        0.158632
   55        0.181620
   56        0.402146
   57        0.776885
   58        1.170806
   59        1.172177
   60        2.064779
   61        2.383113
   62        2.984617
   63        2.985372
   64        3.585932
   65        6.223925
   66        6.489587
   67        6.492054
   68        6.856451
   69        8.191291
   70        8.541301
   71        8.544983
   72        8.932115
   73       10.033962
   74       10.337447
   75       10.399628
   76       10.403033
   77       10.867386
   78       11.903439
   79       12.781534
   80       12.792480
   81       12.799569
   82       12.902196
   83       12.905286
   84       13.157456
 
 -0.3333333E+00  0.1111111E+00  0.0000000E+00  0.6172840E-02
    1      -14.348263
    2      -14.195036
    3      -14.194191
    4      -14.029865
    5      -11.754823
    6      -11.625049
    7      -11.624314
    8      -11.486848
    9      -11.134587
   10      -11.010917
   11      -11.010051
   12      -10.879435
   13       -9.390892
   14       -9.296321
   15       -9.295554
   16       -9.200483
   17       -7.799466
   18       -7.727012
   19       -7.726119
   20       -7.645013
   21       -6.179122
   22       -6.100442
   23       -6.097688
   24       -6.015727
   25       -5.570441
   26       -5.493694
   27       -5.492353
   28       -5.412769
   29       -3.439809
   30       -3.388434
   31       -3.387878
   32       -3.334578
   33       -3.146436
   34       -2.227450
   35       -2.225581
   36       -2.213263
   37       -2.173368
   38       -2.171380
   39       -2.130435
   40       -1.416920
   41       -1.385636
   42       -1.382082
   43       -1.350403
   44       -1.105441
   45       -0.094134
   46       -0.001842
   47        0.022275
   48        0.023779
   49        0.047158
   50        0.612112
   51        0.693319
   52        0.695409
   53        0.763128
   54        0.778875
   55        0.781750
   56        0.798373
   57        1.353313
   58        1.354734
   59        1.612258
   60        2.195633
   61        2.389587
   62        2.896932
   63        2.897506
   64        3.301852
   65        6.253596
   66        6.371525
   67        6.374088
   68        6.759320
   69        7.681301
   70        8.083268
   71        8.087593
   72        8.466143
   73        8.610444
   74        8.892582
   75        8.895644
   76        9.452427
   77        9.806421
   78       12.432442
   79       12.436203
   80       12.510230
   81       12.722174
   82       12.724724
   83       12.797374
   84       13.202528
 
 -0.2222222E+00  0.1111111E+00  0.0000000E+00  0.6172840E-02
    1      -14.642081
    2      -14.486238
    3      -14.485383
    4      -14.318001
    5      -10.793459
    6      -10.786453
    7      -10.673702
    8      -10.672908
    9      -10.666646
   10      -10.665818
   11      -10.546704
   12      -10.539559
   13       -9.332681
   14       -9.265893
   15       -9.265150
   16       -9.210727
   17       -8.263562
   18       -8.230426
   19       -8.229705
   20       -8.174551
   21       -6.962311
   22       -6.953599
   23       -6.876563
   24       -6.873981
   25       -6.867213
   26       -6.865999
   27       -6.784032
   28       -6.775439
   29       -3.502015
   30       -2.572426
   31       -2.570560
   32       -2.532115
   33       -2.489723
   34       -2.489003
   35       -2.445638
   36       -1.703856
   37       -1.683919
   38       -1.671447
   39       -1.668128
   40       -1.650873
   41       -1.648976
   42       -1.635337
   43       -1.615488
   44       -1.435335
   45        0.943121
   46        0.949883
   47        0.952690
   48        0.961585
   49        0.962999
   50        0.975795
   51        1.317240
   52        1.328113
   53        1.328487
   54        1.340603
   55        1.639573
   56        1.641113
   57        1.644193
   58        1.646524
   59        2.256767
   60        2.385875
   61        2.392839
   62        2.696143
   63        2.696794
   64        2.985380
   65        6.286772
   66        6.363603
   67        6.366459
   68        6.821850
   69        7.113053
   70        7.120389
   71        7.511667
   72        7.516444
   73        7.521776
   74        7.525445
   75        8.127080
   76        8.135530
   77        9.451289
   78       12.138151
   79       12.141749
   80       12.377956
   81       12.413791
   82       12.583581
   83       12.599184
   84       12.619516
 
 -0.1111111E+00  0.1111111E+00  0.0000000E+00  0.6172840E-02
    1      -14.789302
    2      -14.632124
    3      -14.631264
    4      -14.462374
    5      -10.330548
    6      -10.217607
    7      -10.216970
    8      -10.099096
    9       -9.774890
   10       -9.772550
   11       -9.678043
   12       -9.674676
   13       -9.674652
   14       -9.673407
   15       -9.577270
   16       -9.575012
   17       -8.149395
   18       -8.147557
   19       -8.072059
   20       -8.070652
   21       -8.070637
   22       -8.068183
   23       -7.983834
   24       -7.981835
   25       -7.644701
   26       -7.556759
   27       -7.554125
   28       -7.461220
   29       -3.680552
   30       -2.745821
   31       -2.743951
   32       -1.850625
   33       -1.847964
   34       -1.818105
   35       -1.813751
   36       -1.813742
   37       -1.813316
   38       -1.780955
   39       -1.778741
   40       -1.601536
   41       -1.529523
   42       -1.499449
   43       -1.497578
   44       -1.467406
   45        1.387293
   46        1.469098
   47        1.483057
   48        1.488424
   49        1.501059
   50        1.634812
   51        1.646768
   52        1.650722
   53        1.663923
   54        1.870333
   55        1.872941
   56        1.997307
   57        1.999012
   58        2.375137
   59        2.379315
   60        2.379459
   61        2.380038
   62        2.591267
   63        2.782965
   64        2.784908
   65        6.370282
   66        6.372431
   67        6.567868
   68        6.569984
   69        6.570340
   70        6.575674
   71        6.644162
   72        6.969064
   73        6.974240
   74        7.139210
   75        7.142334
   76        7.599472
   77        9.274370
   78       11.989067
   79       11.992705
   80       12.039877
   81       12.246309
   82       12.246906
   83       12.296053
   84       12.299963
 
  0.0000000E+00  0.2222222E+00  0.0000000E+00  0.6172840E-02
    1      -14.568314
    2      -14.413109
    3      -14.412255
    4      -14.245637
    5      -11.336168
    6      -11.210347
    7      -11.209510
    8      -11.076657
    9      -10.131793
   10      -10.125861
   11      -10.021526
   12      -10.019888
   13      -10.014283
   14      -10.013906
   15       -9.904234
   16       -9.897959
   17       -7.474759
   18       -7.464234
   19       -7.390183
   20       -7.386785
   21       -7.378575
   22       -7.376617
   23       -7.296922
   24       -7.286266
   25       -6.310615
   26       -6.227377
   27       -6.226649
   28       -6.139899
   29       -3.412675
   30       -2.485693
   31       -2.483827
   32       -2.458342
   33       -2.438764
   34       -2.417618
   35       -2.414519
   36       -2.397317
   37       -2.395654
   38       -2.372580
   39       -2.353069
   40       -1.352263
   41       -1.333994
   42       -1.304049
   43       -1.303362
   44       -1.273342
   45        0.364304
   46        0.657428
   47        0.680963
   48        0.681931
   49        0.705700
   50        1.113470
   51        1.114812
   52        1.199617
   53        1.217832
   54        1.218401
   55        1.236573
   56        1.642586
   57        1.645423
   58        1.964936
   59        2.250162
   60        2.250997
   61        2.255346
   62        2.256435
   63        2.845088
   64        2.853591
   65        6.600145
   66        6.604930
   67        6.894717
   68        6.899887
   69        6.905130
   70        6.909110
   71        7.436249
   72        7.446078
   73        7.760882
   74        8.201333
   75        8.204152
   76        8.820923
   77        9.540063
   78       12.123056
   79       12.209436
   80       12.213058
   81       12.321967
   82       12.322971
   83       12.507001
   84       13.171952
 
  0.1111111E+00  0.2222222E+00  0.0000000E+00  0.6172840E-02
    1      -14.347731
    2      -14.194492
    3      -14.193655
    4      -14.029332
    5      -11.756299
    6      -11.626596
    7      -11.625721
    8      -11.488327
    9      -11.130968
   10      -11.007220
   11      -11.006448
   12      -10.875751
   13       -9.396598
   14       -9.302370
   15       -9.302085
   16       -9.207523
   17       -7.806095
   18       -7.735284
   19       -7.732080
   20       -7.652452
   21       -6.166546
   22       -6.087063
   23       -6.086029
   24       -6.003323
   25       -5.569111
   26       -5.492151
   27       -5.491269
   28       -5.411473
   29       -3.424019
   30       -3.373005
   31       -3.371597
   32       -3.318668
   33       -3.145881
   34       -2.233067
   35       -2.226882
   36       -2.225024
   37       -2.193632
   38       -2.190607
   39       -2.150269
   40       -1.417050
   41       -1.384389
   42       -1.383921
   43       -1.350809
   44       -1.104904
   45       -0.094927
   46        0.001166
   47        0.025185
   48        0.027311
   49        0.050645