  32  32   0   0
  0.6647258E+01  0.4934311E-09  0.4934311E-09  0.1008861E-08  0.5000000E-15
  1.000000000000000E-004
  CAR 
 graphite                                
     19.50888815    -14.85044008  301      7.56960393      1.00000000
    -14.850  0.0000E+00  0.0000E+00
    -14.736  0.0000E+00  0.0000E+00
    -14.621  0.0000E+00  0.0000E+00
    -14.507  0.0000E+00  0.0000E+00
    -14.392  0.0000E+00  0.0000E+00
    -14.278  0.0000E+00  0.0000E+00
    -14.163  0.0000E+00  0.0000E+00
    -14.049  0.0000E+00  0.0000E+00
    -13.934  0.0000E+00  0.0000E+00
    -13.820  0.0000E+00  0.0000E+00
    -13.705  0.0000E+00  0.0000E+00
    -13.591  0.0000E+00  0.0000E+00
    -13.476  0.0000E+00  0.0000E+00
    -13.362  0.0000E+00  0.0000E+00
    -13.247  0.0000E+00  0.0000E+00
    -13.132  0.0000E+00  0.0000E+00
    -13.018  0.0000E+00  0.0000E+00
    -12.903  0.0000E+00  0.0000E+00
    -12.789  0.4427E+00  0.9152E-02
    -12.674  0.9445E+00  0.9531E-01
    -12.560  0.1320E+01  0.2301E+00
    -12.445  0.1566E+01  0.3940E+00
    -12.331  0.1859E+01  0.5901E+00
    -12.216  0.2042E+01  0.8134E+00
    -12.102  0.2234E+01  0.1058E+01
    -11.987  0.2457E+01  0.1327E+01
    -11.873  0.2650E+01  0.1620E+01
    -11.758  0.2821E+01  0.1933E+01
    -11.644  0.3011E+01  0.2267E+01
    -11.529  0.3405E+01  0.2640E+01
    -11.415  0.3658E+01  0.3042E+01
    -11.300  0.4205E+01  0.3510E+01
    -11.185  0.4417E+01  0.4002E+01
    -11.071  0.3454E+01  0.4450E+01
    -10.956  0.3634E+01  0.4835E+01
    -10.842  0.5091E+01  0.5357E+01
    -10.727  0.5959E+01  0.5964E+01
    -10.613  0.5093E+01  0.6639E+01
    -10.498  0.5364E+01  0.7212E+01
    -10.384  0.3850E+01  0.7785E+01
    -10.269  0.3504E+01  0.8174E+01
    -10.155  0.5339E+01  0.8664E+01
    -10.040  0.6304E+01  0.9320E+01
     -9.926  0.4266E+01  0.9960E+01
     -9.811  0.4212E+01  0.1039E+02
     -9.697  0.5616E+01  0.1097E+02
     -9.582  0.5666E+01  0.1164E+02
     -9.467  0.4568E+01  0.1222E+02
     -9.353  0.4550E+01  0.1274E+02
     -9.238  0.5055E+01  0.1330E+02
     -9.124  0.5272E+01  0.1388E+02
     -9.009  0.6216E+01  0.1452E+02
     -8.895  0.5093E+01  0.1513E+02
     -8.780  0.5103E+01  0.1571E+02
     -8.666  0.5248E+01  0.1631E+02
     -8.551  0.5418E+01  0.1692E+02
     -8.437  0.5707E+01  0.1755E+02
     -8.322  0.5667E+01  0.1822E+02
     -8.208  0.5306E+01  0.1884E+02
     -8.093  0.5801E+01  0.1948E+02
     -7.979  0.6148E+01  0.2017E+02
     -7.864  0.5569E+01  0.2084E+02
     -7.750  0.5221E+01  0.2146E+02
     -7.635  0.4723E+01  0.2204E+02
     -7.520  0.4305E+01  0.2254E+02
     -7.406  0.4488E+01  0.2304E+02
     -7.291  0.5016E+01  0.2361E+02
     -7.177  0.6013E+01  0.2423E+02
     -7.062  0.6153E+01  0.2497E+02
     -6.948  0.5390E+01  0.2563E+02
     -6.833  0.5747E+01  0.2625E+02
     -6.719  0.6101E+01  0.2693E+02
     -6.604  0.5983E+01  0.2766E+02
     -6.490  0.1117E+02  0.2857E+02
     -6.375  0.4581E+01  0.2937E+02
     -6.261  0.3763E+01  0.2984E+02
     -6.146  0.3342E+01  0.3024E+02
     -6.032  0.3411E+01  0.3063E+02
     -5.917  0.2504E+01  0.3098E+02
     -5.802  0.1816E+01  0.3122E+02
     -5.688  0.1959E+01  0.3142E+02
     -5.573  0.5074E+01  0.3181E+02
     -5.459  0.3673E+01  0.3227E+02
     -5.344  0.4882E+01  0.3274E+02
     -5.230  0.5409E+01  0.3334E+02
     -5.115  0.4560E+01  0.3393E+02
     -5.001  0.4679E+01  0.3443E+02
     -4.886  0.6346E+01  0.3505E+02
     -4.772  0.8620E+01  0.3591E+02
     -4.657  0.6778E+01  0.3673E+02
     -4.543  0.6692E+01  0.3749E+02
     -4.428  0.6819E+01  0.3827E+02
     -4.314  0.6365E+01  0.3903E+02
     -4.199  0.6754E+01  0.3978E+02
     -4.085  0.5554E+01  0.4047E+02
     -3.970  0.5386E+01  0.4110E+02
     -3.855  0.5253E+01  0.4171E+02
     -3.741  0.5086E+01  0.4230E+02
     -3.626  0.5021E+01  0.4288E+02
     -3.512  0.5022E+01  0.4345E+02
     -3.397  0.4443E+01  0.4399E+02
     -3.283  0.3963E+01  0.4447E+02
     -3.168  0.3623E+01  0.4490E+02
     -3.054  0.3670E+01  0.4531E+02
     -2.939  0.4127E+01  0.4575E+02
     -2.825  0.5373E+01  0.4629E+02
     -2.710  0.7430E+01  0.4701E+02
     -2.596  0.8446E+01  0.4795E+02
     -2.481  0.7652E+01  0.4889E+02
     -2.367  0.6271E+01  0.4967E+02
     -2.252  0.6691E+01  0.5042E+02
     -2.137  0.5963E+01  0.5118E+02
     -2.023  0.3733E+01  0.5185E+02
     -1.908  0.4587E+01  0.5229E+02
     -1.794  0.7122E+01  0.5297E+02
     -1.679  0.8105E+01  0.5386E+02
     -1.565  0.7838E+01  0.5478E+02
     -1.450  0.7065E+01  0.5564E+02
     -1.336  0.5845E+01  0.5639E+02
     -1.221  0.6133E+01  0.5706E+02
     -1.107  0.7453E+01  0.5784E+02
     -0.992  0.8687E+01  0.5876E+02
     -0.878  0.9864E+01  0.5986E+02
     -0.763  0.1093E+02  0.6101E+02
     -0.649  0.8764E+01  0.6213E+02
     -0.534  0.7557E+01  0.6305E+02
     -0.420  0.7320E+01  0.6390E+02
     -0.305  0.8390E+01  0.6480E+02
     -0.190  0.8989E+01  0.6575E+02
     -0.076  0.8774E+01  0.6686E+02
      0.039  0.7894E+01  0.6785E+02
      0.153  0.8478E+01  0.6878E+02
      0.268  0.9850E+01  0.6982E+02
      0.382  0.1093E+02  0.7100E+02
      0.497  0.1132E+02  0.7229E+02
      0.611  0.1229E+02  0.7364E+02
      0.726  0.1167E+02  0.7501E+02
      0.840  0.1356E+02  0.7649E+02
      0.955  0.1197E+02  0.7794E+02
      1.069  0.1314E+02  0.7940E+02
      1.184  0.1081E+02  0.8077E+02
      1.298  0.1809E+02  0.8234E+02
      1.413  0.1113E+02  0.8394E+02
      1.528  0.1432E+02  0.8543E+02
      1.642  0.1222E+02  0.8699E+02
      1.757  0.1044E+02  0.8831E+02
      1.871  0.1085E+02  0.8949E+02
      1.986  0.1109E+02  0.9078E+02
      2.100  0.1088E+02  0.9204E+02
      2.215  0.1006E+02  0.9322E+02
      2.329  0.9521E+01  0.9433E+02
      2.444  0.9462E+01  0.9542E+02
      2.558  0.9619E+01  0.9651E+02
      2.673  0.1007E+02  0.9762E+02
      2.787  0.9795E+01  0.9877E+02
      2.902  0.9059E+01  0.9986E+02
      3.016  0.8952E+01  0.1009E+03
      3.131  0.8880E+01  0.1019E+03
      3.245  0.8931E+01  0.1029E+03
      3.360  0.9252E+01  0.1040E+03
      3.475  0.8906E+01  0.1050E+03
      3.589  0.8709E+01  0.1060E+03
      3.704  0.9626E+01  0.1071E+03
      3.818  0.9042E+01  0.1082E+03
      3.933  0.8937E+01  0.1092E+03
      4.047  0.8583E+01  0.1102E+03
      4.162  0.8125E+01  0.1112E+03
      4.276  0.9141E+01  0.1121E+03
      4.391  0.8316E+01  0.1132E+03
      4.505  0.7793E+01  0.1141E+03
      4.620  0.7116E+01  0.1149E+03
      4.734  0.5074E+01  0.1156E+03
      4.849  0.4478E+01  0.1162E+03
      4.963  0.4236E+01  0.1167E+03
      5.078  0.4054E+01  0.1172E+03
      5.193  0.3814E+01  0.1176E+03
      5.307  0.3952E+01  0.1181E+03
      5.422  0.4997E+01  0.1186E+03
      5.536  0.5754E+01  0.1192E+03
      5.651  0.6641E+01  0.1199E+03
      5.765  0.7173E+01  0.1207E+03
      5.880  0.5936E+01  0.1215E+03
      5.994  0.6459E+01  0.1222E+03
      6.109  0.8459E+01  0.1231E+03
      6.223  0.6369E+01  0.1239E+03
      6.338  0.5069E+01  0.1246E+03
      6.452  0.3788E+01  0.1251E+03
      6.567  0.3652E+01  0.1255E+03
      6.681  0.3336E+01  0.1259E+03
      6.796  0.4092E+01  0.1264E+03
      6.910  0.3453E+01  0.1268E+03
      7.025  0.2853E+01  0.1272E+03
      7.140  0.2526E+01  0.1275E+03
      7.254  0.2122E+01  0.1278E+03
      7.369  0.8204E+00  0.1279E+03
      7.483  0.3047E+00  0.1280E+03
      7.598  0.1196E+00  0.1280E+03
      7.712  0.3401E+00  0.1280E+03
      7.827  0.6305E+00  0.1281E+03
      7.941  0.9300E+00  0.1282E+03
      8.056  0.1125E+01  0.1283E+03
      8.170  0.1077E+01  0.1284E+03
      8.285  0.1164E+01  0.1286E+03
      8.399  0.1276E+01  0.1287E+03
      8.514  0.1417E+01  0.1289E+03
      8.628  0.1578E+01  0.1290E+03
      8.743  0.1739E+01  0.1292E+03
      8.857  0.2473E+01  0.1295E+03
      8.972  0.3083E+01  0.1298E+03
      9.087  0.3775E+01  0.1302E+03
      9.201  0.4826E+01  0.1307E+03
      9.316  0.6597E+01  0.1314E+03
      9.430  0.5721E+01  0.1321E+03
      9.545  0.5408E+01  0.1328E+03
      9.659  0.6926E+01  0.1334E+03
      9.774  0.7388E+01  0.1343E+03
      9.888  0.6014E+01  0.1351E+03
     10.003  0.4622E+01  0.1357E+03
     10.117  0.5517E+01  0.1363E+03
     10.232  0.5441E+01  0.1369E+03
     10.346  0.5201E+01  0.1375E+03
     10.461  0.5176E+01  0.1381E+03
     10.575  0.5131E+01  0.1387E+03
     10.690  0.5202E+01  0.1393E+03
     10.805  0.5080E+01  0.1399E+03
     10.919  0.4689E+01  0.1404E+03
     11.034  0.4587E+01  0.1410E+03
     11.148  0.4149E+01  0.1415E+03
     11.263  0.3951E+01  0.1419E+03
     11.377  0.4152E+01  0.1424E+03
     11.492  0.4292E+01  0.1429E+03
     11.606  0.4510E+01  0.1434E+03
     11.721  0.4290E+01  0.1439E+03
     11.835  0.3719E+01  0.1443E+03
     11.950  0.3610E+01  0.1448E+03
     12.064  0.3536E+01  0.1452E+03
     12.179  0.3513E+01  0.1456E+03
     12.293  0.3503E+01  0.1460E+03
     12.408  0.3499E+01  0.1464E+03
     12.522  0.3691E+01  0.1468E+03
     12.637  0.3250E+01  0.1472E+03
     12.752  0.3028E+01  0.1475E+03
     12.866  0.2903E+01  0.1479E+03
     12.981  0.2750E+01  0.1482E+03
     13.095  0.3139E+01  0.1485E+03
     13.210  0.3296E+01  0.1489E+03
     13.324  0.3071E+01  0.1493E+03
     13.439  0.3325E+01  0.1496E+03
     13.553  0.2359E+01  0.1500E+03
     13.668  0.1869E+01  0.1502E+03
     13.782  0.2768E+01  0.1504E+03
     13.897  0.4032E+01  0.1508E+03
     14.011  0.4032E+01  0.1513E+03
     14.126  0.3718E+01  0.1518E+03
     14.240  0.4083E+01  0.1522E+03
     14.355  0.4732E+01  0.1527E+03
     14.470  0.4483E+01  0.1532E+03
     14.584  0.5708E+01  0.1538E+03
     14.699  0.6779E+01  0.1545E+03
     14.813  0.5945E+01  0.1552E+03
     14.928  0.6144E+01  0.1559E+03
     15.042  0.6366E+01  0.1566E+03
     15.157  0.8086E+01  0.1576E+03
     15.271  0.7391E+01  0.1585E+03
     15.386  0.8118E+01  0.1594E+03
     15.500  0.8548E+01  0.1603E+03
     15.615  0.9864E+01  0.1614E+03
     15.729  0.1164E+02  0.1626E+03
     15.844  0.8198E+01  0.1638E+03
     15.958  0.6731E+01  0.1646E+03
     16.073  0.6184E+01  0.1654E+03
     16.187  0.6261E+01  0.1661E+03
     16.302  0.4124E+01  0.1667E+03
     16.417  0.2895E+01  0.1671E+03
     16.531  0.1977E+01  0.1673E+03
     16.646  0.1579E+01  0.1675E+03
     16.760  0.1246E+01  0.1677E+03
     16.875  0.8656E+00  0.1678E+03
     16.989  0.5582E+00  0.1679E+03
     17.104  0.2627E+00  0.1680E+03
     17.218  0.1478E+00  0.1680E+03
     17.333  0.7437E-01  0.1680E+03
     17.447  0.1744E-01  0.1680E+03
     17.562  0.0000E+00  0.1680E+03
     17.676  0.0000E+00  0.1680E+03
     17.791  0.0000E+00  0.1680E+03
     17.905  0.0000E+00  0.1680E+03
     18.020  0.0000E+00  0.1680E+03
     18.135  0.0000E+00  0.1680E+03
     18.249  0.0000E+00  0.1680E+03
     18.364  0.0000E+00  0.1680E+03
     18.478  0.0000E+00  0.1680E+03
     18.593  0.0000E+00  0.1680E+03
     18.707  0.0000E+00  0.1680E+03
     18.822  0.0000E+00  0.1680E+03
     18.936  0.0000E+00  0.1680E+03
     19.051  0.0000E+00  0.1680E+03
     19.165  0.0000E+00  0.1680E+03
     19.280  0.0000E+00  0.1680E+03
     19.394  0.0000E+00  0.1680E+03
     19.509  0.0000E+00  0.1680E+03
