   32   32    1    1
  0.6647258E+01  0.4934311E-09  0.4934311E-09  0.1008861E-08  0.5000000E-15
  1.000000000000000E-004
  CAR 
 graphite                                
    128    163     84
 
  0.0000000E+00  0.0000000E+00  0.0000000E+00  0.3086420E-02
    1      -12.850440
    2      -12.042849
    3      -12.040368
    4      -10.913343
    5       -7.277783
    6       -7.274641
    7       -7.271373
    8       -6.732925
    9       -6.728080
   10       -6.727458
   11       -6.727076
   12       -6.726447
   13       -6.721808
   14       -6.695872
   15       -6.694812
   16       -6.693907
   17       -5.690852
   18       -5.687187
   19       -5.686077
   20       -5.685671
   21       -5.685565
   22       -5.681387
   23       -5.422954
   24       -5.421356
   25       -5.419073
   26       -5.086527
   27       -5.084242
   28       -5.081610
   29       -2.698108
   30        0.293076
   31        0.297146
   32        0.959474
   33        0.962225
   34        0.963437
   35        1.243361
   36        1.246504
   37        1.246667
   38        1.248023
   39        1.249797
   40        1.251960
   41        1.551126
   42        1.553958
   43        1.555354
   44        3.342980
   45        3.345424
   46        3.347867
   47        3.972626
   48        4.517213
   49        4.521928
   50        4.633197
   51        4.636810
   52        4.641621
   53        4.645574
   54        4.755883
   55        4.760517
   56        5.320178
   57        5.320472
   58        5.321802
   59        5.349362
   60        5.352837
   61        5.353610
   62        5.353766
   63        5.354730
   64        5.358818
   65        9.246744
   66        9.255866
   67        9.257480
   68        9.258006
   69        9.258761
   70        9.268007
   71       10.499139
   72       10.499608
   73       10.500426
   74       11.046771
   75       11.049508
   76       11.051958
   77       13.829174
   78       13.833637
   79       13.836845
   80       14.900843
   81       14.906063
   82       14.907443
   83       14.909862
   84       14.911876
 
  0.1111111E+00  0.6938894E-17  0.0000000E+00  0.6172840E-02
    1      -12.774612
    2      -11.968850
    3      -11.966376
    4      -10.843441
    5       -8.159337
    6       -7.574715
    7       -7.571653
    8       -7.495095
    9       -7.493056
   10       -6.957491
   11       -6.954313
   12       -6.953529
   13       -6.951009
   14       -6.688098
   15       -6.456331
   16       -6.454268
   17       -5.564610
   18       -5.564051
   19       -5.339814
   20       -5.338721
   21       -5.337702
   22       -5.334522
   23       -5.312364
   24       -4.811755
   25       -4.808905
   26       -4.643417
   27       -4.641402
   28       -4.098272
   29       -2.607150
   30        0.376647
   31        0.380708
   32        0.713537
   33        0.716473
   34        1.014039
   35        1.016820
   36        1.019196
   37        1.019939
   38        1.036088
   39        1.319026
   40        1.322364
   41        1.345836
   42        1.348816
   43        1.625085
   44        2.678062
   45        3.201981
   46        3.204890
   47        4.046492
   48        4.183281
   49        4.331570
   50        4.338979
   51        4.341456
   52        4.480602
   53        4.485383
   54        4.490981
   55        4.628603
   56        4.947933
   57        4.951229
   58        5.301089
   59        5.305305
   60        5.306109
   61        5.307684
   62        5.566311
   63        5.567855
   64        5.890616
   65        9.376627
   66        9.380374
   67        9.382085
   68        9.390148
   69        9.760299
   70        9.767977
   71        9.999151
   72       10.255774
   73       10.257529
   74       11.245738
   75       11.248803
   76       11.853141
   77       13.884694
   78       14.188327
   79       14.194204
   80       14.960111
   81       14.962950
   82       15.236734
   83       15.238869
   84       15.243708
 
  0.2222222E+00  0.0000000E+00  0.0000000E+00  0.6172840E-02
    1      -12.547245
    2      -11.747235
    3      -11.744779
    4      -10.634084
    5       -9.213883
    6       -8.507281
    7       -8.505123
    8       -7.954344
    9       -7.951866
   10       -7.580770
   11       -7.298306
   12       -7.295787
   13       -7.294995
   14       -7.292662
   15       -6.503705
   16       -6.501148
   17       -5.130623
   18       -5.128985
   19       -4.641156
   20       -4.639880
   21       -4.638800
   22       -4.635980
   23       -4.005088
   24       -3.949810
   25       -3.947665
   26       -3.477244
   27       -3.474559
   28       -2.814213
   29       -2.334740
   30        0.063832
   31        0.066495
   32        0.399233
   33        0.401941
   34        0.404009
   35        0.404905
   36        0.626055
   37        0.630097
   38        0.787156
   39        0.789974
   40        1.254581
   41        1.534004
   42        1.537624
   43        1.566253
   44        1.835516
   45        2.928822
   46        2.931548
   47        3.286553
   48        3.506290
   49        3.511949
   50        3.737401
   51        3.879986
   52        4.062580
   53        4.068894
   54        4.097600
   55        4.100700
   56        4.256969
   57        4.266216
   58        5.188369
   59        5.192906
   60        5.194221
   61        5.195565
   62        6.136609
   63        6.138325
   64        6.417739
   65        9.689979
   66        9.693221
   67        9.694661
   68        9.701854
   69        9.844636
   70        9.846537
   71       10.042706
   72       10.908241
   73       10.914212
   74       11.499937
   75       11.503000
   76       13.001925
   77       14.038860
   78       15.123577
   79       15.126170
   80       15.170985
   81       15.176543
   82       15.623746
   83       15.821380
   84       15.828130
 
  0.3333333E+00  0.0000000E+00  0.0000000E+00  0.6172840E-02
    1      -12.169497
    2      -11.379182
    3      -11.376758
    4      -10.286297
    5      -10.158873
    6       -9.423173
    7       -9.420921
    8       -8.439292
    9       -8.226080
   10       -8.223834
   11       -7.554240
   12       -7.551959
   13       -7.551163
   14       -7.548915
   15       -6.697294
   16       -6.694935
   17       -4.327535
   18       -4.325483
   19       -3.827208
   20       -3.825895
   21       -3.824801
   22       -3.821727
   23       -3.206053
   24       -3.203676
   25       -2.524371
   26       -2.039519
   27       -2.036590
   28       -1.882847
   29       -1.449066
   30       -0.774593
   31       -0.772348
   32       -0.428505
   33       -0.425598
   34       -0.424269
   35       -0.422977
   36        0.015052
   37        0.017597
   38        0.490063
   39        1.034106
   40        1.038180
   41        1.610427
   42        1.882772
   43        1.886569
   44        2.022096
   45        2.176362
   46        2.325240
   47        2.329841
   48        2.639193
   49        2.694613
   50        2.697132
   51        3.182701
   52        3.185994
   53        3.282447
   54        3.500631
   55        3.506203
   56        3.734454
   57        4.623933
   58        5.072765
   59        5.077544
   60        5.079129
   61        5.080567
   62        6.206345
   63        6.798081
   64        6.799958
   65        9.414760
   66        9.416882
   67       10.051351
   68       10.053578
   69       10.054650
   70       10.061147
   71       11.092416
   72       11.645803
   73       11.648654
   74       12.273566
   75       12.278176
   76       14.217747
   77       14.286729
   78       15.346958
   79       15.398737
   80       15.401559
   81       15.479740
   82       15.485353
   83       15.836610
   84       16.279940
 
  0.4444444E+00  0.0000000E+00  0.0000000E+00  0.6172840E-02
    1      -11.643228
    2      -10.971425
    3      -10.866606
    4      -10.864225
    5      -10.212846
    6      -10.210522
    7       -9.802014
    8       -9.184449
    9       -8.365132
   10       -8.362981
   11       -7.686756
   12       -7.684565
   13       -7.683767
   14       -7.681549
   15       -6.811907
   16       -6.809645
   17       -3.501822
   18       -3.499385
   19       -3.083923
   20       -3.082840
   21       -3.082141
   22       -3.077741
   23       -2.723378
   24       -2.720886
   25       -1.363817
   26       -1.362150
   27       -1.255815
   28       -1.203940
   29       -1.200552
   30       -1.199823
   31       -1.198420
   32       -0.983102
   33       -0.774295
   34       -0.772104
   35       -0.556937
   36       -0.553777
   37       -0.460276
   38       -0.046402
   39        0.558951
   40        0.902895
   41        0.906644
   42        1.341309
   43        1.639966
   44        1.643202
   45        2.087854
   46        2.342471
   47        2.345933
   48        2.348991
   49        2.352986
   50        2.566403
   51        2.568649
   52        2.629660
   53        2.660937
   54        2.904028
   55        2.909108
   56        3.166001
   57        5.003016
   58        5.007959
   59        5.009644
   60        5.011182
   61        5.102853
   62        5.664641
   63        7.318044
   64        7.320535
   65        9.058046
   66        9.061432
   67       10.294576
   68       10.295544
   69       10.296033
   70       10.301972
   71       11.691663
   72       11.694276
   73       12.643984
   74       13.631328
   75       13.634986
   76       14.298876
   77       14.611381
   78       14.763995
   79       14.768240
   80       14.982591
   81       15.448604
   82       15.801985
   83       15.805479
   84       16.355169
 
 -0.8470329E-21  0.1111111E+00  0.0000000E+00  0.6172840E-02
    1      -12.774610
    2      -11.968848
    3      -11.966373
    4      -10.843438
    5       -8.159412
    6       -7.574805
    7       -7.571398
    8       -7.495169
    9       -7.493159
   10       -6.957179
   11       -6.954264
   12       -6.953566
   13       -6.950458
   14       -6.688440
   15       -6.456096
   16       -6.453985
   17       -5.566243
   18       -5.564121
   19       -5.342402
   20       -5.339203
   21       -5.337672
   22       -5.334536
   23       -5.310787
   24       -4.810023
   25       -4.808330
   26       -4.644944
   27       -4.641089
   28       -4.097179
   29       -2.607155
   30        0.376640
   31        0.380702
   32        0.715171
   33        0.716343
   34        1.016026
   35        1.016803
   36        1.019691
   37        1.020323
   38        1.034797
   39        1.318641
   40        1.319564
   41        1.347566
   42        1.348745
   43        1.623455
   44        2.677088
   45        3.202430
   46        3.205865
   47        4.046482
   48        4.186632
   49        4.332422
   50        4.338930
   51        4.343767
   52        4.478760
   53        4.480663
   54        4.494300
   55        4.625194
   56        4.947506
   57        4.949303
   58        5.302176
   59        5.305290
   60        5.306183
   61        5.309558
   62        5.566023
   63        5.567996
   64        5.890121
   65        9.373512
   66        9.379968
   67        9.382141
   68        9.388390
   69        9.763312
   70        9.769482
   71       10.000987
   72       10.254130
   73       10.258036
   74       11.243443
   75       11.249053
   76       11.854587
   77       13.883904
   78       14.190020
   79       14.193369
   80       14.959526
   81       14.962006
   82       15.238370
   83       15.241156
   84       15.243139
 
  0.1111111E+00  0.1111111E+00  0.0000000E+00  0.6172840E-02
    1      -12.622995
    2      -11.821026
    3      -11.818564
    4      -10.703777
    5       -8.646560
    6       -8.642901
    7       -7.960936
    8       -7.957061
    9       -7.956775
   10       -7.952855
   11       -7.080550
   12       -7.076573
   13       -7.073253
   14       -6.539649
   15       -6.537471
   16       -6.499912
   17       -5.501361
   18       -5.497127
   19       -5.240232
   20       -4.919208
   21       -4.655751
   22       -4.651929
   23       -4.125187
   24       -4.120084
   25       -4.119943
   26       -4.116782
   27       -3.436233
   28       -3.432108
   29       -2.425336
   30       -0.013070
   31        0.326463
   32        0.329506
   33        0.543188
   34        0.547234
   35        0.716717
   36        0.862433
   37        0.865658
   38        1.160522
   39        1.162165
   40        1.162339
   41        1.167333
   42        1.487331
   43        1.490788
   44        2.191598
   45        2.194559
   46        3.599476
   47        3.628200
   48        3.796903
   49        3.803450
   50        3.855362
   51        4.136079
   52        4.163732
   53        4.171061
   54        4.193275
   55        4.323522
   56        4.605105
   57        4.607005
   58        4.607762
   59        4.612355
   60        5.558970
   61        5.607430
   62        5.610899
   63        6.302691
   64        6.304316
   65        9.183255
   66        9.191540
   67        9.858787
   68        9.861758
   69       10.270209
   70       10.277428
   71       10.278704
   72       10.281343
   73       10.516693
   74       10.561691
   75       12.310232
   76       12.313557
   77       14.291240
   78       14.296122
   79       15.123055
   80       15.342881
   81       15.346965
   82       15.347289
   83       15.352975
   84       15.809768
 
  0.2222222E+00  0.1111111E+00  0.0000000E+00  0.6172840E-02
    1      -12.320444
    2      -11.526172
    3      -11.523735
    4      -10.425234
    5       -9.647954
    6       -9.000051
    7       -8.927422
    8       -8.925223
    9       -8.300060
   10       -8.297920
   11       -7.973311
   12       -7.386227
   13       -7.172156
   14       -6.568598
   15       -6.566659
   16       -6.080590
   17       -5.207634
   18       -4.991068
   19       -4.987322
   20       -4.341182
   21       -3.846834
   22       -3.334308
   23       -3.332666
   24       -3.239959
   25       -2.735351
   26       -2.732479
   27       -2.701380
   28       -2.115049
   29       -2.063182
   30       -0.960095
   31       -0.591125
   32       -0.588125
   33       -0.135418
   34        0.301728
   35        0.625935
   36        0.627059
   37        0.872857
   38        0.876889
   39        1.002931
   40        1.080329
   41        1.158834
   42        1.448343
   43        1.451851
   44        1.768262
   45        1.821901
   46        2.610021
   47        2.845237
   48        2.851507
   49        3.023576
   50        3.501810
   51        3.618856
   52        3.625566
   53        3.695653
   54        3.698935
   55        3.705364
   56        3.823692
   57        4.333749
   58        4.336236
   59        4.482422
   60        5.804742
   61        5.808154
   62        6.043286
   63        6.443386
   64        6.658134
   65        9.180028
   66        9.187295
   67        9.707189
   68        9.890697
   69       10.435245
   70       10.810429
   71       10.813215
   72       10.817612
   73       11.556201
   74       11.561138
   75       12.569344
   76       13.479242
   77       14.496114
   78       15.325469
   79       15.561546
   80       15.564161
   81       15.757631
   82       15.809993
   83       15.818549
   84       16.324054
 
  0.3333333E+00  0.1111111E+00  0.0000000E+00  0.6172840E-02
    1      -11.868423
    2      -11.085881
    3      -11.083484
    4      -10.527091
    5      -10.009228
    6       -9.780890
    7       -9.778603
    8       -9.215867
    9       -8.776706
   10       -8.508692
   11       -8.506525
   12       -7.579412
   13       -7.340814
   14       -6.706754
   15       -6.704835
   16       -5.949475
   17       -4.653011
   18       -4.211138
   19       -4.207598
   20       -3.655480
   21       -2.989333
   22       -2.535291
   23       -2.533350
   24       -2.033594
   25       -1.856342
   26       -1.733527
   27       -1.544397
   28       -1.541163
   29       -1.523640
   30       -1.282483
   31       -1.279716
   32       -1.056515
   33       -0.743768
   34       -0.373363
   35       -0.088803
   36       -0.087004
   37        0.062451
   38        0.322608
   39        1.279664
   40        1.318008
   41        1.322259
   42        1.586977
   43        1.593529
   44        1.648302
   45        1.652379
   46        1.864057
   47        1.867779
   48        1.919759
   49        2.171419
   50        2.790921
   51        2.809700
   52        2.812981
   53        2.995651
   54        3.001623
   55        3.248137
   56        3.661170
   57        4.159660
   58        4.162356
   59        4.902376
   60        5.895764
   61        5.898662
   62        6.001570
   63        6.857455
   64        6.872564
   65        8.804956
   66        9.277390
   67        9.282665
   68       10.042833
   69       10.982177
   70       11.236680
   71       11.239928
   72       11.796607
   73       12.628926
   74       12.936048
   75       12.939730
   76       14.682347
   77       14.782626
   78       14.982219
   79       15.251092
   80       15.256511
   81       15.481697
   82       15.878958
   83       15.881837
   84       16.578385
 
  0.4444444E+00  0.1111111E+00  0.0000000E+00  0.6172840E-02
    1      -11.271070
    2      -11.267670
    3      -10.505453
    4      -10.501853
    5      -10.501490
    6      -10.497650
    7       -9.460033
    8       -9.456475
    9       -9.288220
   10       -8.578566
   11       -8.576390
   12       -7.644736
   13       -7.402715
   14       -6.761811
   15       -6.759876
   16       -5.966335
   17       -4.095009
   18       -3.716082
   19       -3.712906
   20       -3.492929
   21       -2.409912
   22       -2.096251
   23       -2.093004
   24       -2.079033
   25       -2.072077
   26       -2.068090
   27       -1.880483
   28       -1.696340
   29       -0.813422
   30       -0.810370
   31       -0.562459
   32       -0.536705
   33       -0.533012
   34       -0.205207
   35       -0.201195
   36       -0.187055
   37        0.174067
   38        0.181014
   39        0.181233
   40        0.181697
   41        0.624529
   42        0.628348
   43        1.513706
   44        2.024673
   45        2.028387
   46        2.030064
   47        2.034768
   48        2.138090
   49        2.143741
   50        2.392126
   51        2.393699
   52        2.393783
   53        2.404073
   54        2.674059
   55        2.680332
   56        3.632006
   57        4.099923
   58        4.102747
   59        5.427055
   60        5.430161
   61        5.919491
   62        5.921732
   63        6.939490
   64        7.650383
   65        7.998355
   66        9.333601
   67        9.336826
   68       10.136082
   69       11.040613
   70       11.400817
   71       11.403789
   72       12.614821
   73       13.403938
   74       13.407946
   75       14.229041
   76       14.235050
   77       14.238080
   78       14.239202
   79       15.125418
   80       15.129001
   81       15.886486
   82       15.891155
   83       16.300833
   84       16.302615
 
 -0.4444444E+00  0.1111111E+00  0.0000000E+00  0.6172840E-02
    1      -11.868509
    2      -11.085966
    3      -11.083568
    4      -10.526954
    5      -10.009312
    6       -9.780751
    7       -9.778465
    8       -9.216067
    9       -8.776566
   10       -8.508911
   11       -8.506743
   12       -7.579632
   13       -7.340464
   14       -6.706332
   15       -6.704431
   16       -5.948763
   17       -4.652922
   18       -4.209697
   19       -4.207950
   20       -3.655091
   21       -2.990237
   22       -2.536950
   23       -2.533353
   24       -2.034160
   25       -1.857097
   26       -1.733896
   27       -1.544421
   28       -1.542965
   29       -1.523746
   30       -1.283055
   31       -1.279884
   32       -1.057450
   33       -0.744166
   34       -0.372394
   35       -0.088719
   36       -0.084788
   37        0.062618
   38        0.323758
   39        1.280117
   40        1.317999
   41        1.322186
   42        1.587257
   43        1.593376
   44        1.649386
   45        1.651998
   46        1.864172
   47        1.868396
   48        1.920263
   49        2.171776
   50        2.790415
   51        2.809766
   52        2.813163
   53        2.996114
   54        3.000117
   55        3.247654
   56        3.661645
   57        4.159248
   58        4.162135
   59        4.902276
   60        5.896981
   61        5.898658
   62        6.001725
   63        6.858888
   64        6.871848
   65        8.803348
   66        9.277946
   67        9.281521
   68       10.043156
   69       10.982287
   70       11.236094
   71       11.240337
   72       11.796424
   73       12.629105
   74       12.935582
   75       12.939789
   76       14.682282
   77       14.782375
   78       14.982311
   79       15.251674
   80       15.255943
   81       15.481756
   82       15.878473
   83       15.881877
   84       16.577712
 
 -0.3333333E+00  0.1111111E+00  0.0000000E+00  0.6172840E-02
    1      -12.320505
    2      -11.526232
    3      -11.523794
    4      -10.425292
    5       -9.647789
    6       -9.000372
    7       -8.927303
    8       -8.925101
    9       -8.300479
   10       -8.298339
   11       -7.973187
   12       -7.386687
   13       -7.171361
   14       -6.567512
   15       -6.565789
   16       -6.079080
   17       -5.208155
   18       -4.989827
   19       -4.988356
   20       -4.340894
   21       -3.847621
   22       -3.335813
   23       -3.332685
   24       -3.240346
   25       -2.735555
   26       -2.732697
   27       -2.702372
   28       -2.115402
   29       -2.063260
   30       -0.961279
   31       -0.591435
   32       -0.590219
   33       -0.136587
   34        0.303179
   35        0.626206
   36        0.629671
   37        0.872779
   38        0.876810
   39        1.004328
   40        1.080521
   41        1.159122
   42        1.448483
   43        1.452251
   44        1.768488
   45        1.821341
   46        2.610461
   47        2.847385
   48        2.850097
   49        3.023692
   50        3.501636
   51        3.620302
   52        3.623214
   53        3.695864
   54        3.698777
   55        3.706596
   56        3.823180
   57        4.332886
   58        4.335811
   59        4.482370
   60        5.806956
   61        5.808248
   62        6.044531
   63        6.443448
   64        6.656791
   65        9.180501
   66        9.185792
   67        9.705662
   68        9.891279
   69       10.435151
   70       10.810813
   71       10.812377
   72       10.818076
   73       11.555793
   74       11.561114
   75       12.569613
   76       13.479094
   77       14.495917
   78       15.329120
   79       15.561215
   80       15.564143
   81       15.757557
   82       15.811284
   83       15.815853
   84       16.325596
 
 -0.2222222E+00  0.1111111E+00  0.0000000E+00  0.6172840E-02
    1      -12.623031
    2      -11.821062
    3      -11.818599
    4      -10.703811
    5       -8.645344
    6       -8.644547
    7       -7.958962
    8       -7.957428
    9       -7.956866
   10       -7.955339
   11       -7.079406
   12       -7.075872
   13       -7.074192
   14       -6.537471
   15       -6.536234
   16       -6.499019
   17       -5.500209
   18       -5.499319
   19       -5.239928
   20       -4.919713
   21       -4.654708
   22       -4.653708
   23       -4.123067
   24       -4.121699
   25       -4.120280
   26       -4.118727
   27       -3.435032
   28       -3.434210
   29       -2.425384
   30       -0.014436
   31        0.326073
   32        0.327179
   33        0.543143
   34        0.547189
   35        0.715391
   36        0.864835
   37        0.865038
   38        1.162004
   39        1.162425
   40        1.165369
   41        1.165929
   42        1.489670
   43        1.490017
   44        2.191865
   45        2.193644
   46        3.600845
   47        3.628423
   48        3.800125
   49        3.800392
   50        3.855159
   51        4.136374
   52        4.166892
   53        4.167550
   54        4.193215
   55        4.323188
   56        4.604525
   57        4.607479
   58        4.607778
   59        4.610894
   60        5.560033
   61        5.609968
   62        5.611165
   63        6.301487
   64        6.303887
   65        9.183576
   66        9.189966
   67        9.859174
   68        9.862030
   69       10.271165
   70       10.275808
   71       10.277963
   72       10.282570
   73       10.515477
   74       10.561709
   75       12.311076
   76       12.312903
   77       14.294003
   78       14.296858
   79       15.119123
   80       15.346271
   81       15.349147
   82       15.349265
   83       15.352065
   84       15.814313
 
 -0.1111111E+00  0.1111111E+00  0.0000000E+00  0.6172840E-02
    1      -12.774622
    2      -11.968860
    3      -11.966385
    4      -10.843450
    5       -8.160285
    6       -7.573811
    7       -7.570901
    8       -7.496150
    9       -7.494142
   10       -6.956044
   11       -6.953611
   12       -6.953093
   13       -6.949706
   14       -6.689661
   15       -6.455066
   16       -6.453539
   17       -5.566227
   18       -5.564439
   19       -5.341892
   20       -5.338156
   21       -5.337686
   22       -5.336599
   23       -5.310928
   24       -4.811024
   25       -4.807937
   26       -4.644319
   27       -4.641997
   28       -4.097527
   29       -2.607171
   30        0.376624
   31        0.380685
   32        0.713625
   33        0.716475
   34        1.015218
   35        1.016669
   36        1.016858
   37        1.021555
   38        1.036121
   39        1.318953
   40        1.322328
   41        1.345904
   42        1.348971
   43        1.624903
   44        2.675962
   45        3.203419
   46        3.206376
   47        4.046463
   48        4.186387
   49        4.335447
   50        4.335997
   51        4.343610
   52        4.477083
   53        4.484160
   54        4.492575
   55        4.625341
   56        4.945681
   57        4.948717
   58        5.304059
   59        5.305356
   60        5.306195
   61        5.310568
   62        5.567069
   63        5.567965
   64        5.888717
   65        9.372475
   66        9.381357
   67        9.382536
   68        9.386439
   69        9.762859
   70        9.770470
   71       10.001479
   72       10.254939
   73       10.257212
   74       11.244030
   75       11.247374
   76       11.855189
   77       13.887618
   78       14.187470
   79       14.192070
   80       14.962824
   81       14.965758
   82       15.235425
   83       15.238454
   84       15.242797
 
  0.1694066E-20  0.2222222E+00  0.0000000E+00  0.6172840E-02
    1      -12.547237
    2      -11.747227
    3      -11.744770
    4      -10.634072
    5       -9.213854
    6       -8.507264
    7       -8.505108
    8       -7.954847
    9       -7.951314
   10       -7.580788
   11       -7.298992
   12       -7.295753
   13       -7.295112
   14       -7.291596
   15       -6.503808
   16       -6.500639
   17       -5.132263
   18       -5.128990
   19       -4.643853
   20       -4.640493
   21       -4.638836
   22       -4.635277
   23       -4.003976
   24       -3.951430
   25       -3.947274
   26       -3.475612
   27       -3.473963
   28       -2.813083
   29       -2.334761
   30        0.065002
   31        0.066958
   32        0.400717
   33        0.401923
   34        0.404635
   35        0.405999
   36        0.626026
   37        0.630066
   38        0.788372
   39        0.790354
   40        1.253018
   41        1.533713
   42        1.534641
   43        1.565727
   44        1.833797
   45        2.928886
   46        2.932660
   47        3.289400
   48        3.511608
   49        3.512187
   50        3.740072
   51        3.877272
   52        4.062490
   53        4.063106
   54        4.097204
   55        4.099794
   56        4.253846
   57        4.266132
   58        5.189226
   59        5.192796
   60        5.194019
   61        5.197779
   62        6.136332
   63        6.138919
   64        6.416551
   65        9.686688
   66        9.692837
   67        9.694621
   68        9.700442
   69        9.842848
   70        9.846691
   71       10.045200
   72       10.910395
   73       10.915359
   74       11.497638
   75       11.503563
   76       13.002941
   77       14.038022
   78       15.122862
   79       15.125152
   80       15.172425
   81       15.176414
   82       15.620826
   83       15.820387
   84       15.823677
 
  0.1111111E+00  0.2222222E+00  0.0000000E+00  0.6172840E-02
    1      -12.320438
    2      -11.526165
    3      -11.523728
    4      -10.425224
    5       -9.647908
    6       -9.000094
    7       -8.927378
    8       -8.925174
    9       -8.300092
   10       -8.297954
   11       -7.973276
   12       -7.386231
   13       -7.172143
   14       -6.568573
   15       -6.566650
   16       -6.080597
   17       -5.207642
   18       -4.991070
   19       -4.987530
   20       -4.341383
   21       -3.848096
   22       -3.336043
   23       -3.333369
   24       -3.238726
   25       -2.733501
   26       -2.731924
   27       -2.702637
   28       -2.113758
   29       -2.063195
   30       -0.959936
   31       -0.590933
   32       -0.588119
   33       -0.135353
   34        0.303381
   35        0.626567
   36        0.629712
   37        0.872838
   38        0.876873
   39        1.004600
   40        1.079888
   41        1.157131
   42        1.447886
   43        1.448842
   44        1.766480
   45        1.822468
   46        2.611756
   47        2.847953
   48        2.851502
   49        3.023600