   4   4   0   0
  0.8294063E+01  0.2466437E-09  0.2466437E-09  0.6300163E-09  0.5000000E-15
  1.000000000000000E-004
  CAR 
 graphite                                
     19.02965252    -16.46361335  301      5.22874696      1.00000000
    -16.464  0.0000E+00  0.0000E+00
    -16.345  0.0000E+00  0.0000E+00
    -16.227  0.0000E+00  0.0000E+00
    -16.109  0.0000E+00  0.0000E+00
    -15.990  0.0000E+00  0.0000E+00
    -15.872  0.0000E+00  0.0000E+00
    -15.754  0.0000E+00  0.0000E+00
    -15.635  0.0000E+00  0.0000E+00
    -15.517  0.0000E+00  0.0000E+00
    -15.399  0.0000E+00  0.0000E+00
    -15.281  0.0000E+00  0.0000E+00
    -15.162  0.0000E+00  0.0000E+00
    -15.044  0.0000E+00  0.0000E+00
    -14.926  0.0000E+00  0.0000E+00
    -14.807  0.0000E+00  0.0000E+00
    -14.689  0.0000E+00  0.0000E+00
    -14.571  0.0000E+00  0.0000E+00
    -14.452  0.1441E-04  0.5419E-07
    -14.334  0.9010E-03  0.4537E-04
    -14.216  0.1395E-02  0.1915E-03
    -14.097  0.1891E-02  0.3846E-03
    -13.979  0.2638E-02  0.6469E-03
    -13.861  0.3257E-02  0.1007E-02
    -13.742  0.3008E-02  0.1368E-02
    -13.624  0.3086E-02  0.1729E-02
    -13.506  0.3115E-02  0.2096E-02
    -13.388  0.3075E-02  0.2462E-02
    -13.269  0.3110E-02  0.2828E-02
    -13.151  0.3125E-02  0.3197E-02
    -13.033  0.3130E-02  0.3567E-02
    -12.914  0.3112E-02  0.3937E-02
    -12.796  0.3075E-02  0.4302E-02
    -12.678  0.3097E-02  0.4667E-02
    -12.559  0.3134E-02  0.5035E-02
    -12.441  0.3181E-02  0.5409E-02
    -12.323  0.3177E-02  0.5786E-02
    -12.204  0.3172E-02  0.6161E-02
    -12.086  0.3162E-02  0.6536E-02
    -11.968  0.3130E-02  0.6908E-02
    -11.849  0.3134E-02  0.7278E-02
    -11.731  0.3155E-02  0.7650E-02
    -11.613  0.3181E-02  0.8025E-02
    -11.495  0.3211E-02  0.8403E-02
    -11.376  0.3248E-02  0.8785E-02
    -11.258  0.3250E-02  0.9169E-02
    -11.140  0.3252E-02  0.9554E-02
    -11.021  0.3243E-02  0.9938E-02
    -10.903  0.3231E-02  0.1032E-01
    -10.785  0.3241E-02  0.1070E-01
    -10.666  0.3260E-02  0.1109E-01
    -10.548  0.3290E-02  0.1148E-01
    -10.430  0.3319E-02  0.1187E-01
    -10.311  0.3356E-02  0.1226E-01
    -10.193  0.3402E-02  0.1266E-01
    -10.075  0.3457E-02  0.1307E-01
     -9.957  0.3513E-02  0.1348E-01
     -9.838  0.3593E-02  0.1390E-01
     -9.720  0.3693E-02  0.1433E-01
     -9.602  0.3825E-02  0.1477E-01
     -9.483  0.4662E-02  0.1526E-01
     -9.365  0.5096E-02  0.1584E-01
     -9.247  0.5321E-02  0.1646E-01
     -9.128  0.4726E-02  0.1708E-01
     -9.010  0.3474E-02  0.1756E-01
     -8.892  0.2723E-02  0.1792E-01
     -8.773  0.2436E-02  0.1823E-01
     -8.655  0.6137E-02  0.1854E-01
     -8.537  0.2708E-02  0.1892E-01
     -8.418  0.2662E-02  0.1924E-01
     -8.300  0.1175E-02  0.1944E-01
     -8.182  0.1029E-02  0.1957E-01
     -8.064  0.8833E-03  0.1968E-01
     -7.945  0.7907E-03  0.1978E-01
     -7.827  0.9828E-03  0.1988E-01
     -7.709  0.1273E-02  0.2001E-01
     -7.590  0.1563E-02  0.2018E-01
     -7.472  0.3399E-02  0.2046E-01
     -7.354  0.4261E-02  0.2097E-01
     -7.235  0.4309E-02  0.2147E-01
     -7.117  0.3818E-02  0.2196E-01
     -6.999  0.4595E-02  0.2246E-01
     -6.880  0.5371E-02  0.2305E-01
     -6.762  0.6148E-02  0.2373E-01
     -6.644  0.4903E-02  0.2437E-01
     -6.525  0.3551E-02  0.2487E-01
     -6.407  0.3449E-02  0.2529E-01
     -6.289  0.3356E-02  0.2569E-01
     -6.171  0.3271E-02  0.2608E-01
     -6.052  0.3188E-02  0.2646E-01
     -5.934  0.3097E-02  0.2684E-01
     -5.816  0.3002E-02  0.2720E-01
     -5.697  0.2907E-02  0.2755E-01
     -5.579  0.2812E-02  0.2789E-01
     -5.461  0.2717E-02  0.2821E-01
     -5.342  0.2621E-02  0.2853E-01
     -5.224  0.2592E-02  0.2883E-01
     -5.106  0.2813E-02  0.2915E-01
     -4.987  0.3045E-02  0.2950E-01
     -4.869  0.3278E-02  0.2987E-01
     -4.751  0.3510E-02  0.3027E-01
     -4.633  0.3743E-02  0.3070E-01
     -4.514  0.3975E-02  0.3116E-01
     -4.396  0.4085E-02  0.3164E-01
     -4.278  0.4130E-02  0.3213E-01
     -4.159  0.3939E-02  0.3260E-01
     -4.041  0.3823E-02  0.3306E-01
     -3.923  0.3822E-02  0.3351E-01
     -3.804  0.3820E-02  0.3396E-01
     -3.686  0.3819E-02  0.3442E-01
     -3.568  0.3870E-02  0.3487E-01
     -3.449  0.4089E-02  0.3534E-01
     -3.331  0.4518E-02  0.3585E-01
     -3.213  0.4670E-02  0.3639E-01
     -3.094  0.4905E-02  0.3695E-01
     -2.976  0.5114E-02  0.3755E-01
     -2.858  0.5406E-02  0.3817E-01
     -2.740  0.5690E-02  0.3883E-01
     -2.621  0.5903E-02  0.3951E-01
     -2.503  0.6140E-02  0.4022E-01
     -2.385  0.6460E-02  0.4097E-01
     -2.266  0.6873E-02  0.4176E-01
     -2.148  0.6958E-02  0.4259E-01
     -2.030  0.6380E-02  0.4337E-01
     -1.911  0.6128E-02  0.4411E-01
     -1.793  0.5999E-02  0.4483E-01
     -1.675  0.5995E-02  0.4554E-01
     -1.556  0.7103E-02  0.4630E-01
     -1.438  0.8282E-02  0.4722E-01
     -1.320  0.9237E-02  0.4826E-01
     -1.202  0.1051E-01  0.4941E-01
     -1.083  0.1576E-01  0.5090E-01
     -0.965  0.1015E-01  0.5234E-01
     -0.847  0.8932E-02  0.5345E-01
     -0.728  0.8177E-02  0.5446E-01
     -0.610  0.7626E-02  0.5538E-01
     -0.492  0.5835E-02  0.5618E-01
     -0.373  0.5593E-02  0.5685E-01
     -0.255  0.5284E-02  0.5749E-01
     -0.137  0.5321E-02  0.5811E-01
     -0.018  0.5695E-02  0.5876E-01
      0.100  0.6990E-02  0.5950E-01
      0.218  0.7825E-02  0.6042E-01
      0.337  0.7978E-02  0.6132E-01
      0.455  0.7288E-02  0.6222E-01
      0.573  0.6785E-02  0.6305E-01
      0.691  0.6587E-02  0.6384E-01
      0.810  0.6348E-02  0.6461E-01
      0.928  0.6112E-02  0.6534E-01
      1.046  0.5906E-02  0.6605E-01
      1.165  0.5808E-02  0.6674E-01
      1.283  0.6017E-02  0.6745E-01
      1.401  0.5884E-02  0.6815E-01
      1.520  0.5769E-02  0.6884E-01
      1.638  0.5950E-02  0.6952E-01
      1.756  0.5816E-02  0.7023E-01
      1.875  0.5528E-02  0.7090E-01
      1.993  0.6107E-02  0.7159E-01
      2.111  0.5674E-02  0.7228E-01
      2.230  0.4698E-02  0.7289E-01
      2.348  0.4046E-02  0.7340E-01
      2.466  0.3980E-02  0.7387E-01
      2.584  0.3956E-02  0.7434E-01
      2.703  0.3950E-02  0.7481E-01
      2.821  0.3964E-02  0.7528E-01
      2.939  0.3988E-02  0.7575E-01
      3.058  0.4302E-02  0.7623E-01
      3.176  0.4496E-02  0.7676E-01
      3.294  0.4093E-02  0.7727E-01
      3.413  0.3235E-02  0.7771E-01
      3.531  0.3027E-02  0.7809E-01
      3.649  0.2480E-02  0.7841E-01
      3.768  0.1980E-02  0.7868E-01
      3.886  0.1741E-02  0.7889E-01
      4.004  0.1565E-02  0.7909E-01
      4.122  0.1385E-02  0.7926E-01
      4.241  0.1208E-02  0.7942E-01
      4.359  0.1034E-02  0.7955E-01
      4.477  0.8965E-03  0.7966E-01
      4.596  0.7833E-03  0.7976E-01
      4.714  0.6224E-03  0.7985E-01
      4.832  0.4676E-03  0.7991E-01
      4.951  0.3187E-03  0.7996E-01
      5.069  0.1744E-03  0.7999E-01
      5.187  0.3440E-04  0.8000E-01
      5.306  0.4920E-04  0.8000E-01
      5.424  0.1349E-03  0.8001E-01
      5.542  0.2263E-03  0.8003E-01
      5.661  0.3238E-03  0.8007E-01
      5.779  0.4292E-03  0.8011E-01
      5.897  0.5430E-03  0.8017E-01
      6.015  0.6665E-03  0.8024E-01
      6.134  0.8060E-03  0.8033E-01
      6.252  0.9680E-03  0.8043E-01
      6.370  0.1463E-02  0.8058E-01
      6.489  0.1859E-02  0.8078E-01
      6.607  0.2156E-02  0.8101E-01
      6.725  0.2493E-02  0.8128E-01
      6.844  0.5000E-02  0.8168E-01
      6.962  0.5247E-02  0.8241E-01
      7.080  0.4489E-02  0.8301E-01
      7.199  0.4233E-02  0.8353E-01
      7.317  0.4049E-02  0.8402E-01
      7.435  0.3902E-02  0.8449E-01
      7.553  0.3817E-02  0.8494E-01
      7.672  0.3864E-02  0.8540E-01
      7.790  0.3815E-02  0.8585E-01
      7.908  0.3263E-02  0.8628E-01
      8.027  0.3069E-02  0.8666E-01
      8.145  0.2925E-02  0.8701E-01
      8.263  0.2794E-02  0.8735E-01
      8.382  0.2676E-02  0.8767E-01
      8.500  0.2583E-02  0.8798E-01
      8.618  0.2520E-02  0.8828E-01
      8.737  0.2461E-02  0.8858E-01
      8.855  0.2408E-02  0.8887E-01
      8.973  0.2357E-02  0.8915E-01
      9.092  0.2307E-02  0.8942E-01
      9.210  0.2258E-02  0.8969E-01
      9.328  0.2188E-02  0.8996E-01
      9.446  0.2134E-02  0.9021E-01
      9.565  0.2086E-02  0.9046E-01
      9.683  0.2040E-02  0.9071E-01
      9.801  0.1998E-02  0.9095E-01
      9.920  0.1958E-02  0.9118E-01
     10.038  0.1921E-02  0.9141E-01
     10.156  0.1886E-02  0.9163E-01
     10.275  0.1934E-02  0.9186E-01
     10.393  0.2103E-02  0.9210E-01
     10.511  0.2185E-02  0.9235E-01
     10.630  0.2201E-02  0.9261E-01
     10.748  0.2270E-02  0.9287E-01
     10.866  0.2382E-02  0.9315E-01
     10.985  0.2482E-02  0.9344E-01
     11.103  0.2587E-02  0.9374E-01
     11.221  0.2694E-02  0.9405E-01
     11.339  0.2800E-02  0.9437E-01
     11.458  0.2894E-02  0.9471E-01
     11.576  0.2877E-02  0.9506E-01
     11.694  0.2661E-02  0.9539E-01
     11.813  0.2477E-02  0.9569E-01
     11.931  0.2302E-02  0.9597E-01
     12.049  0.2175E-02  0.9623E-01
     12.168  0.2040E-02  0.9648E-01
     12.286  0.1885E-02  0.9672E-01
     12.404  0.1956E-02  0.9694E-01
     12.523  0.2591E-02  0.9721E-01
     12.641  0.3349E-02  0.9755E-01
     12.759  0.5126E-02  0.9804E-01
     12.877  0.6653E-02  0.9877E-01
     12.996  0.7383E-02  0.9958E-01
     13.114  0.8678E-02  0.1005E+00
     13.232  0.9546E-02  0.1016E+00
     13.351  0.9912E-02  0.1028E+00
     13.469  0.1073E-01  0.1040E+00
     13.587  0.1223E-01  0.1053E+00
     13.706  0.1288E-01  0.1069E+00
     13.824  0.1063E-01  0.1084E+00
     13.942  0.7701E-02  0.1094E+00
     14.061  0.6700E-02  0.1103E+00
     14.179  0.5830E-02  0.1110E+00
     14.297  0.5739E-02  0.1117E+00
     14.416  0.5956E-02  0.1124E+00
     14.534  0.5358E-02  0.1131E+00
     14.652  0.4622E-02  0.1137E+00
     14.770  0.3927E-02  0.1142E+00
     14.889  0.3306E-02  0.1146E+00
     15.007  0.3125E-02  0.1150E+00
     15.125  0.3332E-02  0.1154E+00
     15.244  0.4474E-02  0.1159E+00
     15.362  0.3592E-02  0.1163E+00
     15.480  0.3658E-02  0.1167E+00
     15.599  0.4003E-02  0.1172E+00
     15.717  0.4569E-02  0.1177E+00
     15.835  0.3693E-02  0.1182E+00
     15.954  0.2721E-02  0.1186E+00
     16.072  0.2131E-02  0.1189E+00
     16.190  0.1800E-02  0.1191E+00
     16.309  0.1537E-02  0.1193E+00
     16.427  0.1387E-02  0.1195E+00
     16.545  0.1256E-02  0.1196E+00
     16.663  0.1144E-02  0.1198E+00
     16.782  0.7052E-03  0.1199E+00
     16.900  0.4782E-03  0.1200E+00
     17.018  0.1565E-04  0.1200E+00
     17.137  0.0000E+00  0.1200E+00
     17.255  0.0000E+00  0.1200E+00
     17.373  0.0000E+00  0.1200E+00
     17.492  0.0000E+00  0.1200E+00
     17.610  0.0000E+00  0.1200E+00
     17.728  0.0000E+00  0.1200E+00
     17.847  0.0000E+00  0.1200E+00
     17.965  0.0000E+00  0.1200E+00
     18.083  0.0000E+00  0.1200E+00
     18.201  0.0000E+00  0.1200E+00
     18.320  0.0000E+00  0.1200E+00
     18.438  0.0000E+00  0.1200E+00
     18.556  0.0000E+00  0.1200E+00
     18.675  0.0000E+00  0.1200E+00
     18.793  0.0000E+00  0.1200E+00
     18.911  0.0000E+00  0.1200E+00
     19.030  0.0000E+00  0.1200E+00
