   4   4   0   0
  0.8294063E+01  0.2466437E-09  0.2466437E-09  0.6300163E-09  0.5000000E-15
  1.000000000000000E-004
  CAR 
 graphite                                
     19.02838404    -16.46444651  301      5.22609641      1.00000000
    -16.464  0.0000E+00  0.0000E+00
    -16.346  0.0000E+00  0.0000E+00
    -16.228  0.0000E+00  0.0000E+00
    -16.110  0.0000E+00  0.0000E+00
    -15.991  0.0000E+00  0.0000E+00
    -15.873  0.0000E+00  0.0000E+00
    -15.755  0.0000E+00  0.0000E+00
    -15.636  0.0000E+00  0.0000E+00
    -15.518  0.0000E+00  0.0000E+00
    -15.400  0.0000E+00  0.0000E+00
    -15.281  0.0000E+00  0.0000E+00
    -15.163  0.0000E+00  0.0000E+00
    -15.045  0.0000E+00  0.0000E+00
    -14.926  0.0000E+00  0.0000E+00
    -14.808  0.0000E+00  0.0000E+00
    -14.690  0.0000E+00  0.0000E+00
    -14.571  0.0000E+00  0.0000E+00
    -14.453  0.1437E-04  0.5394E-07
    -14.335  0.9019E-03  0.4541E-04
    -14.217  0.1396E-02  0.1916E-03
    -14.098  0.1892E-02  0.3848E-03
    -13.980  0.2639E-02  0.6472E-03
    -13.862  0.3258E-02  0.1008E-02
    -13.743  0.3009E-02  0.1369E-02
    -13.625  0.3087E-02  0.1730E-02
    -13.507  0.3116E-02  0.2097E-02
    -13.388  0.3076E-02  0.2463E-02
    -13.270  0.3112E-02  0.2830E-02
    -13.152  0.3127E-02  0.3199E-02
    -13.033  0.3131E-02  0.3569E-02
    -12.915  0.3113E-02  0.3939E-02
    -12.797  0.3076E-02  0.4304E-02
    -12.679  0.3098E-02  0.4669E-02
    -12.560  0.3136E-02  0.5037E-02
    -12.442  0.3182E-02  0.5411E-02
    -12.324  0.3178E-02  0.5788E-02
    -12.205  0.3173E-02  0.6164E-02
    -12.087  0.3163E-02  0.6539E-02
    -11.969  0.3131E-02  0.6911E-02
    -11.850  0.3135E-02  0.7281E-02
    -11.732  0.3156E-02  0.7653E-02
    -11.614  0.3182E-02  0.8028E-02
    -11.495  0.3212E-02  0.8406E-02
    -11.377  0.3249E-02  0.8788E-02
    -11.259  0.3251E-02  0.9173E-02
    -11.141  0.3252E-02  0.9557E-02
    -11.022  0.3244E-02  0.9942E-02
    -10.904  0.3232E-02  0.1032E-01
    -10.786  0.3242E-02  0.1071E-01
    -10.667  0.3261E-02  0.1109E-01
    -10.549  0.3290E-02  0.1148E-01
    -10.431  0.3320E-02  0.1187E-01
    -10.312  0.3357E-02  0.1227E-01
    -10.194  0.3403E-02  0.1267E-01
    -10.076  0.3458E-02  0.1307E-01
     -9.957  0.3514E-02  0.1348E-01
     -9.839  0.3595E-02  0.1390E-01
     -9.721  0.3694E-02  0.1433E-01
     -9.602  0.3827E-02  0.1478E-01
     -9.484  0.4670E-02  0.1527E-01
     -9.366  0.5099E-02  0.1585E-01
     -9.248  0.5326E-02  0.1646E-01
     -9.129  0.4712E-02  0.1709E-01
     -9.011  0.3463E-02  0.1757E-01
     -8.893  0.2720E-02  0.1793E-01
     -8.774  0.2434E-02  0.1823E-01
     -8.656  0.6058E-02  0.1855E-01
     -8.538  0.2713E-02  0.1893E-01
     -8.419  0.2650E-02  0.1925E-01
     -8.301  0.1173E-02  0.1944E-01
     -8.183  0.1028E-02  0.1957E-01
     -8.064  0.8817E-03  0.1968E-01
     -7.946  0.7931E-03  0.1978E-01
     -7.828  0.9883E-03  0.1988E-01
     -7.710  0.1279E-02  0.2002E-01
     -7.591  0.1568E-02  0.2018E-01
     -7.473  0.3440E-02  0.2046E-01
     -7.355  0.4260E-02  0.2097E-01
     -7.236  0.4310E-02  0.2148E-01
     -7.118  0.3829E-02  0.2197E-01
     -7.000  0.4607E-02  0.2246E-01
     -6.881  0.5384E-02  0.2306E-01
     -6.763  0.6161E-02  0.2374E-01
     -6.645  0.4891E-02  0.2438E-01
     -6.526  0.3550E-02  0.2488E-01
     -6.408  0.3448E-02  0.2529E-01
     -6.290  0.3355E-02  0.2570E-01
     -6.172  0.3270E-02  0.2609E-01
     -6.053  0.3187E-02  0.2647E-01
     -5.935  0.3096E-02  0.2684E-01
     -5.817  0.3001E-02  0.2720E-01
     -5.698  0.2906E-02  0.2755E-01
     -5.580  0.2811E-02  0.2789E-01
     -5.462  0.2716E-02  0.2822E-01
     -5.343  0.2620E-02  0.2853E-01
     -5.225  0.2596E-02  0.2884E-01
     -5.107  0.2817E-02  0.2916E-01
     -4.988  0.3050E-02  0.2951E-01
     -4.870  0.3283E-02  0.2988E-01
     -4.752  0.3515E-02  0.3028E-01
     -4.634  0.3748E-02  0.3071E-01
     -4.515  0.3980E-02  0.3117E-01
     -4.397  0.4086E-02  0.3165E-01
     -4.279  0.4124E-02  0.3214E-01
     -4.160  0.3937E-02  0.3261E-01
     -4.042  0.3824E-02  0.3307E-01
     -3.924  0.3822E-02  0.3352E-01
     -3.805  0.3821E-02  0.3397E-01
     -3.687  0.3820E-02  0.3442E-01
     -3.569  0.3872E-02  0.3488E-01
     -3.450  0.4095E-02  0.3535E-01
     -3.332  0.4521E-02  0.3586E-01
     -3.214  0.4674E-02  0.3640E-01
     -3.095  0.4908E-02  0.3697E-01
     -2.977  0.5119E-02  0.3756E-01
     -2.859  0.5412E-02  0.3818E-01
     -2.741  0.5695E-02  0.3884E-01
     -2.622  0.5907E-02  0.3953E-01
     -2.504  0.6145E-02  0.4024E-01
     -2.386  0.6467E-02  0.4098E-01
     -2.267  0.6882E-02  0.4177E-01
     -2.149  0.6951E-02  0.4261E-01
     -2.031  0.6376E-02  0.4339E-01
     -1.912  0.6127E-02  0.4413E-01
     -1.794  0.6000E-02  0.4484E-01
     -1.676  0.5997E-02  0.4555E-01
     -1.557  0.7145E-02  0.4632E-01
     -1.439  0.8307E-02  0.4725E-01
     -1.321  0.9263E-02  0.4829E-01
     -1.203  0.1056E-01  0.4944E-01
     -1.084  0.1549E-01  0.5095E-01
     -0.966  0.1009E-01  0.5237E-01
     -0.848  0.8919E-02  0.5347E-01
     -0.729  0.8159E-02  0.5449E-01
     -0.611  0.7588E-02  0.5540E-01
     -0.493  0.5799E-02  0.5619E-01
     -0.374  0.5586E-02  0.5686E-01
     -0.256  0.5279E-02  0.5750E-01
     -0.138  0.5326E-02  0.5813E-01
     -0.019  0.5717E-02  0.5877E-01
      0.099  0.7028E-02  0.5952E-01
      0.217  0.7731E-02  0.6044E-01
      0.335  0.7947E-02  0.6134E-01
      0.454  0.7271E-02  0.6224E-01
      0.572  0.6772E-02  0.6307E-01
      0.690  0.6582E-02  0.6386E-01
      0.809  0.6342E-02  0.6462E-01
      0.927  0.6107E-02  0.6536E-01
      1.045  0.5902E-02  0.6607E-01
      1.164  0.5813E-02  0.6676E-01
      1.282  0.6013E-02  0.6746E-01
      1.400  0.5880E-02  0.6816E-01
      1.519  0.5765E-02  0.6885E-01
      1.637  0.5967E-02  0.6954E-01
      1.755  0.5806E-02  0.7024E-01
      1.874  0.5518E-02  0.7091E-01
      1.992  0.6076E-02  0.7161E-01
      2.110  0.5644E-02  0.7229E-01
      2.228  0.4664E-02  0.7290E-01
      2.347  0.4045E-02  0.7340E-01
      2.465  0.3981E-02  0.7388E-01
      2.583  0.3956E-02  0.7435E-01
      2.702  0.3951E-02  0.7482E-01
      2.820  0.3965E-02  0.7528E-01
      2.938  0.3990E-02  0.7575E-01
      3.057  0.4317E-02  0.7624E-01
      3.175  0.4492E-02  0.7677E-01
      3.293  0.4085E-02  0.7728E-01
      3.412  0.3235E-02  0.7772E-01
      3.530  0.3020E-02  0.7809E-01
      3.648  0.2473E-02  0.7842E-01
      3.766  0.1974E-02  0.7868E-01
      3.885  0.1739E-02  0.7890E-01
      4.003  0.1563E-02  0.7909E-01
      4.121  0.1383E-02  0.7927E-01
      4.240  0.1206E-02  0.7942E-01
      4.358  0.1032E-02  0.7955E-01
      4.476  0.8947E-03  0.7966E-01
      4.595  0.7810E-03  0.7977E-01
      4.713  0.6202E-03  0.7985E-01
      4.831  0.4655E-03  0.7991E-01
      4.950  0.3167E-03  0.7996E-01
      5.068  0.1725E-03  0.7999E-01
      5.186  0.3259E-04  0.8000E-01
      5.304  0.5028E-04  0.8000E-01
      5.423  0.1360E-03  0.8001E-01
      5.541  0.2275E-03  0.8003E-01
      5.659  0.3251E-03  0.8007E-01
      5.778  0.4306E-03  0.8011E-01
      5.896  0.5445E-03  0.8017E-01
      6.014  0.6681E-03  0.8024E-01
      6.133  0.8079E-03  0.8033E-01
      6.251  0.9715E-03  0.8043E-01
      6.369  0.1468E-02  0.8058E-01
      6.488  0.1863E-02  0.8078E-01
      6.606  0.2157E-02  0.8102E-01
      6.724  0.2500E-02  0.8128E-01
      6.843  0.5045E-02  0.8168E-01
      6.961  0.5242E-02  0.8242E-01
      7.079  0.4478E-02  0.8302E-01
      7.197  0.4232E-02  0.8353E-01
      7.316  0.4048E-02  0.8402E-01
      7.434  0.3902E-02  0.8449E-01
      7.552  0.3817E-02  0.8495E-01
      7.671  0.3865E-02  0.8540E-01
      7.789  0.3814E-02  0.8586E-01
      7.907  0.3253E-02  0.8629E-01
      8.026  0.3068E-02  0.8666E-01
      8.144  0.2923E-02  0.8701E-01
      8.262  0.2793E-02  0.8735E-01
      8.381  0.2675E-02  0.8768E-01
      8.499  0.2583E-02  0.8799E-01
      8.617  0.2519E-02  0.8829E-01
      8.735  0.2460E-02  0.8858E-01
      8.854  0.2407E-02  0.8887E-01
      8.972  0.2357E-02  0.8915E-01
      9.090  0.2307E-02  0.8943E-01
      9.209  0.2257E-02  0.8970E-01
      9.327  0.2187E-02  0.8996E-01
      9.445  0.2134E-02  0.9022E-01
      9.564  0.2085E-02  0.9047E-01
      9.682  0.2040E-02  0.9071E-01
      9.800  0.1997E-02  0.9095E-01
      9.919  0.1957E-02  0.9118E-01
     10.037  0.1920E-02  0.9141E-01
     10.155  0.1886E-02  0.9164E-01
     10.273  0.1933E-02  0.9186E-01
     10.392  0.2102E-02  0.9210E-01
     10.510  0.2184E-02  0.9235E-01
     10.628  0.2200E-02  0.9261E-01
     10.747  0.2270E-02  0.9288E-01
     10.865  0.2382E-02  0.9315E-01
     10.983  0.2482E-02  0.9344E-01
     11.102  0.2586E-02  0.9374E-01
     11.220  0.2693E-02  0.9405E-01
     11.338  0.2798E-02  0.9438E-01
     11.457  0.2891E-02  0.9471E-01
     11.575  0.2877E-02  0.9506E-01
     11.693  0.2662E-02  0.9539E-01
     11.812  0.2477E-02  0.9569E-01
     11.930  0.2302E-02  0.9597E-01
     12.048  0.2175E-02  0.9624E-01
     12.166  0.2040E-02  0.9649E-01
     12.285  0.1884E-02  0.9672E-01
     12.403  0.1959E-02  0.9694E-01
     12.521  0.2594E-02  0.9721E-01
     12.640  0.3353E-02  0.9756E-01
     12.758  0.5137E-02  0.9805E-01
     12.876  0.6660E-02  0.9877E-01
     12.995  0.7396E-02  0.9958E-01
     13.113  0.8689E-02  0.1005E+00
     13.231  0.9549E-02  0.1016E+00
     13.350  0.9912E-02  0.1028E+00
     13.468  0.1068E-01  0.1040E+00
     13.586  0.1233E-01  0.1053E+00
     13.704  0.1292E-01  0.1070E+00
     13.823  0.1059E-01  0.1084E+00
     13.941  0.7670E-02  0.1094E+00
     14.059  0.6665E-02  0.1103E+00
     14.178  0.5773E-02  0.1110E+00
     14.296  0.5568E-02  0.1117E+00
     14.414  0.5863E-02  0.1124E+00
     14.533  0.5318E-02  0.1130E+00
     14.651  0.4655E-02  0.1136E+00
     14.769  0.4032E-02  0.1141E+00
     14.888  0.3466E-02  0.1146E+00
     15.006  0.3189E-02  0.1150E+00
     15.124  0.3335E-02  0.1154E+00
     15.242  0.4453E-02  0.1159E+00
     15.361  0.3582E-02  0.1163E+00
     15.479  0.3650E-02  0.1168E+00
     15.597  0.3992E-02  0.1172E+00
     15.716  0.4558E-02  0.1177E+00
     15.834  0.3696E-02  0.1182E+00
     15.952  0.2725E-02  0.1186E+00
     16.071  0.2131E-02  0.1189E+00
     16.189  0.1801E-02  0.1191E+00
     16.307  0.1538E-02  0.1193E+00
     16.426  0.1386E-02  0.1195E+00
     16.544  0.1257E-02  0.1196E+00
     16.662  0.1145E-02  0.1198E+00
     16.781  0.7060E-03  0.1199E+00
     16.899  0.4797E-03  0.1200E+00
     17.017  0.1596E-04  0.1200E+00
     17.135  0.0000E+00  0.1200E+00
     17.254  0.0000E+00  0.1200E+00
     17.372  0.0000E+00  0.1200E+00
     17.490  0.0000E+00  0.1200E+00
     17.609  0.0000E+00  0.1200E+00
     17.727  0.0000E+00  0.1200E+00
     17.845  0.0000E+00  0.1200E+00
     17.964  0.0000E+00  0.1200E+00
     18.082  0.0000E+00  0.1200E+00
     18.200  0.0000E+00  0.1200E+00
     18.319  0.0000E+00  0.1200E+00
     18.437  0.0000E+00  0.1200E+00
     18.555  0.0000E+00  0.1200E+00
     18.673  0.0000E+00  0.1200E+00
     18.792  0.0000E+00  0.1200E+00
     18.910  0.0000E+00  0.1200E+00
     19.028  0.0000E+00  0.1200E+00
