    4    4  200    1
  0.8294063E+01  0.2466437E-09  0.2466437E-09  0.6300163E-09  0.5000000E-15
  1.000000000000000E-004
  CAR 
 graphite                                
     16    215     12
 
  0.0000000E+00  0.0000000E+00  0.0000000E+00  0.8680556E-03
    1      -14.463613
    2      -13.983281
    3       -3.545895
    4       -0.872061
    5        2.249359
    6        2.265849
    7        2.284822
    8        2.300199
    9       10.166518
   10       13.574013
   11       13.593130
   12       13.663140
 
  0.8333333E-01  0.6938894E-17  0.0000000E+00  0.3472222E-02
    1      -14.297083
    2      -13.821324
    3       -3.344041
    4       -0.686912
    5        1.595932
    6        1.657312
    7        1.905908
    8        1.958411
    9       10.359492
   10       13.618584
   11       13.753366
   12       14.275381
 
  0.1666667E+00  0.1387779E-16  0.0000000E+00  0.3472222E-02
    1      -13.799390
    2      -13.336956
    3       -2.741827
    4       -0.138514
    5       -0.071170
    6        0.041823
    7        1.101504
    8        1.175653
    9       10.940384
   10       13.487847
   11       13.773041
   12       14.320342
 
  0.2500000E+00  0.2775558E-16  0.0000000E+00  0.3472222E-02
    1      -12.976571
    2      -12.535913
    3       -2.202033
    4       -2.031889
    5       -1.754359
    6        0.214230
    7        0.301753
    8        0.746165
    9       11.895234
   10       12.058499
   11       12.974665
   12       13.129825
 
  0.3333333E+00  0.2775558E-16  0.0000000E+00  0.3472222E-02
    1      -11.840801
    2      -11.430415
    3       -4.436571
    4       -4.210752
    5       -0.523110
    6       -0.428233
    7       -0.418306
    8        1.891221
    9        9.599419
   10       10.854627
   11       12.685427
   12       13.072569
 
  0.4166667E+00  0.5551115E-16  0.0000000E+00  0.3472222E-02
    1      -10.422374
    2      -10.054155
    3       -6.562043
    4       -6.291398
    5       -0.998133
    6       -0.899167
    7        1.154920
    8        3.009242
    9        7.503509
   10        8.833569
   11       12.440444
   12       13.028535
 
  0.5000000E+00  0.5551115E-16  0.0000000E+00  0.1736111E-02
    1       -9.085595
    2       -8.902092
    3       -7.981649
    4       -7.846143
    5       -1.160779
    6       -1.060723
    7        2.295438
    8        3.237646
    9        6.824620
   10        7.641606
   11       12.345563
   12       12.961913
 
  0.8333333E-01  0.8333333E-01  0.0000000E+00  0.1736111E-02
    1      -13.964754
    2      -13.497847
    3       -2.941531
    4       -0.319707
    5        0.560713
    6        0.618064
    7        1.232993
    8        1.276612
    9       10.748960
   10       13.893213
   11       14.065028
   12       14.871958
 
  0.1666667E+00  0.8333333E-01  0.0000000E+00  0.3472222E-02
    1      -13.304251
    2      -12.854938
    3       -2.145733
    4       -1.184130
    5       -1.065508
    6        0.216827
    7        0.296170
    8        0.399091
    9       11.528311
   10       13.012779
   11       13.675198
   12       13.946909
 
  0.2500000E+00  0.8333333E-01  0.0000000E+00  0.3472222E-02
    1      -12.324474
    2      -11.901195
    3       -3.295046
    4       -3.107611
    5       -0.979567
    6       -0.683584
    7       -0.578215
    8        1.426079
    9       10.716486
   10       11.699931
   11       12.670207
   12       13.628004
 
  0.3333333E+00  0.8333333E-01  0.0000000E+00  0.3472222E-02
    1      -11.044465
    2      -10.656431
    3       -5.449293
    4       -5.204930
    5       -1.325314
    6       -1.208359
    7        0.496746
    8        2.625376
    9        8.415451
   10        9.667580
   11       13.257297
   12       13.783603
 
  0.4166667E+00  0.8333333E-01  0.0000000E+00  0.3472222E-02
    1       -9.533357
    2       -9.209646
    3       -7.401129
    4       -7.135744
    5       -1.657116
    6       -1.535382
    7        2.048920
    8        3.407677
    9        6.924707
   10        7.913979
   11       13.078794
   12       13.708089
 
  0.5000000E+00  0.8333333E-01  0.0000000E+00  0.3472222E-02
    1       -9.535768
    2       -9.211899
    3       -7.398445
    4       -7.132773
    5       -1.657986
    6       -1.536214
    7        2.047348
    8        3.407642
    9        6.923673
   10        7.916609
   11       13.079787
   12       13.709095
 
 -0.4166667E+00  0.8333333E-01  0.0000000E+00  0.3472222E-02
    1      -11.046644
    2      -10.658604
    3       -5.445832
    4       -5.201309
    5       -1.327767
    6       -1.210696
    7        0.494833
    8        2.623927
    9        8.415096
   10        9.670896
   11       13.260176
   12       13.785356
 
 -0.3333333E+00  0.8333333E-01  0.0000000E+00  0.3472222E-02
    1      -12.326177
    2      -11.902889
    3       -3.291715
    4       -3.104116
    5       -0.981204
    6       -0.686822
    7       -0.581351
    8        1.424556
    9       10.714763
   10       11.703140
   11       12.667977
   12       13.632464
 
 -0.2500000E+00  0.8333333E-01  0.0000000E+00  0.3472222E-02
    1      -13.305463
    2      -12.856144
    3       -2.146960
    4       -1.183148
    5       -1.064433
    6        0.215658
    7        0.294744
    8        0.397893
    9       11.526573
   10       13.008545
   11       13.678044
   12       13.952685
 
 -0.1666667E+00  0.8333333E-01  0.0000000E+00  0.3472222E-02
    1      -13.965480
    2      -13.498567
    3       -2.942287
    4       -0.320456
    5        0.552618
    6        0.611328
    7        1.240325
    8        1.283894
    9       10.747858
   10       13.900001
   11       14.073766
   12       14.858049
 
 -0.8333333E-01  0.8333333E-01  0.0000000E+00  0.1736111E-02
    1      -14.297324
    2      -13.821564
    3       -3.344296
    4       -0.687166
    5        1.583120
    6        1.645142
    7        1.918757
    8        1.970805
    9       10.359105
   10       13.622706
   11       13.757923
   12       14.297633
 
  0.1666667E+00  0.1666667E+00  0.0000000E+00  0.1736111E-02
    1      -12.486774
    2      -12.059205
    3       -2.508699
    4       -2.415292
    5       -1.168680
    6       -1.137926
    7       -1.069538
    8        1.267102
    9       11.267369
   10       11.965770
   11       12.506886
   12       15.121933
 
  0.2500000E+00  0.1666667E+00  0.0000000E+00  0.3472222E-02
    1      -11.361432
    2      -10.964368
    3       -4.279196
    4       -4.103348
    5       -2.225170
    6       -2.100928
    7        0.153788
    8        2.398805
    9        9.235512
   10       10.120658
   11       13.838766
   12       15.201376
 
  0.3333333E+00  0.1666667E+00  0.0000000E+00  0.3472222E-02
    1       -9.962507
    2       -9.607747
    3       -6.225548
    4       -5.980415
    5       -2.820303
    6       -2.664027
    7        1.720435
    8        3.549955
    9        7.326840
   10        8.336854
   11       14.910794
   12       15.434191
 
  0.4166667E+00  0.1666667E+00  0.0000000E+00  0.3472222E-02
    1       -8.659086
    2       -8.482047
    3       -7.576936
    4       -7.457662
    5       -3.010585
    6       -2.847047
    7        2.891137
    8        3.811532
    9        6.789204
   10        7.094635
   11       14.822770
   12       15.589921
 
  0.5000000E+00  0.1666667E+00  0.0000000E+00  0.3472222E-02
    1       -9.967267
    2       -9.612478
    3       -6.219230
    4       -5.973672
    5       -2.822863
    6       -2.666416
    7        1.716726
    8        3.547850
    9        7.323979
   10        8.344475
   11       14.913580
   12       15.428168
 
 -0.4166667E+00  0.1666667E+00  0.0000000E+00  0.3472222E-02
    1      -11.365320
    2      -10.968252
    3       -4.273480
    4       -4.097065
    5       -2.228558
    6       -2.104128
    7        0.150284
    8        2.395536
    9        9.230986
   10       10.128491
   11       13.833401
   12       15.207431
 
 -0.3333333E+00  0.1666667E+00  0.0000000E+00  0.3472222E-02
    1      -12.489660
    2      -12.062098
    3       -2.510445
    4       -2.414876
    5       -1.171516
    6       -1.136186
    7       -1.066532
    8        1.264263
    9       11.258951
   10       11.972347
   11       12.502885
   12       15.141591
 
 -0.2500000E+00  0.1666667E+00  0.0000000E+00  0.3472222E-02
    1      -13.306187
    2      -12.856861
    3       -2.147700
    4       -1.194321
    5       -1.074363
    6        0.227469
    7        0.307206
    8        0.397088
    9       11.525629
   10       13.003366
   11       13.677682
   12       13.972540
 
 -0.1666667E+00  0.1666667E+00  0.0000000E+00  0.1736111E-02
    1      -13.800354
    2      -13.337915
    3       -2.742832
    4       -0.139540
    5       -0.084629
    6        0.028931
    7        1.116054
    8        1.189942
    9       10.939006
   10       13.506466
   11       13.790525
   12       14.313319
 
  0.2500000E+00  0.2500000E+00  0.0000000E+00  0.1736111E-02
    1      -10.112989
    2       -9.751701
    3       -5.299184
    4       -5.171845
    5       -3.689923
    6       -3.596283
    7        1.592837
    8        3.574440
    9        7.627100
   10        8.485466
   11       15.298960
   12       17.011162
 
  0.3333333E+00  0.2500000E+00  0.0000000E+00  0.3472222E-02
    1       -8.658755
    2       -8.361366
    3       -6.754122
    4       -6.552810
    5       -4.435990
    6       -4.275676
    7        3.162732
    8        4.529503
    9        6.259740
   10        7.018208
   11       16.774730
   12       16.983612
 
  0.4166667E+00  0.2500000E+00  0.0000000E+00  0.3472222E-02
    1       -8.666086
    2       -8.368418
    3       -6.746907
    4       -6.543859
    5       -4.437059
    6       -4.276481
    7        3.158255
    8        4.529215
    9        6.250842
   10        7.030264
   11       16.770153
   12       16.975318
 
  0.5000000E+00  0.2500000E+00  0.0000000E+00  0.3472222E-02
    1      -10.119490
    2       -9.758317
    3       -5.295746
    4       -5.165416
    5       -3.689296
    6       -3.593838
    7        1.587654
    8        3.569068
    9        7.619864
   10        8.497520
   11       15.289653
   12       17.029653
 
 -0.4166667E+00  0.2500000E+00  0.0000000E+00  0.3472222E-02
    1      -11.366544
    2      -10.969476
    3       -4.283623
    4       -4.106050
    5       -2.216905
    6       -2.091683
    7        0.149249
    8        2.393716
    9        9.226503
   10       10.128005
   11       13.832085
   12       15.238585
 
 -0.3333333E+00  0.2500000E+00  0.0000000E+00  0.3472222E-02
    1      -12.328109
    2      -11.904824
    3       -3.304436
    4       -3.116295
    5       -0.983075
    6       -0.670236
    7       -0.564784
    8        1.422149
    9       10.706678
   10       11.700991
   11       12.666121
   12       13.661115
 
 -0.2500000E+00  0.2500000E+00  0.0000000E+00  0.1736111E-02
    1      -12.978738
    2      -12.538089
    3       -2.214838
    4       -2.044155
    5       -1.756538
    6        0.230519
    7        0.317823
    8        0.743796
    9       11.892708
   10       12.048904
   11       12.972902
   12       13.157345
 
  0.3333333E+00  0.3333333E+00  0.0000000E+00  0.1736111E-02
    1       -7.459364
    2       -7.300762
    3       -7.298012
    4       -7.140529
    5       -5.243290
    6       -5.241821
    7        4.351750
    8        5.192171
    9        5.204579
   10        6.279970
   11       16.684380
   12       16.713942
 
  0.4166667E+00  0.3333333E+00  0.0000000E+00  0.3472222E-02
    1       -8.668625
    2       -8.371969
    3       -6.752031
    4       -6.549202
    5       -4.428507
    6       -4.267027
    7        3.158530
    8        4.517896
    9        6.255858
   10        7.030818
   11       16.782369
   12       16.997829
 
  0.5000000E+00  0.3333333E+00  0.0000000E+00  0.3472222E-02
    1       -9.970438
    2       -9.615932
    3       -6.229080
    4       -5.983096
    5       -2.807968
    6       -2.651480
    7        1.714966
    8        3.540469
    9        7.321830
   10        8.342462
   11       14.946296
   12       15.437694
 
 -0.4166667E+00  0.3333333E+00  0.0000000E+00  0.3472222E-02
    1      -11.050345
    2      -10.662392
    3       -5.456759
    4       -5.211966
    5       -1.309854
    6       -1.192937
    7        0.491800
    8        2.618283
    9        8.408625
   10        9.666572
   11       13.291133
   12       13.812418
 
 -0.3333333E+00  0.3333333E+00  0.0000000E+00  0.1736111E-02
    1      -11.844687
    2      -11.434321
    3       -4.447439
    4       -4.221266
    5       -0.505525
    6       -0.421897
    7       -0.410821
    8        1.886511
    9        9.590703
   10       10.850749
   11       12.712930
   12       13.090731
 
  0.4166667E+00  0.4166667E+00  0.0000000E+00  0.1736111E-02
    1       -8.668330
    2       -8.495257
    3       -7.576680
    4       -7.459994
    5       -2.996142
    6       -2.832596
    7        2.892400
    8        3.791029
    9        6.797674
   10        7.090092
   11       14.859679
   12       15.627725
 
  0.5000000E+00  0.4166667E+00  0.0000000E+00  0.3472222E-02
    1       -9.542458
    2       -9.219754
    3       -7.404871
    4       -7.139882
    5       -1.640122
    6       -1.518495
    7        2.045541
    8        3.392079
    9        6.926858
   10        7.909047
   11       13.114239
   12       13.743655
 
 -0.4166667E+00  0.4166667E+00  0.0000000E+00  0.1736111E-02
    1      -10.428659
    2      -10.060715
    3       -6.570007
    4       -6.299269
    5       -0.979720
    6       -0.880911
    7        1.150656
    8        2.999135
    9        7.500351
   10        8.827514
   11       12.473774
   12       13.061697
 
  0.5000000E+00  0.5000000E+00  0.0000000E+00  0.8680556E-03
    1       -9.095566
    2       -8.916170
    3       -7.982443
    4       -7.849751
    5       -1.142083
    6       -1.042185
    7        2.296239
    8        3.216014
    9        6.832982
   10        7.629671
   11       12.379701
   12       12.996056
 
  0.0000000E+00  0.0000000E+00  0.1250000E+00  0.1736111E-02
    1      -14.446982
    2      -14.003556
    3       -3.461570
    4       -1.002238
    5        2.250706
    6        2.267154
    7        2.283487
    8        2.298907
    9       10.405321
   10       13.575763
   11       13.581472
   12       13.658636
 
  0.8333333E-01  0.6938894E-17  0.1250000E+00  0.6944444E-02
    1      -14.280594
    2      -13.841273
    3       -3.259936
    4       -0.816129
    5        1.598339
    6        1.654916
    7        1.907896
    8        1.956462
    9       10.595910
   10       13.621711
   11       13.748597
   12       14.286315
 
  0.1666667E+00  0.1387779E-16  0.1250000E+00  0.6944444E-02
    1      -13.783376
    2      -13.356315
    3       -2.659377
    4       -0.264925
    5       -0.066620
    6        0.037477
    7        1.104234
    8        1.172692
    9       11.168628
   10       13.491006
   11       13.759435
   12       14.349177
 
  0.2500000E+00  0.2775558E-16  0.1250000E+00  0.6944444E-02
    1      -12.961162
    2      -12.554278
    3       -2.195830
    4       -2.038708
    5       -1.674316
    6        0.217527
    7        0.298386
    8        0.626538
    9       11.985822
   10       12.207546
   11       12.921581
   12       13.149918
 
  0.3333333E+00  0.2775558E-16  0.1250000E+00  0.6944444E-02
    1      -11.826369
    2      -11.447371
    3       -4.428389
    4       -4.219919
    5       -0.519551
    6       -0.431890
    7       -0.343135
    8        1.784052
    9        9.631452
   10       10.793746
   11       12.716759
   12       13.111585
 
  0.4166667E+00  0.5551115E-16  0.1250000E+00  0.6944444E-02
    1      -10.409277
    2      -10.069164
    3       -6.552340
    4       -6.302261
    5       -0.994273
    6       -0.902915
    7        1.220845
    8        2.935703
    9        7.524313
   10        8.759398
   11       12.462468
   12       13.006233
 
  0.5000000E+00  0.5551115E-16  0.1250000E+00  0.3472222E-02
    1       -9.076917
    2       -8.906546
    3       -7.980654
    4       -7.854551
    5       -1.157048
    6       -1.064564
    7        2.345604
    8        3.226892
    9        6.799313
   10        7.565788
   11       12.367650
   12       12.937661
 
  0.8333333E-01  0.8333333E-01  0.1250000E+00  0.3472222E-02
    1      -13.948571
    2      -13.517445
    3       -2.858550
    4       -0.446903
    5        0.563147
    6        0.616110
    7        1.234317
    8        1.274642
    9       10.980598
   10       13.892286
   11       14.057664
   12       14.896858
 
  0.1666667E+00  0.8333333E-01  0.1250000E+00  0.6944444E-02
    1      -13.288602
    2      -12.873671
    3       -2.064867
    4       -1.179656
    5       -1.069847
    6        0.219656
    7        0.276774
    8        0.292919
    9       11.747185
   10       13.032550
   11       13.634303
   12       13.965830
 
  0.2500000E+00  0.8333333E-01  0.1250000E+00  0.6944444E-02
    1      -12.309636
    2      -11.918760
    3       -3.288200
    4       -3.114990
    5       -0.902229
    6       -0.679746
    7       -0.582425
    8        1.312369
    9       10.743381
   10       11.654936
   11       12.874246
   12       13.647813
 
  0.3333333E+00  0.8333333E-01  0.1250000E+00  0.6944444E-02
    1      -11.030807
    2      -10.672407
    3       -5.440529
    4       -5.214723
    5       -1.321019
    6       -1.212969
    7        0.567743
    8        2.530620
    9        8.446944
   10        9.607347
   11       13.281664
   12       13.777311
 
  0.4166667E+00  0.8333333E-01  0.1250000E+00  0.6944444E-02
    1       -9.521559
    2       -9.222556
    3       -7.392039
    4       -7.146786
    5       -1.652614
    6       -1.540132
    7        2.106295
    8        3.370961
    9        6.918578
   10        7.845369
   11       13.100853
   12       13.682659
 
  0.5000000E+00  0.8333333E-01  0.1250000E+00  0.6944444E-02
    1       -9.523970
    2       -9.224826
    3       -7.389341
    4       -7.143824
    5       -1.653528
    6       -1.540965
    7        2.104743
    8        3.370813
    9        6.917746
   10        7.847880
   11       13.101835
   12       13.683640
 
 -0.4166667E+00  0.8333333E-01  0.1250000E+00  0.6944444E-02
    1      -11.032985
    2      -10.674579
    3       -5.437039
    4       -5.211107
    5       -1.323468
    6       -1.215309
    7        0.565847
    8        2.529135
    9        8.446765
   10        9.610515
   11       13.284527
   12       13.779403
 
 -0.3333333E+00  0.8333333E-01  0.1250000E+00  0.6944444E-02
    1      -12.311339
    2      -11.920454
    3       -3.284862
    4       -3.111501
    5       -0.903869
    6       -0.682973
    7       -0.585567
    8        1.310836
    9       10.741908
   10       11.657933
   11       12.871949
   12       13.652210
 
 -0.2500000E+00  0.8333333E-01  0.1250000E+00  0.6944444E-02
    1      -13.289814
    2      -12.874877
    3       -2.066093
    4       -1.178670
    5       -1.068774
    6        0.218494
    7        0.275545
    8        0.291508
    9       11.745493
   10       13.028611
   11       13.637016
   12       13.971545
 
 -0.1666667E+00  0.8333333E-01  0.1250000E+00  0.6944444E-02
    1      -13.949293
    2      -13.518163
    3       -2.859303
    4       -0.447643
    5        0.555093
    6        0.609315
    7        1.241671
    8        1.281967
    9       10.979492
   10       13.899087
   11       14.066348
   12       14.879218
 
 -0.8333333E-01  0.8333333E-01  0.1250000E+00  0.3472222E-02
    1      -14.280836
    2      -13.841512
    3       -3.260190
    4       -0.816383
    5        1.585551
    6        1.642720
    7        1.920727
    8        1.968875
    9       10.595520
   10       13.625844
   11       13.753151
   12       14.279441
 
  0.1666667E+00  0.1666667E+00  0.1250000E+00  0.3472222E-02
    1      -12.471784
    2      -12.076982
    3       -2.504914
    4       -2.418678
    5       -1.136076
    6       -1.090477
    7       -1.072718
    8        1.151408
    9       11.292887
   10       11.932417
   11       12.718327
   12       15.133051
 
  0.2500000E+00  0.1666667E+00  0.1250000E+00  0.6944444E-02
    1      -11.347419
    2      -10.980735
    3       -4.272679
    4       -4.110081
    5       -2.220987
    6       -2.106160
    7        0.227060
    8        2.295192
    9        9.266726
   10       10.084603
   11       14.014580
   12       15.218485
 
  0.3333333E+00  0.1666667E+00  0.1250000E+00  0.6944444E-02
    1       -9.949726
    2       -9.622258
    3       -6.216875
    4       -5.990273
    5       -2.814691
    6       -2.670296
    7        1.785140
    8        3.476433
    9        7.349884
   10        8.288629
   11       14.936802
   12       15.458598
 
  0.4166667E+00  0.1666667E+00  0.1250000E+00  0.6944444E-02
    1       -8.650688
    2       -8.486380
    3       -7.576195
    4       -7.465201
    5       -3.004661
    6       -2.853434
    7        2.941376
    8        3.803473
    9        6.753692
   10        7.053461
   11       14.842949
   12       15.548679
 
  0.5000000E+00  0.1666667E+00  0.1250000E+00  0.6944444E-02
    1       -9.954485
    2       -9.626990
    3       -6.210541
    4       -5.983548
    5       -2.817244
    6       -2.672693
    7        1.781448
    8        3.474172
    9        7.347523
   10        8.295816
   11       14.939531
   12       15.454981
 
 -0.4166667E+00  0.1666667E+00  0.1250000E+00  0.6944444E-02
    1      -11.351306
    2      -10.984616
    3       -4.266908
    4       -4.103836
    5       -2.224380
    6       -2.109348
    7        0.223553
    8        2.291897
    9        9.262649
   10       10.091871
   11       14.008993
   12       15.224452
 
 -0.3333333E+00  0.1666667E+00  0.1250000E+00  0.6944444E-02
    1      -12.474696
    2      -12.079884
    3       -2.506559
    4       -2.418276
    5       -1.134400
    6       -1.093267
    7       -1.069944
    8        1.148569
    9       11.284970
   10       11.938334
   11       12.714305
   12       15.152495
 
 -0.2500000E+00  0.1666667E+00  0.1250000E+00  0.6944444E-02
    1      -13.290536
    2      -12.875596
    3       -2.066834
    4       -1.189793
    5       -1.078769
    6        0.230313
    7        0.274776
    8        0.303946
    9       11.744445
   10       13.023977
   11       13.636939
   12       13.990809
 
 -0.1666667E+00  0.1666667E+00  0.1250000E+00  0.3472222E-02
    1      -13.784341
    2      -13.357274
    3       -2.660381
    4       -0.265953
    5       -0.080063
    6        0.024567
    7        1.118774
    8        1.186990
    9       11.167237
   10       13.509466
   11       13.776879
   12       14.342415
 
  0.2500000E+00  0.2500000E+00  0.1250000E+00  0.3472222E-02
    1      -10.100204
    2       -9.766434
    3       -5.293908
    4       -5.176207
    5       -3.687566
    6       -3.601052
    7        1.659803
    8        3.487694
    9        7.660578
   10        8.451093
   11       15.384759
   12       16.892138
 
  0.3333333E+00  0.2500000E+00  0.1250000E+00  0.6944444E-02
    1       -8.647852
    2       -8.373072
    3       -6.746909
    4       -6.560865
    5       -4.430815
    6       -4.282712
    7        3.219327
    8        4.492243
    9        6.272282
   10        6.972534
   11       16.458670
   12       16.661580
 
  0.4166667E+00  0.2500000E+00  0.1250000E+00  0.6944444E-02
    1       -8.655168
    2       -8.380122
    3       -6.739649
    4       -6.551978
    5       -4.431889
    6       -4.283559
    7        3.214852
    8        4.491495
    9        6.264305
   10        6.984024
   11       16.445229
   12       16.666976
 
  0.5000000E+00  0.2500000E+00  0.1250000E+00  0.6944444E-02
    1      -10.106706
    2       -9.773048
    3       -5.290374
    4       -5.169898
    5       -3.686868
    6       -3.598656
    7        1.654609
    8        3.482317
    9        7.653924
   10        8.462290
   11       15.374920
   12       16.908005
 
 -0.4166667E+00  0.2500000E+00  0.1250000E+00  0.6944444E-02
    1      -11.352532
    2      -10.985858
    3       -4.277010
    4       -4.112863
    5       -2.212670
    6       -2.096925
    7        0.222469
    8        2.290142
    9        9.258130
   10       10.091126
   11       14.008053
   12       15.255424
 
 -0.3333333E+00  0.2500000E+00  0.1250000E+00  0.6944444E-02
    1      -12.313270
    2      -11.922385
    3       -3.297564
    4       -3.123692
    5       -0.905745
    6       -0.666321
    7       -0.568993
    8        1.308525
    9       10.733770
   10       11.655447
   11       12.870879
   12       13.680698
 
 -0.2500000E+00  0.2500000E+00  0.1250000E+00  0.3472222E-02
    1      -12.963344
    2      -12.556443
    3       -2.208551
    4       -2.051062
    5       -1.676517
    6        0.233743
    7        0.314441
    8        0.624164
    9       11.978078
   10       12.203947
   11       12.920093
   12       13.177048
 
  0.3333333E+00  0.3333333E+00  0.1250000E+00  0.3472222E-02
    1       -7.447836
    2       -7.299694
    3       -7.297080
    4       -7.153403
    5       -5.244976
    6       -5.243616
    7        4.414975
    8        5.202380
    9        5.213889
   10        6.192136
   11       16.342777
   12       16.366350
 
  0.4166667E+00  0.3333333E+00  0.1250000E+00  0.6944444E-02
    1       -8.657744
    2       -8.383642
    3       -6.744779
    4       -6.557335
    5       -4.423273
    6       -4.274098
    7        3.214977
    8        4.481102
    9        6.268543
   10        6.984338
   11       16.443088
   12       16.690017
 
  0.5000000E+00  0.3333333E+00  0.1250000E+00  0.6944444E-02
    1       -9.957660
    2       -9.630416
    3       -6.220152
    4       -5.992988
    5       -2.802335
    6       -2.657726
    7        1.779610
    8        3.467265
    9        7.344912
   10        8.293484
   11       14.973203
   12       15.470998
 
 -0.4166667E+00  0.3333333E+00  0.1250000E+00  0.6944444E-02
    1      -11.036688
    2      -10.678363
    3       -5.447971
    4       -5.221785
    5       -1.305560
    6       -1.197552
    7        0.562773
    8        2.523705
    9        8.440034
   10        9.605859
   11       13.315880
   12       13.808425
 
 -0.3333333E+00  0.3333333E+00  0.1250000E+00  0.3472222E-02
    1      -11.830253
    2      -11.451420
    3       -4.439282
    4       -4.230458
    5       -0.501975
    6       -0.414471
    7       -0.346745
    8        1.779436
    9        9.622651
   10       10.789523
   11       12.745813
   12       13.134950
 
  0.4166667E+00  0.4166667E+00  0.1250000E+00  0.3472222E-02
    1       -8.660059
    2       -8.499431
    3       -7.576046
    4       -7.467463
    5       -2.990216
    6       -2.838982
    7        2.942225
    8        3.784032
    9        6.761211
   10        7.048751
   11       14.879880
   12       15.585829
 
  0.5000000E+00  0.4166667E+00  0.1250000E+00  0.6944444E-02
    1       -9.530690
    2       -9.232614
    3       -7.395809
    4       -7.150924
    5       -1.635624
    6       -1.523240
    7        2.102705
    8        3.356148
    9        6.919937
   10        7.840216
   11       13.136304
   12       13.718135
 
 -0.4166667E+00  0.4166667E+00  0.1250000E+00  0.3472222E-02
    1      -10.415569
    2      -10.075712
    3       -6.560307
    4       -6.310138
    5       -0.975865
    6       -0.884652
    7        1.216491
    8        2.926061
    9        7.520593
   10        8.753135
   11       12.495822
   12       13.039374
 
  0.5000000E+00  0.5000000E+00  0.1250000E+00  0.1736111E-02
    1       -9.087017
    2       -8.920461
    3       -7.981561
    4       -7.858088
    5       -1.138358
    6       -1.046020
    7        2.345962
    8        3.206386
    9        6.806433
   10        7.554017
   11       12.401786
   12       12.971749
 
  0.0000000E+00  0.0000000E+00  0.2500000E+00  0.1736111E-02
    1      -14.398988
    2      -14.060140
    3       -3.216368
    4       -1.353672
    5        2.254477
    6        2.270807
    7        2.279629
    8        2.295170
    9       11.080564
   10       13.585279
   11       13.591605
   12       13.648374
 
  0.8333333E-01  0.6938894E-17  0.2500000E+00  0.6944444E-02
    1      -14.233010
    2      -13.897263
    3       -3.016128
    4       -1.164990
    5        1.604957
    6        1.648265
    7        1.913530
    8        1.950740
    9       11.263805
   10       13.630042
   11       13.735944
   12       14.282543
 
  0.1666667E+00  0.1387779E-16  0.2500000E+00  0.6944444E-02
    1      -13.736992
    2      -13.410555
    3       -2.419885
    4       -0.605608
    5       -0.054441
    6        0.025124
    7        1.112262
    8        1.164603
    9       11.810331
   10       13.501770
   11       13.727063
   12       14.427309
 
  0.2500000E+00  0.2775558E-16  0.2500000E+00  0.6944444E-02
    1      -12.916757
    2      -12.605755
    3       -2.178008
    4       -2.057859
    5       -1.442500
    6        0.226899
    7        0.288880
    8        0.302130
    9       12.099619
   10       12.719391
   11       12.812682
   12       13.204927
 
  0.3333333E+00  0.2775558E-16  0.2500000E+00  0.6944444E-02
    1      -11.784889
    2      -11.495161
    3       -4.404936
    4       -4.245294
    5       -0.509270
    6       -0.442314
    7       -0.125498
    8        1.490920
    9        9.733173
   10       10.626748
   11       12.786740
   12       13.120014
 