mesh: [     9,     9,     4 ]
nqpoint: 50     
reciprocal_lattice:
- [   0.40553429,   0.23434576,   0.00000000 ] # a*
- [   0.00018224,   0.46837588,   0.00000000 ] # b*
- [   0.00000000,   0.00000000,   0.15872605 ] # c*
natom:   4      
lattice:
- [     2.466437248995937,    -0.000959642981403,     0.000000000000000 ] # a
- [    -1.234049699648306,     2.135517492938035,     0.000000000000000 ] # b
- [     0.000000000000000,     0.000000000000000,     6.300163192000000 ] # c
points:
- symbol: C  # 1
  coordinates: [  0.999346608899160,  0.000653437440448,  0.250000000000000 ]
  mass: 12.010700
- symbol: C  # 2
  coordinates: [  0.000653437440448,  0.999346608899160,  0.750000000000000 ]
  mass: 12.010700
- symbol: C  # 3
  coordinates: [  0.332584924946424,  0.667415057713967,  0.250000000000000 ]
  mass: 12.010700
- symbol: C  # 4
  coordinates: [  0.667415057713967,  0.332584924946424,  0.750000000000000 ]
  mass: 12.010700
phonon:
- q-position: [    0.0000000,    0.0000000,    0.1250000 ]
  weight: 2    
  band:
  - # 1
    frequency:    -2.7203704728
  - # 2
    frequency:    -0.8586321480
  - # 3
    frequency:    -0.6107379967
  - # 4
    frequency:     1.0663541731
  - # 5
    frequency:     1.5402669843
  - # 6
    frequency:     2.9573643598
  - # 7
    frequency:    21.2809320305
  - # 8
    frequency:    26.2792735540
  - # 9
    frequency:    44.7937089976
  - # 10
    frequency:    44.8362179306
  - # 11
    frequency:    44.9482823395
  - # 12
    frequency:    45.1143391655

- q-position: [    0.1111111,    0.0000000,    0.1250000 ]
  weight: 8    
  band:
  - # 1
    frequency:     3.5485756446
  - # 2
    frequency:     5.8782853562
  - # 3
    frequency:     5.9378738702
  - # 4
    frequency:     6.0392735027
  - # 5
    frequency:    11.2902249885
  - # 6
    frequency:    11.5164385361
  - # 7
    frequency:    21.0829369151
  - # 8
    frequency:    25.6917125688
  - # 9
    frequency:    44.5398789694
  - # 10
    frequency:    44.7084265067
  - # 11
    frequency:    45.0556204480
  - # 12
    frequency:    45.0727447677

- q-position: [    0.2222222,    0.0000000,    0.1250000 ]
  weight: 8    
  band:
  - # 1
    frequency:     7.3985062410
  - # 2
    frequency:     9.6266046797
  - # 3
    frequency:    11.4802907594
  - # 4
    frequency:    11.5582766487
  - # 5
    frequency:    20.5320108171
  - # 6
    frequency:    22.0031557073
  - # 7
    frequency:    22.1651620276
  - # 8
    frequency:    24.0531385054
  - # 9
    frequency:    43.7589579344
  - # 10
    frequency:    43.9021293367
  - # 11
    frequency:    45.1398601742
  - # 12
    frequency:    45.1626456560

- q-position: [    0.3333333,    0.0000000,    0.1250000 ]
  weight: 8    
  band:
  - # 1
    frequency:    10.9198213858
  - # 2
    frequency:    12.7160198552
  - # 3
    frequency:    15.9141834412
  - # 4
    frequency:    15.9650167363
  - # 5
    frequency:    19.7420958755
  - # 6
    frequency:    21.7274119186
  - # 7
    frequency:    30.9908840796
  - # 8
    frequency:    31.1268784634
  - # 9
    frequency:    42.7175389109
  - # 10
    frequency:    42.8006460584
  - # 11
    frequency:    44.4604301059
  - # 12
    frequency:    44.5123863835

- q-position: [    0.4444444,    0.0000000,    0.1250000 ]
  weight: 8    
  band:
  - # 1
    frequency:    13.7195456666
  - # 2
    frequency:    14.5835727025
  - # 3
    frequency:    18.4917164409
  - # 4
    frequency:    18.5091202695
  - # 5
    frequency:    18.9636321740
  - # 6
    frequency:    19.4715971897
  - # 7
    frequency:    37.7753961353
  - # 8
    frequency:    37.8810678137
  - # 9
    frequency:    41.9181869315
  - # 10
    frequency:    41.9548406414
  - # 11
    frequency:    42.2081242659
  - # 12
    frequency:    42.2966410943

- q-position: [    0.1111111,    0.1111111,    0.1250000 ]
  weight: 4    
  band:
  - # 1
    frequency:     7.3424257853
  - # 2
    frequency:     8.1855225554
  - # 3
    frequency:    10.7167072910
  - # 4
    frequency:    10.7498213116
  - # 5
    frequency:    18.9102061182
  - # 6
    frequency:    19.1157943533
  - # 7
    frequency:    20.7100912881
  - # 8
    frequency:    24.4708531805
  - # 9
    frequency:    44.0805962754
  - # 10
    frequency:    44.2980079121
  - # 11
    frequency:    45.0429733721
  - # 12
    frequency:    45.1212957057

- q-position: [    0.2222222,    0.1111111,    0.1250000 ]
  weight: 8    
  band:
  - # 1
    frequency:    10.4895279304
  - # 2
    frequency:    11.4566029699
  - # 3
    frequency:    15.8891780187
  - # 4
    frequency:    15.9942951502
  - # 5
    frequency:    20.0238823602
  - # 6
    frequency:    22.4030065845
  - # 7
    frequency:    27.2523895397
  - # 8
    frequency:    27.4065319057
  - # 9
    frequency:    43.3711144367
  - # 10
    frequency:    43.4765786645
  - # 11
    frequency:    44.6351424197
  - # 12
    frequency:    44.6789628429

- q-position: [    0.3333333,    0.1111111,    0.1250000 ]
  weight: 8    
  band:
  - # 1
    frequency:    13.3232069114
  - # 2
    frequency:    13.9687647371
  - # 3
    frequency:    19.1669479758
  - # 4
    frequency:    19.6959105815
  - # 5
    frequency:    19.7940390674
  - # 6
    frequency:    20.0075094841
  - # 7
    frequency:    34.3352111483
  - # 8
    frequency:    34.4594837836
  - # 9
    frequency:    42.4001289415
  - # 10
    frequency:    42.4288944472
  - # 11
    frequency:    43.3024520999
  - # 12
    frequency:    43.3511202865

- q-position: [   -0.5555556,    0.1111111,    0.1250000 ]
  weight: 8    
  band:
  - # 1
    frequency:    14.4116755598
  - # 2
    frequency:    15.2549460622
  - # 3
    frequency:    18.6343061644
  - # 4
    frequency:    18.7428244355
  - # 5
    frequency:    21.1388974548
  - # 6
    frequency:    21.2056034511
  - # 7
    frequency:    39.4340007248
  - # 8
    frequency:    39.4687658270
  - # 9
    frequency:    39.6592209577
  - # 10
    frequency:    39.7582134418
  - # 11
    frequency:    42.5643584651
  - # 12
    frequency:    42.5935796964

- q-position: [   -0.4444444,    0.1111111,    0.1250000 ]
  weight: 8    
  band:
  - # 1
    frequency:    12.2764205168
  - # 2
    frequency:    14.2857133383
  - # 3
    frequency:    19.1865189173
  - # 4
    frequency:    19.7580484470
  - # 5
    frequency:    19.7989659492
  - # 6
    frequency:    20.4392261715
  - # 7
    frequency:    34.3826321884
  - # 8
    frequency:    34.4649454964
  - # 9
    frequency:    42.3456858918
  - # 10
    frequency:    42.4117324018
  - # 11
    frequency:    43.2732655301
  - # 12
    frequency:    43.3615320653

- q-position: [   -0.3333333,    0.1111111,    0.1250000 ]
  weight: 8    
  band:
  - # 1
    frequency:     9.0291500560
  - # 2
    frequency:    11.8761302737
  - # 3
    frequency:    15.9618158212
  - # 4
    frequency:    15.9914422521
  - # 5
    frequency:    20.0144621115
  - # 6
    frequency:    22.8375072492
  - # 7
    frequency:    27.3144055604
  - # 8
    frequency:    27.4007819966
  - # 9
    frequency:    43.3616724492
  - # 10
    frequency:    43.4398719974
  - # 11
    frequency:    44.6350873496
  - # 12
    frequency:    44.6404779145

- q-position: [   -0.2222222,    0.1111111,    0.1250000 ]
  weight: 8    
  band:
  - # 1
    frequency:     5.2314441580
  - # 2
    frequency:     8.9347928795
  - # 3
    frequency:    10.6202260100
  - # 4
    frequency:    10.7281467273
  - # 5
    frequency:    19.0703448510
  - # 6
    frequency:    19.1154248181
  - # 7
    frequency:    20.6898392104
  - # 8
    frequency:    24.7765816388
  - # 9
    frequency:    44.1285024889
  - # 10
    frequency:    44.1598152367
  - # 11
    frequency:    45.0193337654
  - # 12
    frequency:    45.1730948260

- q-position: [   -0.1111111,    0.1111111,    0.1250000 ]
  weight: 4    
  band:
  - # 1
    frequency:     1.2991223974
  - # 2
    frequency:     5.4606820865
  - # 3
    frequency:     5.9727701642
  - # 4
    frequency:     6.3578264702
  - # 5
    frequency:    11.4956006983
  - # 6
    frequency:    11.6375124509
  - # 7
    frequency:    21.0734035496
  - # 8
    frequency:    25.8013013572
  - # 9
    frequency:    44.5438607235
  - # 10
    frequency:    44.6571372024
  - # 11
    frequency:    44.9273834672
  - # 12
    frequency:    45.2251777976

- q-position: [    0.2222222,    0.2222222,    0.1250000 ]
  weight: 4    
  band:
  - # 1
    frequency:    13.2269379436
  - # 2
    frequency:    13.6966882979
  - # 3
    frequency:    19.2350325827
  - # 4
    frequency:    20.1995081947
  - # 5
    frequency:    21.6256080032
  - # 6
    frequency:    21.7367816298
  - # 7
    frequency:    32.0004043950
  - # 8
    frequency:    32.1059779153
  - # 9
    frequency:    42.9641815255
  - # 10
    frequency:    42.9945798296
  - # 11
    frequency:    43.3238599633
  - # 12
    frequency:    43.3411838019

- q-position: [    0.3333333,    0.2222222,    0.1250000 ]
  weight: 8    
  band:
  - # 1
    frequency:    15.1864362347
  - # 2
    frequency:    15.6046070524
  - # 3
    frequency:    18.0951786582
  - # 4
    frequency:    18.3547893047
  - # 5
    frequency:    25.4991746954
  - # 6
    frequency:    25.5845599944
  - # 7
    frequency:    36.0777262496
  - # 8
    frequency:    36.1509239830
  - # 9
    frequency:    40.0258009399
  - # 10
    frequency:    40.0479870307
  - # 11
    frequency:    43.4005593779
  - # 12
    frequency:    43.4386935806

- q-position: [   -0.5555556,    0.2222222,    0.1250000 ]
  weight: 8    
  band:
  - # 1
    frequency:    14.2492444571
  - # 2
    frequency:    15.7992819000
  - # 3
    frequency:    18.3623394417
  - # 4
    frequency:    18.6815996811
  - # 5
    frequency:    25.5396699821
  - # 6
    frequency:    25.6031880584
  - # 7
    frequency:    36.1386136565
  - # 8
    frequency:    36.1662691001
  - # 9
    frequency:    39.9582580738
  - # 10
    frequency:    40.0004603982
  - # 11
    frequency:    43.3949319284
  - # 12
    frequency:    43.4358784029

- q-position: [   -0.4444444,    0.2222222,    0.1250000 ]
  weight: 8    
  band:
  - # 1
    frequency:    11.7074135357
  - # 2
    frequency:    14.0194720792
  - # 3
    frequency:    19.2063332746
  - # 4
    frequency:    20.9523868953
  - # 5
    frequency:    21.7187518905
  - # 6
    frequency:    21.7511457436
  - # 7
    frequency:    32.0690291219
  - # 8
    frequency:    32.0931366847
  - # 9
    frequency:    42.9069199612
  - # 10
    frequency:    42.9427988716
  - # 11
    frequency:    43.3071000410
  - # 12
    frequency:    43.3297488215

- q-position: [   -0.3333333,    0.2222222,    0.1250000 ]
  weight: 8    
  band:
  - # 1
    frequency:     8.7755906122
  - # 2
    frequency:    11.8110781084
  - # 3
    frequency:    15.9253154199
  - # 4
    frequency:    15.9730277879
  - # 5
    frequency:    19.9552529655
  - # 6
    frequency:    23.0320099148
  - # 7
    frequency:    27.3540383276
  - # 8
    frequency:    27.4098854183
  - # 9
    frequency:    43.3488610740
  - # 10
    frequency:    43.4313911587
  - # 11
    frequency:    44.5489466628
  - # 12
    frequency:    44.7156062165

- q-position: [   -0.2222222,    0.2222222,    0.1250000 ]
  weight: 4    
  band:
  - # 1
    frequency:     6.0281456221
  - # 2
    frequency:     9.8311995667
  - # 3
    frequency:    11.3570411890
  - # 4
    frequency:    11.5240926779
  - # 5
    frequency:    20.4795916746
  - # 6
    frequency:    22.1116784107
  - # 7
    frequency:    22.2127028153
  - # 8
    frequency:    24.4094403454
  - # 9
    frequency:    43.7413927612
  - # 10
    frequency:    43.8523432940
  - # 11
    frequency:    45.0311377037
  - # 12
    frequency:    45.2705533573

- q-position: [   -0.6666667,    0.3333333,    0.1250000 ]
  weight: 4    
  band:
  - # 1
    frequency:    16.2027027338
  - # 2
    frequency:    16.5318400488
  - # 3
    frequency:    17.0776257389
  - # 4
    frequency:    17.6248357673
  - # 5
    frequency:    29.0814817981
  - # 6
    frequency:    29.0832887915
  - # 7
    frequency:    37.1157709556
  - # 8
    frequency:    37.1298246032
  - # 9
    frequency:    37.1591228618
  - # 10
    frequency:    37.2072707841
  - # 11
    frequency:    43.7371571274
  - # 12
    frequency:    43.7823520727

- q-position: [   -0.5555556,    0.3333333,    0.1250000 ]
  weight: 8    
  band:
  - # 1
    frequency:    14.4193406584
  - # 2
    frequency:    15.6087670000
  - # 3
    frequency:    18.2942197688
  - # 4
    frequency:    18.7929503657
  - # 5
    frequency:    25.5740520437
  - # 6
    frequency:    25.5989077254
  - # 7
    frequency:    36.1173872484
  - # 8
    frequency:    36.1442355056
  - # 9
    frequency:    39.9678094135
  - # 10
    frequency:    39.9958501730
  - # 11
    frequency:    43.4000197411
  - # 12
    frequency:    43.4196157867

- q-position: [   -0.4444444,    0.3333333,    0.1250000 ]
  weight: 8    
  band:
  - # 1
    frequency:    12.3798979420
  - # 2
    frequency:    14.0752158309
  - # 3
    frequency:    19.0299273365
  - # 4
    frequency:    19.7635862604
  - # 5
    frequency:    19.7753860424
  - # 6
    frequency:    20.6938167779
  - # 7
    frequency:    34.3900369009
  - # 8
    frequency:    34.4534693654
  - # 9
    frequency:    42.3538530755
  - # 10
    frequency:    42.4122166636
  - # 11
    frequency:    43.2421521136
  - # 12
    frequency:    43.3486753259

- q-position: [   -0.3333333,    0.3333333,    0.1250000 ]
  weight: 4    
  band:
  - # 1
    frequency:    10.2446783092
  - # 2
    frequency:    12.6466035919
  - # 3
    frequency:    15.8946780575
  - # 4
    frequency:    15.9459314915
  - # 5
    frequency:    19.5994656526
  - # 6
    frequency:    22.2487605831
  - # 7
    frequency:    31.0487735303
  - # 8
    frequency:    31.1368240480
  - # 9
    frequency:    42.6908374026
  - # 10
    frequency:    42.7826563953
  - # 11
    frequency:    44.3793482778
  - # 12
    frequency:    44.5485549067

- q-position: [   -0.5555556,    0.4444444,    0.1250000 ]
  weight: 4    
  band:
  - # 1
    frequency:    14.4987708428
  - # 2
    frequency:    15.0817729149
  - # 3
    frequency:    18.6693043198
  - # 4
    frequency:    18.8192281812
  - # 5
    frequency:    21.1803278688
  - # 6
    frequency:    21.1881224868
  - # 7
    frequency:    39.4544112810
  - # 8
    frequency:    39.4678995808
  - # 9
    frequency:    39.6242303760
  - # 10
    frequency:    39.7170726663
  - # 11
    frequency:    42.5645934034
  - # 12
    frequency:    42.5699464920

- q-position: [   -0.4444444,    0.4444444,    0.1250000 ]
  weight: 4    
  band:
  - # 1
    frequency:    13.6529748101
  - # 2
    frequency:    14.5007755456
  - # 3
    frequency:    18.4919324625
  - # 4
    frequency:    18.5016925718
  - # 5
    frequency:    18.8016679952
  - # 6
    frequency:    19.7769727992
  - # 7
    frequency:    37.7880607212
  - # 8
    frequency:    37.8693396234
  - # 9
    frequency:    41.9019241469
  - # 10
    frequency:    41.9521396400
  - # 11
    frequency:    42.1683616771
  - # 12
    frequency:    42.2837234592

- q-position: [    0.0000000,    0.0000000,    0.3750000 ]
  weight: 2    
  band:
  - # 1
    frequency:    -2.7691713517
  - # 2
    frequency:    -2.2154225350
  - # 3
    frequency:    -1.3782455404
  - # 4
    frequency:    -0.8721420259
  - # 5
    frequency:     3.0289126361
  - # 6
    frequency:     4.3996893305
  - # 7
    frequency:    24.5725412433
  - # 8
    frequency:    26.6328559613
  - # 9
    frequency:    44.7232397659
  - # 10
    frequency:    44.7698122052
  - # 11
    frequency:    44.8316929042
  - # 12
    frequency:    44.9646895206

- q-position: [    0.1111111,    0.0000000,    0.3750000 ]
  weight: 8    
  band:
  - # 1
    frequency:     4.9323895954
  - # 2
    frequency:     5.8006480245
  - # 3
    frequency:     5.8412305542
  - # 4
    frequency:     6.0890653567
  - # 5
    frequency:    11.2668875315
  - # 6
    frequency:    11.3615224844
  - # 7
    frequency:    24.1005562430
  - # 8
    frequency:    25.9982704353
  - # 9
    frequency:    44.5330732353
  - # 10
    frequency:    44.5908751184
  - # 11
    frequency:    44.9380193533
  - # 12
    frequency:    44.9572820231

- q-position: [    0.2222222,    0.0000000,    0.3750000 ]
  weight: 8    
  band:
  - # 1
    frequency:     8.2052968248
  - # 2
    frequency:     9.1656583737
  - # 3
    frequency:    11.4483415075
  - # 4
    frequency:    11.4808218131
  - # 5
    frequency:    22.0192519109
  - # 6
    frequency:    22.0870137979
  - # 7
    frequency:    22.7970604421
  - # 8
    frequency:    24.2417969312
  - # 9
    frequency:    43.7549167324
  - # 10
    frequency:    43.8126185499
  - # 11
    frequency:    45.0722241562
  - # 12
    frequency:    45.0803100787

- q-position: [    0.3333333,    0.0000000,    0.3750000 ]
  weight: 8    
  band:
  - # 1
    frequency:    11.3850220980
  - # 2
    frequency:    12.1208261093
  - # 3
    frequency:    15.9136112708
  - # 4
    frequency:    15.9347005146
  - # 5
    frequency:    20.9699936143
  - # 6
    frequency:    21.7853174431
  - # 7
    frequency:    31.0239714085
  - # 8
    frequency:    31.0802843310
  - # 9
    frequency:    42.7207851233
  - # 10
    frequency:    42.7549533805
  - # 11
    frequency:    44.4397376481
  - # 12
    frequency:    44.4610978178

- q-position: [    0.4444444,    0.0000000,    0.3750000 ]
  weight: 8    
  band:
  - # 1
    frequency:    13.9504687703
  - # 2
    frequency:    14.3072933442
  - # 3
    frequency:    18.4951759549
  - # 4
    frequency:    18.5023852530
  - # 5
    frequency:    19.2243732436
  - # 6
    frequency:    19.4372290878
  - # 7
    frequency:    37.8068290268
  - # 8
    frequency:    37.8505715119
  - # 9
    frequency:    41.9264371744
  - # 10
    frequency:    41.9416092454
  - # 11
    frequency:    42.2245442310
  - # 12
    frequency:    42.2612255641

- q-position: [    0.1111111,    0.1111111,    0.3750000 ]
  weight: 4    
  band:
  - # 1
    frequency:     7.8031792435
  - # 2
    frequency:     8.3600468676
  - # 3
    frequency:    10.6496637846
  - # 4
    frequency:    10.6636217709
  - # 5
    frequency:    18.9285021851
  - # 6
    frequency:    19.0139103457
  - # 7
    frequency:    23.1486515360
  - # 8
    frequency:    24.6945157987
  - # 9
    frequency:    44.1060913111
  - # 10
    frequency:    44.1961981709
  - # 11
    frequency:    44.9678623312
  - # 12
    frequency:    45.0003928521

- q-position: [    0.2222222,    0.1111111,    0.3750000 ]
  weight: 8    
  band:
  - # 1
    frequency:    10.8299515493
  - # 2
    frequency:    11.2574044920
  - # 3
    frequency:    15.8912332913
  - # 4
    frequency:    15.9349007971
  - # 5
    frequency:    21.5155727757
  - # 6
    frequency:    22.4906669283
  - # 7
    frequency:    27.2811001446
  - # 8
    frequency:    27.3450065765
  - # 9
    frequency:    43.3784736099
  - # 10
    frequency:    43.4218896314
  - # 11
    frequency:    44.5975825564
  - # 12
    frequency:    44.6156061251

- q-position: [    0.3333333,    0.1111111,    0.3750000 ]
  weight: 8    
  band:
  - # 1
    frequency:    13.5195184261
  - # 2
    frequency:    13.7841301816
  - # 3
    frequency:    19.6275286629
  - # 4
    frequency:    19.7183312467
  - # 5
    frequency:    19.7590125083
  - # 6
    frequency:    19.9729199618
  - # 7
    frequency:    34.3678695222
  - # 8
    frequency:    34.4193337193
  - # 9
    frequency:    42.3990629736
  - # 10
    frequency:    42.4108492540
  - # 11
    frequency:    43.3068169278
  - # 12
    frequency:    43.3268905020

- q-position: [   -0.5555556,    0.1111111,    0.3750000 ]
  weight: 8    
  band:
  - # 1
    frequency:    14.6287603614
  - # 2
    frequency:    14.9865658948
  - # 3
    frequency:    18.6339263596
  - # 4
    frequency:    18.6871942388
  - # 5
    frequency:    21.1616100415
  - # 6
    frequency:    21.1892322790
  - # 7
    frequency:    39.4442606845
  - # 8
    frequency:    39.4588237808
  - # 9
    frequency:    39.6906569619
  - # 10
    frequency:    39.7316334255
  - # 11
    frequency:    42.5721230070
  - # 12
    frequency:    42.5841782172

- q-position: [   -0.4444444,    0.1111111,    0.3750000 ]
  weight: 8    
  band:
  - # 1
    frequency:    12.6405220176
  - # 2
    frequency:    13.4718327085
  - # 3
    frequency:    19.7742225711
  - # 4
    frequency:    19.7909543071
  - # 5
    frequency:    19.9385935308
  - # 6
    frequency:    20.4572665916
  - # 7
    frequency:    34.4097321989
  - # 8
    frequency:    34.4437722170
  - # 9
    frequency:    42.3579710910
  - # 10
    frequency:    42.3853421591
  - # 11
    frequency:    43.2766060983
  - # 12
    frequency:    43.3132324137

- q-position: [   -0.3333333,    0.1111111,    0.3750000 ]
  weight: 8    
  band:
  - # 1
    frequency:     9.7062827502
  - # 2
    frequency:    10.9032661467
  - # 3
    frequency:    15.9610088361
  - # 4
    frequency:    15.9733270090
  - # 5
    frequency:    21.7775474792
  - # 6
    frequency:    22.9337860572
  - # 7
    frequency:    27.3268550477
  - # 8
    frequency:    27.3626107575
  - # 9
    frequency:    43.3476934979
  - # 10
    frequency:    43.3787765798
  - # 11
    frequency:    44.5910414540
  - # 12
    frequency:    44.5927639714

- q-position: [   -0.2222222,    0.1111111,    0.3750000 ]
  weight: 8    
  band:
  - # 1
    frequency:     6.5589846034
  - # 2
    frequency:     8.1245580411
  - # 3
    frequency:    10.5985675184
  - # 4
    frequency:    10.6434967120
  - # 5
    frequency:    19.0428937131
  - # 6
    frequency:    19.0616510504
  - # 7
    frequency:    23.3116879214
  - # 8
    frequency:    24.9901544845
  - # 9
    frequency:    44.0525962338
  - # 10
    frequency:    44.0670798417
  - # 11
    frequency:    45.0034934064
  - # 12
    frequency:    45.0710208282

- q-position: [   -0.1111111,    0.1111111,    0.3750000 ]
  weight: 4    
  band:
  - # 1
    frequency:     4.1881098540
  - # 2
    frequency:     5.4521520592
  - # 3
    frequency:     5.6702013720
  - # 4
    frequency:     6.0008210500
  - # 5
    frequency:    11.4505212343
  - # 6
    frequency:    11.5099185340
  - # 7
    frequency:    24.1553646168
  - # 8
    frequency:    26.1015706950
  - # 9
    frequency:    44.4457356247
  - # 10
    frequency:    44.4928163460
  - # 11
    frequency:    44.9642765800
  - # 12
    frequency:    45.0877897307

- q-position: [    0.2222222,    0.2222222,    0.3750000 ]
  weight: 4    
  band:
  - # 1
    frequency:    13.3852813336
  - # 2
    frequency:    13.5795193422
  - # 3
    frequency:    19.7693780265
  - # 4
    frequency:    20.1638558253
  - # 5
    frequency:    21.6509125211
  - # 6
    frequency:    21.6969899934
  - # 7
    frequency:    32.0254155478
  - # 8
    frequency:    32.0691545396
  - # 9
    frequency:    42.9577890159
  - # 10
    frequency:    42.9702085893
  - # 11
    frequency:    43.3217651621
  - # 12
    frequency:    43.3291096697

- q-position: [    0.3333333,    0.2222222,    0.3750000 ]
  weight: 8    
  band:
  - # 1
    frequency:    15.3289839540
  - # 2
    frequency:    15.5195201716
  - # 3
    frequency:    18.0003565666
  - # 4
    frequency:    18.0989929025
  - # 5
    frequency:    25.5281246521
  - # 6
    frequency:    25.5634779683
  - # 7
    frequency:    36.1000925960
  - # 8
    frequency:    36.1304031008
  - # 9
    frequency:    40.0408377973
  - # 10
    frequency:    40.0500101630
  - # 11
    frequency:    43.4137212124
  - # 12
    frequency:    43.4294909544

- q-position: [   -0.5555556,    0.2222222,    0.3750000 ]
  weight: 8    
  band:
  - # 1
    frequency:    14.4213873860
  - # 2
    frequency:    15.0850927220
  - # 3
    frequency:    18.5340958417
  - # 4
    frequency:    18.6746613338
  - # 5
    frequency:    25.5716247864
  - # 6
    frequency:    25.5979313734
  - # 7
    frequency:    36.1561419171
  - # 8
    frequency:    36.1675684925
  - # 9
    frequency:    39.9694515281
  - # 10
    frequency:    39.9869934798
  - # 11
    frequency:    43.4052658395
  - # 12
    frequency:    43.4221873652

- q-position: [   -0.4444444,    0.2222222,    0.3750000 ]
  weight: 8    
  band:
  - # 1
    frequency:    12.0256793471
  - # 2
    frequency:    13.0107720906
  - # 3
    frequency:    20.2331789859
  - # 4
    frequency:    20.9436318114
  - # 5
    frequency:    21.7434139499
  - # 6
    frequency:    21.7568861442
  - # 7
    frequency:    32.0729181058
  - # 8
    frequency:    32.0828862580
  - # 9
    frequency:    42.9075989383
  - # 10
    frequency:    42.9215190283
  - # 11
    frequency:    43.2887652218
  - # 12
    frequency:    43.2975525723

- q-position: [   -0.3333333,    0.2222222,    0.3750000 ]
  weight: 8    
  band:
  - # 1
    frequency:     9.4107905735
  - # 2
    frequency:    10.7355063337
  - # 3
    frequency:    15.9342285144
  - # 4
    frequency:    15.9540185711
  - # 5
    frequency:    21.8347610895
  - # 6
    frequency:    23.0921234651
  - # 7
    frequency:    27.3569449596
  - # 8
    frequency:    27.3800410384
  - # 9
    frequency:    43.3144876182
  - # 10
    frequency:    43.3490768273
  - # 11
    frequency:    44.5708224860
  - # 12
    frequency:    44.6402507107

- q-position: [   -0.2222222,    0.2222222,    0.3750000 ]
  weight: 4    
  band:
  - # 1
    frequency:     7.1575702632
  - # 2
    frequency:     8.8071432802
  - # 3
    frequency:    11.3668646142
  - # 4
    frequency:    11.4362998794
  - # 5
    frequency:    22.1131530111
  - # 6
    frequency:    22.1536893529
  - # 7
    frequency:    22.9583298997
  - # 8
    frequency:    24.5681654728
  - # 9
    frequency:    43.6815028903
  - # 10
    frequency:    43.7276026326
  - # 11
    frequency:    45.0650981006
  - # 12
    frequency:    45.1643720659

- q-position: [   -0.6666667,    0.3333333,    0.3750000 ]
  weight: 4    
  band:
  - # 1
    frequency:    16.1230548235
  - # 2
    frequency:    16.4323742986
  - # 3
    frequency:    17.0866037200
  - # 4
    frequency:    17.1525565840
  - # 5
    frequency:    29.0963639638
  - # 6
    frequency:    29.0971315895
  - # 7
    frequency:    37.1220750310
  - # 8
    frequency:    37.1278938791
  - # 9
    frequency:    37.1877281369
  - # 10
    frequency:    37.2076287235
  - # 11
    frequency:    43.7544529767
  - # 12
    frequency:    43.7731526621

- q-position: [   -0.5555556,    0.3333333,    0.3750000 ]
  weight: 8    
  band:
  - # 1
    frequency:    14.4779619416
  - # 2
    frequency:    14.9986475006
  - # 3
    frequency:    18.5274969901
  - # 4
    frequency:    18.7223873423
  - # 5
    frequency:    25.6011268721
  - # 6
    frequency:    25.6114233252
  - # 7
    frequency:    36.1276443583
  - # 8
    frequency:    36.1387180980
  - # 9
    frequency:    39.9759463513
  - # 10
    frequency:    39.9875428359
  - # 11
    frequency:    43.4052486676
  - # 12
    frequency:    43.4133527329

- q-position: [   -0.4444444,    0.3333333,    0.3750000 ]
  weight: 8    
  band:
  - # 1
    frequency:    12.5892916156
  - # 2
    frequency:    13.3363936582
  - # 3
    frequency:    19.7746997681
  - # 4
    frequency:    19.7790677070
  - # 5
    frequency:    19.9356698692
  - # 6
    frequency:    20.6070199154
  - # 7
    frequency:    34.4067781602
  - # 8
    frequency:    34.4330455852
  - # 9
    frequency:    42.3550117454
  - # 10
    frequency:    42.3793617574
  - # 11
    frequency:    43.2616742517
  - # 12
    frequency:    43.3059768502

- q-position: [   -0.3333333,    0.3333333,    0.3750000 ]
  weight: 4    
  band:
  - # 1
    frequency:    10.6520133437
  - # 2
    frequency:    11.7246516523
  - # 3
    frequency:    15.9040232669
  - # 4
    frequency:    15.9252896421
  - # 5
    frequency:    21.1466834571
  - # 6
    frequency:    22.2269732208
  - # 7
    frequency:    31.0689080255
  - # 8
    frequency:    31.1053950378
  - # 9
    frequency:    42.6749472089
  - # 10
    frequency:    42.7130476734
  - # 11
    frequency:    44.4094899240
  - # 12
    frequency:    44.4796187173

- q-position: [   -0.5555556,    0.4444444,    0.3750000 ]
  weight: 4    
  band:
  - # 1
    frequency:    14.6026768159
  - # 2
    frequency:    14.8497222303
  - # 3
    frequency:    18.7119737116
  - # 4
    frequency:    18.7776234097
  - # 5
    frequency:    21.1907832121
  - # 6
    frequency:    21.1940038729
  - # 7
    frequency:    39.4581993789
  - # 8
    frequency:    39.4642678533
  - # 9
    frequency:    39.6503493711
  - # 10
    frequency:    39.6893059688
  - # 11
    frequency:    42.5661346656
  - # 12
    frequency:    42.5683699348

- q-position: [   -0.4444444,    0.4444444,    0.3750000 ]
  weight: 4    
  band:
  - # 1
    frequency:    13.8106443227
  - # 2
    frequency:    14.1867285081
  - # 3
    frequency:    18.4946349837
  - # 4
    frequency:    18.4986851690
  - # 5
    frequency:    19.2499217442
  - # 6
    frequency:    19.6419024129
  - # 7
    frequency:    37.8116338062
  - # 8
    frequency:    37.8452766890
  - # 9
    frequency:    41.9110048396
  - # 10
    frequency:    41.9318092176
  - # 11
    frequency:    42.1959477249
  - # 12
    frequency:    42.2437280150

