  32  32   0   0
  0.9341735E+01  0.4932875E-09  0.4932875E-09  0.1419195E-08  0.5000000E-15
  1.000000000000000E-004
  CAR 
 graphite                                
     15.03174954    -17.38603339  301      4.20115422      1.00000000
    -17.386  0.0000E+00  0.0000E+00
    -17.278  0.0000E+00  0.0000E+00
    -17.170  0.0000E+00  0.0000E+00
    -17.062  0.0000E+00  0.0000E+00
    -16.954  0.0000E+00  0.0000E+00
    -16.846  0.0000E+00  0.0000E+00
    -16.738  0.0000E+00  0.0000E+00
    -16.630  0.0000E+00  0.0000E+00
    -16.522  0.0000E+00  0.0000E+00
    -16.413  0.0000E+00  0.0000E+00
    -16.305  0.0000E+00  0.0000E+00
    -16.197  0.0000E+00  0.0000E+00
    -16.089  0.0000E+00  0.0000E+00
    -15.981  0.0000E+00  0.0000E+00
    -15.873  0.0000E+00  0.0000E+00
    -15.765  0.0000E+00  0.0000E+00
    -15.657  0.0000E+00  0.0000E+00
    -15.549  0.0000E+00  0.0000E+00
    -15.441  0.0000E+00  0.0000E+00
    -15.333  0.1331E+01  0.2744E-01
    -15.225  0.3220E+01  0.2833E+00
    -15.117  0.4779E+01  0.7703E+00
    -15.009  0.4952E+01  0.1296E+01
    -14.901  0.4906E+01  0.1826E+01
    -14.793  0.4983E+01  0.2363E+01
    -14.685  0.4855E+01  0.2898E+01
    -14.576  0.4914E+01  0.3425E+01
    -14.468  0.5035E+01  0.3964E+01
    -14.360  0.4991E+01  0.4505E+01
    -14.252  0.4967E+01  0.5041E+01
    -14.144  0.5763E+01  0.5620E+01
    -14.036  0.6305E+01  0.6265E+01
    -13.928  0.6463E+01  0.6955E+01
    -13.820  0.4620E+01  0.7558E+01
    -13.712  0.1877E+01  0.7785E+01
    -13.604  0.4137E+01  0.8100E+01
    -13.496  0.4581E+01  0.8595E+01
    -13.388  0.4380E+01  0.9076E+01
    -13.280  0.7329E+01  0.9882E+01
    -13.172  0.4283E+01  0.1059E+02
    -13.064  0.4368E+01  0.1106E+02
    -12.956  0.4497E+01  0.1154E+02
    -12.848  0.4604E+01  0.1203E+02
    -12.739  0.4713E+01  0.1253E+02
    -12.631  0.5435E+01  0.1308E+02
    -12.523  0.6030E+01  0.1371E+02
    -12.415  0.5350E+01  0.1432E+02
    -12.307  0.5652E+01  0.1491E+02
    -12.199  0.5098E+01  0.1549E+02
    -12.091  0.4805E+01  0.1602E+02
    -11.983  0.4903E+01  0.1654E+02
    -11.875  0.4979E+01  0.1708E+02
    -11.767  0.5036E+01  0.1762E+02
    -11.659  0.5176E+01  0.1816E+02
    -11.551  0.5614E+01  0.1875E+02
    -11.443  0.5803E+01  0.1937E+02
    -11.335  0.5676E+01  0.1999E+02
    -11.227  0.5628E+01  0.2060E+02
    -11.119  0.5753E+01  0.2122E+02
    -11.011  0.5093E+01  0.2183E+02
    -10.902  0.5147E+01  0.2235E+02
    -10.794  0.5418E+01  0.2293E+02
    -10.686  0.5379E+01  0.2351E+02
    -10.578  0.5505E+01  0.2410E+02
    -10.470  0.5725E+01  0.2470E+02
    -10.362  0.5957E+01  0.2533E+02
    -10.254  0.8251E+01  0.2607E+02
    -10.146  0.9175E+01  0.2713E+02
    -10.038  0.5988E+01  0.2795E+02
     -9.930  0.7557E+01  0.2856E+02
     -9.822  0.3886E+01  0.2933E+02
     -9.714  0.3518E+01  0.2973E+02
     -9.606  0.3150E+01  0.3009E+02
     -9.498  0.2783E+01  0.3041E+02
     -9.390  0.2415E+01  0.3069E+02
     -9.282  0.2494E+01  0.3094E+02
     -9.174  0.3087E+01  0.3128E+02
     -9.065  0.1405E+01  0.3152E+02
     -8.957  0.1754E+01  0.3168E+02
     -8.849  0.2673E+01  0.3192E+02
     -8.741  0.7707E+01  0.3242E+02
     -8.633  0.4205E+01  0.3314E+02
     -8.525  0.3972E+01  0.3356E+02
     -8.417  0.4299E+01  0.3400E+02
     -8.309  0.8901E+01  0.3472E+02
     -8.201  0.6466E+01  0.3545E+02
     -8.093  0.7586E+01  0.3621E+02
     -7.985  0.8624E+01  0.3708E+02
     -7.877  0.7689E+01  0.3803E+02
     -7.769  0.6245E+01  0.3874E+02
     -7.661  0.5990E+01  0.3940E+02
     -7.553  0.5737E+01  0.4003E+02
     -7.445  0.5509E+01  0.4064E+02
     -7.337  0.5324E+01  0.4122E+02
     -7.228  0.5142E+01  0.4179E+02
     -7.120  0.4946E+01  0.4233E+02
     -7.012  0.4847E+01  0.4286E+02
     -6.904  0.4818E+01  0.4338E+02
     -6.796  0.4786E+01  0.4390E+02
     -6.688  0.4599E+01  0.4441E+02
     -6.580  0.4403E+01  0.4490E+02
     -6.472  0.4102E+01  0.4537E+02
     -6.364  0.4018E+01  0.4578E+02
     -6.256  0.4380E+01  0.4623E+02
     -6.148  0.5005E+01  0.4673E+02
     -6.040  0.5944E+01  0.4732E+02
     -5.932  0.6652E+01  0.4800E+02
     -5.824  0.1040E+02  0.4899E+02
     -5.716  0.8185E+01  0.4999E+02
     -5.608  0.5975E+01  0.5076E+02
     -5.500  0.3764E+01  0.5129E+02
     -5.391  0.2736E+01  0.5161E+02
     -5.283  0.3232E+01  0.5192E+02
     -5.175  0.4508E+01  0.5234E+02
     -5.067  0.5796E+01  0.5289E+02
     -4.959  0.7481E+01  0.5360E+02
     -4.851  0.7788E+01  0.5446E+02
     -4.743  0.6602E+01  0.5524E+02
     -4.635  0.5580E+01  0.5589E+02
     -4.527  0.7661E+01  0.5659E+02
     -4.419  0.7154E+01  0.5739E+02
     -4.311  0.6647E+01  0.5813E+02
     -4.203  0.6140E+01  0.5883E+02
     -4.095  0.5633E+01  0.5946E+02
     -3.987  0.6447E+01  0.6008E+02
     -3.879  0.9291E+01  0.6121E+02
     -3.771  0.1002E+02  0.6229E+02
     -3.663  0.7890E+01  0.6325E+02
     -3.554  0.6587E+01  0.6403E+02
     -3.446  0.6675E+01  0.6472E+02
     -3.338  0.7657E+01  0.6550E+02
     -3.230  0.8712E+01  0.6638E+02
     -3.122  0.1073E+02  0.6742E+02
     -3.014  0.1375E+02  0.6882E+02
     -2.906  0.1247E+02  0.7035E+02
     -2.798  0.1267E+02  0.7170E+02
     -2.690  0.1328E+02  0.7317E+02
     -2.582  0.1632E+02  0.7468E+02
     -2.474  0.1188E+02  0.7621E+02
     -2.366  0.1924E+02  0.7772E+02
     -2.258  0.1100E+02  0.7939E+02
     -2.150  0.1934E+02  0.8080E+02
     -2.042  0.1702E+02  0.8294E+02
     -1.934  0.1758E+02  0.8486E+02
     -1.825  0.1479E+02  0.8667E+02
     -1.717  0.1083E+02  0.8805E+02
     -1.609  0.8244E+01  0.8908E+02
     -1.501  0.1231E+02  0.9010E+02
     -1.393  0.8590E+01  0.9109E+02
     -1.285  0.1125E+02  0.9213E+02
     -1.177  0.1262E+02  0.9349E+02
     -1.069  0.1872E+02  0.9500E+02
     -0.961  0.9312E+01  0.9626E+02
     -0.853  0.1083E+02  0.9736E+02
     -0.745  0.1102E+02  0.9854E+02
     -0.637  0.1038E+02  0.9968E+02
     -0.529  0.1051E+02  0.1009E+03
     -0.421  0.1017E+02  0.1019E+03
     -0.313  0.9616E+01  0.1030E+03
     -0.205  0.9383E+01  0.1040E+03
     -0.097  0.9254E+01  0.1051E+03
      0.012  0.9167E+01  0.1060E+03
      0.120  0.9070E+01  0.1070E+03
      0.228  0.9563E+01  0.1080E+03
      0.336  0.9596E+01  0.1091E+03
      0.444  0.9317E+01  0.1101E+03
      0.552  0.9242E+01  0.1111E+03
      0.660  0.9235E+01  0.1121E+03
      0.768  0.9445E+01  0.1131E+03
      0.876  0.9316E+01  0.1141E+03
      0.984  0.9812E+01  0.1152E+03
      1.092  0.9873E+01  0.1163E+03
      1.200  0.7091E+01  0.1172E+03
      1.308  0.6219E+01  0.1179E+03
      1.416  0.5539E+01  0.1185E+03
      1.524  0.4689E+01  0.1191E+03
      1.632  0.4112E+01  0.1196E+03
      1.740  0.3741E+01  0.1200E+03
      1.849  0.6676E+01  0.1205E+03
      1.957  0.9961E+01  0.1214E+03
      2.065  0.1073E+02  0.1224E+03
      2.173  0.7271E+01  0.1234E+03
      2.281  0.5532E+01  0.1241E+03
      2.389  0.4733E+01  0.1246E+03
      2.497  0.4077E+01  0.1251E+03
      2.605  0.3436E+01  0.1255E+03
      2.713  0.3179E+01  0.1259E+03
      2.821  0.2985E+01  0.1262E+03
      2.929  0.2738E+01  0.1265E+03
      3.037  0.2322E+01  0.1268E+03
      3.145  0.2033E+01  0.1270E+03
      3.253  0.1800E+01  0.1272E+03
      3.361  0.1560E+01  0.1274E+03
      3.469  0.1318E+01  0.1276E+03
      3.577  0.1076E+01  0.1277E+03
      3.686  0.8364E+00  0.1278E+03
      3.794  0.6132E+00  0.1279E+03
      3.902  0.4255E+00  0.1279E+03
      4.010  0.2580E+00  0.1280E+03
      4.118  0.1059E+00  0.1280E+03
      4.226  0.1843E-01  0.1280E+03
      4.334  0.1363E+00  0.1280E+03
      4.442  0.2694E+00  0.1280E+03
      4.550  0.4217E+00  0.1281E+03
      4.658  0.6013E+00  0.1281E+03
      4.766  0.8332E+00  0.1282E+03
      4.874  0.1077E+01  0.1283E+03
      4.982  0.1458E+01  0.1284E+03
      5.090  0.1853E+01  0.1286E+03
      5.198  0.2244E+01  0.1288E+03
      5.306  0.2857E+01  0.1291E+03
      5.414  0.2716E+01  0.1294E+03
      5.523  0.3455E+01  0.1297E+03
      5.631  0.4308E+01  0.1301E+03
      5.739  0.7192E+01  0.1308E+03
      5.847  0.8088E+01  0.1318E+03
      5.955  0.8660E+01  0.1328E+03
      6.063  0.8928E+01  0.1337E+03
      6.171  0.6752E+01  0.1345E+03
      6.279  0.6351E+01  0.1352E+03
      6.387  0.5911E+01  0.1359E+03
      6.495  0.5549E+01  0.1365E+03
      6.603  0.5118E+01  0.1371E+03
      6.711  0.4498E+01  0.1376E+03
      6.819  0.3840E+01  0.1381E+03
      6.927  0.3641E+01  0.1385E+03
      7.035  0.3994E+01  0.1389E+03
      7.143  0.4518E+01  0.1393E+03
      7.251  0.4724E+01  0.1399E+03
      7.360  0.4525E+01  0.1403E+03
      7.468  0.4383E+01  0.1408E+03
      7.576  0.4234E+01  0.1413E+03
      7.684  0.4090E+01  0.1417E+03
      7.792  0.3956E+01  0.1422E+03
      7.900  0.3797E+01  0.1426E+03
      8.008  0.3645E+01  0.1430E+03
      8.116  0.3567E+01  0.1434E+03
      8.224  0.3822E+01  0.1438E+03
      8.332  0.3965E+01  0.1442E+03
      8.440  0.4058E+01  0.1446E+03
      8.548  0.4109E+01  0.1451E+03
      8.656  0.4196E+01  0.1455E+03
      8.764  0.4290E+01  0.1460E+03
      8.872  0.4298E+01  0.1465E+03
      8.980  0.4376E+01  0.1469E+03
      9.088  0.4487E+01  0.1474E+03
      9.197  0.4276E+01  0.1479E+03
      9.305  0.4271E+01  0.1483E+03
      9.413  0.4251E+01  0.1488E+03
      9.521  0.4210E+01  0.1493E+03
      9.629  0.4365E+01  0.1497E+03
      9.737  0.4507E+01  0.1502E+03
      9.845  0.4640E+01  0.1507E+03
      9.953  0.4891E+01  0.1512E+03
     10.061  0.4818E+01  0.1517E+03
     10.169  0.5706E+01  0.1523E+03
     10.277  0.4877E+01  0.1528E+03
     10.385  0.4868E+01  0.1534E+03
     10.493  0.4973E+01  0.1539E+03
     10.601  0.5995E+01  0.1545E+03
     10.709  0.4352E+01  0.1550E+03
     10.817  0.3640E+01  0.1554E+03
     10.925  0.3394E+01  0.1558E+03
     11.034  0.3308E+01  0.1562E+03
     11.142  0.3863E+01  0.1566E+03
     11.250  0.4120E+01  0.1570E+03
     11.358  0.4442E+01  0.1575E+03
     11.466  0.4803E+01  0.1580E+03
     11.574  0.7960E+01  0.1587E+03
     11.682  0.1047E+02  0.1597E+03
     11.790  0.1257E+02  0.1610E+03
     11.898  0.1353E+02  0.1624E+03
     12.006  0.1214E+02  0.1638E+03
     12.114  0.1063E+02  0.1651E+03
     12.222  0.7947E+01  0.1661E+03
     12.330  0.4863E+01  0.1667E+03
     12.438  0.4169E+01  0.1672E+03
     12.546  0.2665E+01  0.1676E+03
     12.654  0.1488E+01  0.1678E+03
     12.763  0.7719E+00  0.1679E+03
     12.871  0.2148E+00  0.1680E+03
     12.979  0.9506E-02  0.1680E+03
     13.087  0.0000E+00  0.1680E+03
     13.195  0.0000E+00  0.1680E+03
     13.303  0.0000E+00  0.1680E+03
     13.411  0.0000E+00  0.1680E+03
     13.519  0.0000E+00  0.1680E+03
     13.627  0.0000E+00  0.1680E+03
     13.735  0.0000E+00  0.1680E+03
     13.843  0.0000E+00  0.1680E+03
     13.951  0.0000E+00  0.1680E+03
     14.059  0.0000E+00  0.1680E+03
     14.167  0.0000E+00  0.1680E+03
     14.275  0.0000E+00  0.1680E+03
     14.383  0.0000E+00  0.1680E+03
     14.491  0.0000E+00  0.1680E+03
     14.600  0.0000E+00  0.1680E+03
     14.708  0.0000E+00  0.1680E+03
     14.816  0.0000E+00  0.1680E+03
     14.924  0.0000E+00  0.1680E+03
     15.032  0.0000E+00  0.1680E+03
