   32   32    1    1
  0.9341735E+01  0.4932875E-09  0.4932875E-09  0.1419195E-08  0.5000000E-15
  1.000000000000000E-004
  CAR 
 graphite                                
    128    163     84
 
  0.0000000E+00  0.0000000E+00  0.0000000E+00  0.3086420E-02
    1      -15.386033
    2      -15.292370
    3      -15.291890
    4      -15.193948
    5      -10.093073
    6      -10.082244
    7      -10.079500
    8      -10.057596
    9      -10.055378
   10      -10.045861
   11      -10.043738
   12      -10.043736
   13      -10.040687
   14      -10.023779
   15      -10.011440
   16      -10.008811
   17       -9.028190
   18       -9.027403
   19       -9.025727
   20       -9.006938
   21       -9.005645
   22       -9.004203
   23       -9.002954
   24       -9.002948
   25       -9.001393
   26       -8.974564
   27       -8.973788
   28       -8.971521
   29       -4.085742
   30       -3.416528
   31       -3.415197
   32       -2.621488
   33       -2.202003
   34       -2.199908
   35       -2.187661
   36       -2.185312
   37       -2.185310
   38       -2.183726
   39       -2.181984
   40       -2.170886
   41       -2.168773
   42       -2.166760
   43       -2.166584
   44       -2.151872
   45        1.186790
   46        1.191225
   47        1.191505
   48        1.194777
   49        1.203453
   50        1.206181
   51        1.207431
   52        1.211330
   53        1.561439
   54        1.565531
   55        1.567592
   56        1.839177
   57        1.842307
   58        1.848987
   59        1.849904
   60        1.849914
   61        1.853115
   62        2.055668
   63        2.070711
   64        2.072560
   65        5.707857
   66        5.710071
   67        5.713503
   68        5.860635
   69        5.862928
   70        5.864805
   71        5.867416
   72        5.867810
   73        5.870340
   74        6.244719
   75        6.250626
   76        6.253736
   77        8.091692
   78       10.316817
   79       10.319531
   80       11.458303
   81       11.462645
   82       11.494521
   83       11.586358
   84       11.593710
 
  0.1111111E+00 -0.2081668E-16  0.0000000E+00  0.6172840E-02
    1      -15.312524
    2      -15.219295
    3      -15.218812
    4      -15.121414
    5      -10.864916
    6      -10.799855
    7      -10.799548
    8      -10.732829
    9      -10.331744
   10      -10.322746
   11      -10.277025
   12      -10.275476
   13      -10.266790
   14      -10.266618
   15      -10.220144
   16      -10.210427
   17       -8.709895
   18       -8.705579
   19       -8.665535
   20       -8.664116
   21       -8.660043
   22       -8.659847
   23       -8.616328
   24       -8.611550
   25       -8.190709
   26       -8.141132
   27       -8.138950
   28       -8.087420
   29       -3.996815
   30       -3.329340
   31       -3.328016
   32       -2.536817
   33       -2.427055
   34       -2.411331
   35       -2.408886
   36       -2.408126
   37       -2.393696
   38       -2.390525
   39       -2.390429
   40       -2.373759
   41       -2.127848
   42       -2.112946
   43       -2.110963
   44       -2.095767
   45        0.892356
   46        0.901220
   47        0.905196
   48        0.910783
   49        1.005426
   50        1.033457
   51        1.039130
   52        1.041972
   53        1.050565
   54        1.423228
   55        1.424922
   56        1.456184
   57        1.461388
   58        1.787749
   59        1.790794
   60        1.797613
   61        1.797929
   62        1.846631
   63        2.081326
   64        2.094512
   65        5.807850
   66        5.810128
   67        5.992381
   68        5.995245
   69        5.997719
   70        6.000639
   71        6.140571
   72        6.378123
   73        6.385567
   74        6.404116
   75        6.408350
   76        6.832970
   77        8.182548
   78       10.400057
   79       10.402760
   80       11.500259
   81       11.624925
   82       11.626659
   83       11.753930
   84       11.824127
 
  0.2222222E+00 -0.2775558E-16  0.0000000E+00  0.6172840E-02
    1      -15.092409
    2      -15.000530
    3      -15.000039
    4      -14.904043
    5      -11.872639
    6      -11.799694
    7      -11.799188
    8      -11.723899
    9      -10.674483
   10      -10.668537
   11      -10.611431
   12      -10.610277
   13      -10.604654
   14      -10.604423
   15      -10.545243
   16      -10.538901
   17       -8.026616
   18       -8.019154
   19       -7.978299
   20       -7.977026
   21       -7.970096
   22       -7.969943
   23       -7.926830
   24       -7.919305
   25       -6.866616
   26       -6.820633
   27       -6.818530
   28       -6.771680
   29       -3.730469
   30       -3.068970
   31       -3.067663
   32       -3.031415
   33       -3.015595
   34       -3.009089
   35       -3.008639
   36       -2.994042
   37       -2.991388
   38       -2.985998
   39       -2.969712
   40       -2.284387
   41       -1.913019
   42       -1.898309
   43       -1.896255
   44       -1.881477
   45        0.008334
   46        0.071478
   47        0.082883
   48        0.086998
   49        0.097855
   50        0.533459
   51        0.534740
   52        0.614909
   53        0.623088
   54        0.626293
   55        0.635902
   56        1.121197
   57        1.253257
   58        1.258114
   59        1.667291
   60        1.670181
   61        1.675312
   62        1.675785
   63        2.088252
   64        2.097727
   65        6.092117
   66        6.094131
   67        6.325703
   68        6.328088
   69        6.331171
   70        6.333785
   71        6.691847
   72        6.697569
   73        7.313304
   74        7.626362
   75        7.630093
   76        8.045945
   77        8.455696
   78       10.649270
   79       10.651951
   80       11.610700
   81       11.732117
   82       11.732896
   83       11.830103
   84       12.605311
 
  0.3333333E+00  0.2775558E-16  0.0000000E+00  0.6172840E-02
    1      -14.726848
    2      -14.637130
    3      -14.636625
    4      -14.542976
    5      -12.783198
    6      -12.704826
    7      -12.704293
    8      -12.622983
    9      -10.929257
   10      -10.925591
   11      -10.862980
   12      -10.861805
   13      -10.858567
   14      -10.858162
   15      -10.793504
   16      -10.789730
   17       -7.220471
   18       -7.211423
   19       -7.176491
   20       -7.175125
   21       -7.166715
   22       -7.166390
   23       -7.129797
   24       -7.120880
   25       -5.436291
   26       -5.397095
   27       -5.394761
   28       -5.354772
   29       -3.844709
   30       -3.830735
   31       -3.818457
   32       -3.817466
   33       -3.805099
   34       -3.802434
   35       -3.790376
   36       -3.776173
   37       -3.289601
   38       -2.638451
   39       -2.637171
   40       -1.868036
   41       -1.564271
   42       -1.550202
   43       -1.547998
   44       -1.533671
   45       -1.109794
   46       -1.092249
   47       -1.088236
   48       -1.070927
   49       -0.999967
   50       -0.420778
   51       -0.419644
   52        0.053135
   53        0.063352
   54        0.066455
   55        0.077538
   56        0.248225
   57        1.074567
   58        1.078124
   59        1.544052
   60        1.546906
   61        1.549984
   62        1.550511
   63        2.055916
   64        2.061760
   65        6.472684
   66        6.476078
   67        6.716050
   68        6.717612
   69        6.720588
   70        6.723124
   71        7.019244
   72        7.022945
   73        8.822468
   74        8.910937
   75        9.103651
   76        9.106930
   77        9.469946
   78       11.056794
   79       11.059537
   80       11.306859
   81       11.829968
   82       11.891639
   83       11.892680
   84       12.097504
 
  0.4444444E+00 -0.5551115E-16  0.0000000E+00  0.6172840E-02
    1      -14.217687
    2      -14.130986
    3      -14.130453
    4      -14.040145
    5      -13.568043
    6      -13.485093
    7      -13.484583
    8      -13.398364
    9      -11.060545
   10      -11.058581
   11      -10.993429
   12      -10.991841
   13      -10.990784
   14      -10.989911
   15      -10.922460
   16      -10.920469
   17       -6.476279
   18       -6.469519
   19       -6.445120
   20       -6.443546
   21       -6.438337
   22       -6.436725
   23       -6.411963
   24       -6.405645
   25       -4.596276
   26       -4.588467
   27       -4.574723
   28       -4.572455
   29       -4.566832
   30       -4.563880
   31       -4.548983
   32       -4.540639
   33       -3.959334
   34       -3.927608
   35       -3.924908
   36       -3.892467
   37       -2.679631
   38       -2.491443
   39       -2.467142
   40       -2.463901
   41       -2.438895
   42       -2.043714
   43       -2.042556
   44       -1.910179
   45       -1.297816
   46       -1.296512
   47       -1.293950
   48       -1.098119
   49       -1.084928
   50       -1.082520
   51       -1.069166
   52       -0.580125
   53       -0.543209
   54       -0.531334
   55       -0.528483
   56       -0.515941
   57        0.974845
   58        0.977072
   59        1.469969
   60        1.473158
   61        1.474194
   62        1.474785
   63        2.025290
   64        2.028122
   65        6.764084
   66        6.766906
   67        6.983175
   68        6.983507
   69        6.985102
   70        6.988362
   71        7.211936
   72        7.214477
   73        9.546733
   74       10.356392
   75       10.434419
   76       10.635811
   77       10.640066
   78       10.947388
   79       11.545905
   80       11.552097
   81       12.010917
   82       12.024455
   83       12.026792
   84       12.052555
 
  0.6776264E-20  0.1111111E+00  0.0000000E+00  0.6172840E-02
    1      -15.312523
    2      -15.219291
    3      -15.218812
    4      -15.121412
    5      -10.865020
    6      -10.800067
    7      -10.799563
    8      -10.732953
    9      -10.331725
   10      -10.322440
   11      -10.276973
   12      -10.275477
   13      -10.266752
   14      -10.266012
   15      -10.220127
   16      -10.210071
   17       -8.710224
   18       -8.706583
   19       -8.665584
   20       -8.665432
   21       -8.660831
   22       -8.660000
   23       -8.616555
   24       -8.612324
   25       -8.189746
   26       -8.139310
   27       -8.138935
   28       -8.086540
   29       -3.996819
   30       -3.329347
   31       -3.328019
   32       -2.536823
   33       -2.425952
   34       -2.410050
   35       -2.408884
   36       -2.406930
   37       -2.393337
   38       -2.390525
   39       -2.389656
   40       -2.373833
   41       -2.128801
   42       -2.113266
   43       -2.112945
   44       -2.097222
   45        0.897607
   46        0.904515
   47        0.905199
   48        0.911962
   49        1.004620
   50        1.032262
   51        1.038536
   52        1.039127
   53        1.045297
   54        1.422753
   55        1.423460
   56        1.456416
   57        1.462387
   58        1.788064
   59        1.790792
   60        1.797746
   61        1.799863
   62        1.845633
   63        2.081395
   64        2.095616
   65        5.806175
   66        5.809928
   67        5.991842
   68        5.994017
   69        5.996797
   70        5.999322
   71        6.142303
   72        6.377953
   73        6.383650
   74        6.406823
   75        6.408996
   76        6.834683
   77        8.182544
   78       10.400044
   79       10.402747
   80       11.499523
   81       11.623942
   82       11.624720
   83       11.751311
   84       11.799222
 
  0.1111111E+00  0.1111111E+00  0.0000000E+00  0.6172840E-02
    1      -15.165622
    2      -15.073281
    3      -15.072794
    4      -14.976350
    5      -11.328455
    6      -11.325601
    7      -11.260623
    8      -11.257392
    9      -11.257374
   10      -11.254894
   11      -11.187362
   12      -11.184457
   13       -9.904114
   14       -9.869364
   15       -9.867561
   16       -9.836516
   17       -8.843375
   18       -8.822809
   19       -8.820162
   20       -8.792501
   21       -7.508104
   22       -7.504913
   23       -7.460924
   24       -7.456678
   25       -7.456660
   26       -7.454788
   27       -7.407948
   28       -7.404931
   29       -3.819063
   30       -3.155480
   31       -3.154165
   32       -3.090325
   33       -3.069085
   34       -3.066485
   35       -3.044622
   36       -2.368288
   37       -2.282489
   38       -2.280306
   39       -2.265807
   40       -2.264006
   41       -2.264003
   42       -2.260866
   43       -2.247161
   44       -2.244083
   45        0.363645
   46        0.372468
   47        0.376463
   48        0.381885
   49        0.583222
   50        0.585013
   51        0.718521
   52        0.723282
   53        0.726084
   54        0.734854
   55        1.062662
   56        1.064450
   57        1.064566
   58        1.067267
   59        1.583072
   60        1.585317
   61        1.828917
   62        2.105637
   63        2.108456
   64        2.318788
   65        5.682873
   66        5.787873
   67        5.791966
   68        6.097705
   69        6.650027
   70        6.652463
   71        6.945282
   72        6.950049
   73        6.950224
   74        6.951585
   75        7.363026
   76        7.365699
   77        8.364830
   78       10.566947
   79       10.569635
   80       11.870170
   81       11.876266
   82       11.995017
   83       11.998304
   84       12.000808
 
  0.2222222E+00  0.1111111E+00  0.0000000E+00  0.6172840E-02
    1      -14.872686
    2      -14.782103
    3      -14.781602
    4      -14.687046
    5      -12.291140
    6      -12.215739
    7      -12.215213
    8      -12.137152
    9      -11.668218
   10      -11.596630
   11      -11.596239
   12      -11.522117
   13       -9.947127
   14       -9.894227
   15       -9.893064
   16       -9.840074
   17       -8.364173
   18       -8.323396
   19       -8.321295
   20       -8.277545
   21       -6.723984
   22       -6.679278
   23       -6.679074
   24       -6.633377
   25       -6.127795
   26       -6.085602
   27       -6.083496
   28       -6.040595
   29       -3.995809
   30       -3.969041
   31       -3.966497
   32       -3.938978
   33       -3.465268
   34       -2.809881
   35       -2.808624
   36       -2.806698
   37       -2.785605
   38       -2.784856
   39       -2.763217
   40       -2.033618
   41       -1.994760
   42       -1.978697
   43       -1.976695
   44       -1.960234
   45       -0.586547
   46       -0.574369
   47       -0.569601
   48       -0.558793
   49       -0.441381
   50        0.112725
   51        0.113797
   52        0.176226
   53        0.183870
   54        0.187365
   55        0.197307
   56        0.257273
   57        0.745298
   58        0.775979
   59        0.777000
   60        1.357303
   61        1.976455
   62        2.308387
   63        2.311127
   64        2.601255
   65        5.678344
   66        5.795044
   67        5.798766
   68        6.055383
   69        7.234807
   70        7.518577
   71        7.520315
   72        7.872717
   73        8.021281
   74        8.317066
   75        8.320371
   76        8.694622
   77        8.730692
   78       10.899227
   79       10.901913
   80       11.865623
   81       12.080277
   82       12.132064
   83       12.132768
   84       12.379966
 
  0.3333333E+00  0.1111111E+00  0.0000000E+00  0.6172840E-02
    1      -14.435211
    2      -14.347203
    3      -14.346681
    4      -14.254985
    5      -13.139350
    6      -13.058901
    7      -13.058385
    8      -12.974902
    9      -11.876587
   10      -11.803574
   11      -11.803190
   12      -11.727687
   13      -10.087611
   14      -10.027832
   15      -10.027125
   16       -9.965990
   17       -7.598117
   18       -7.557565
   19       -7.555635
   20       -7.514061
   21       -5.928161
   22       -5.891717
   23       -5.891162
   24       -5.854119
   25       -4.933592
   26       -4.905220
   27       -4.902508
   28       -4.873280
   29       -4.681805
   30       -4.646977
   31       -4.644646
   32       -4.609116
   33       -3.505162
   34       -3.482177
   35       -3.480647
   36       -3.456871
   37       -2.939484
   38       -2.297041
   39       -2.295755
   40       -1.827313
   41       -1.808051
   42       -1.803916
   43       -1.785091
   44       -1.578940
   45       -1.563644
   46       -1.561548
   47       -1.546104
   48       -1.538475
   49       -1.407854
   50       -0.811570
   51       -0.810454
   52       -0.446385
   53       -0.435345
   54       -0.431912
   55       -0.419876
   56       -0.118186
   57        0.051697
   58        0.591601
   59        0.592828
   60        1.206209
   61        1.991092
   62        2.399501
   63        2.401835
   64        2.819067
   65        5.724735
   66        5.912788
   67        5.915627
   68        6.155127
   69        7.737466
   70        7.973017
   71        7.974357
   72        8.231734
   73        9.276636
   74        9.580039
   75        9.821968
   76        9.825145
   77       10.136980
   78       10.896786
   79       11.379643
   80       11.382832
   81       12.254732
   82       12.276002
   83       12.277132
   84       12.493575
 
  0.4444444E+00  0.1111111E+00  0.0000000E+00  0.6172840E-02
    1      -13.857651
    2      -13.854809
    3      -13.774288
    4      -13.771589
    5      -13.770625
    6      -13.768832
    7      -13.684428
    8      -13.681548
    9      -11.947162
   10      -11.873583
   11      -11.873206
   12      -11.797397
   13      -10.141683
   14      -10.080682
   15      -10.080149
   16      -10.017370
   17       -7.095729
   18       -7.070623
   19       -7.068878
   20       -7.044546
   21       -5.464449
   22       -5.462128
   23       -5.449172
   24       -5.446502
   25       -5.441875
   26       -5.439560
   27       -5.428270
   28       -5.419788
   29       -3.926929
   30       -3.913344
   31       -3.910077
   32       -3.894745
   33       -3.228150
   34       -3.223893
   35       -3.201508
   36       -3.196545
   37       -3.195384
   38       -3.194581
   39       -3.169524
   40       -3.166261
   41       -2.250556
   42       -2.248158
   43       -1.627533
   44       -1.625405
   45       -1.624539
   46       -1.622276
   47       -1.053499
   48       -1.049723
   49       -1.039495
   50       -1.038544
   51       -1.036352
   52       -1.031555
   53       -1.023720
   54       -1.015563
   55       -0.894846
   56       -0.892203
   57       -0.018776
   58        0.527734
   59        0.529117
   60        1.152750
   61        1.986048
   62        2.423504
   63        2.425304
   64        2.895403
   65        5.759756
   66        5.979652
   67        5.981431
   68        6.211284
   69        7.950257
   70        8.150095
   71        8.151544
   72        8.351642
   73       10.001106
   74       10.002668
   75       11.156095
   76       11.159365
   77       11.288421
   78       11.296501
   79       11.296666
   80       11.301964
   81       11.573287
   82       11.576816
   83       12.058054
   84       12.065293
 
 -0.4444444E+00  0.1111111E+00  0.0000000E+00  0.6172840E-02
    1      -14.435958
    2      -14.347952
    3      -14.347448
    4      -14.255737
    5      -13.138174
    6      -13.057736
    7      -13.057201
    8      -12.973730
    9      -11.878375
   10      -11.805284
   11      -11.804904
   12      -11.729478
   13      -10.084652
   14      -10.024634
   15      -10.024170
   16       -9.962788
   17       -7.591417
   18       -7.550081
   19       -7.549805
   20       -7.507495
   21       -5.938053
   22       -5.902121
   23       -5.900126
   24       -5.863717
   25       -4.944187
   26       -4.915232
   27       -4.914137
   28       -4.884215
   29       -4.684357
   30       -4.649707
   31       -4.647035
   32       -4.611658
   33       -3.492475
   34       -3.470054
   35       -3.466820
   36       -3.443855
   37       -2.940294
   38       -2.297864
   39       -2.296567
   40       -1.825762
   41       -1.806175
   42       -1.803312
   43       -1.784011
   44       -1.576503
   45       -1.561391
   46       -1.558885
   47       -1.543538
   48       -1.539254
   49       -1.406663
   50       -0.810418
   51       -0.809284
   52       -0.447788
   53       -0.436289
   54       -0.434079
   55       -0.422324
   56       -0.117054
   57        0.049852
   58        0.589368
   59        0.590900
   60        1.203710
   61        1.993168
   62        2.403637
   63        2.404889
   64        2.825286
   65        5.724301
   66        5.914639
   67        5.915898
   68        6.155834
   69        7.733431
   70        7.969017
   71        7.971195
   72        8.229601
   73        9.275570
   74        9.579703
   75        9.820860
   76        9.824396
   77       10.135595
   78       10.898416
   79       11.378722
   80       11.381903
   81       12.252022
   82       12.273882
   83       12.275765
   84       12.490353
 
 -0.3333333E+00  0.1111111E+00  0.0000000E+00  0.6172840E-02
    1      -14.873216
    2      -14.782625
    3      -14.782137
    4      -14.687572
    5      -12.289747
    6      -12.214337
    7      -12.213802
    8      -12.135759
    9      -11.671924
   10      -11.600235
   11      -11.599831
   12      -11.525736
   13       -9.940380
   14       -9.886843
   15       -9.886411
   16       -9.832619
   17       -8.359559
   18       -8.317643
   19       -8.317345
   20       -8.272454
   21       -6.733930
   22       -6.689789
   23       -6.688247
   24       -6.643149
   25       -6.130275
   26       -6.088176
   27       -6.085882
   28       -6.043085
   29       -4.009636
   30       -3.981961
   31       -3.981427
   32       -3.952968
   33       -3.465855
   34       -2.810447
   35       -2.809146
   36       -2.790736
   37       -2.770489
   38       -2.767577
   39       -2.746916
   40       -2.034195
   41       -1.992838
   42       -1.976833
   43       -1.974640
   44       -1.958276
   45       -0.586952
   46       -0.575118
   47       -0.572565
   48       -0.561032
   49       -0.440069
   50        0.113960
   51        0.115081
   52        0.178435
   53        0.186559
   54        0.188093
   55        0.196624
   56        0.253695
   57        0.746539
   58        0.771489
   59        0.773182
   60        1.352253
   61        1.979739
   62        2.316068
   63        2.316802
   64        2.613040
   65        5.675664
   66        5.797720
   67        5.799366
   68        6.058613
   69        7.229916
   70        7.512510
   71        7.515341
   72        7.868027
   73        8.020506
   74        8.315667
   75        8.319343
   76        8.693042
   77        8.729896
   78       10.898435
   79       10.901119
   80       11.866292
   81       12.079080
   82       12.129961
   83       12.131178
   84       12.378099
 
 -0.2222222E+00  0.1111111E+00  0.0000000E+00  0.6172840E-02
    1      -15.165943
    2      -15.073600
    3      -15.073121
    4      -14.976675
    5      -11.332430
    6      -11.325385
    7      -11.263332
    8      -11.262857
    9      -11.256226
   10      -11.255781
   11      -11.191559
   12      -11.184418
   13       -9.892844
   14       -9.856671
   15       -9.856264
   16       -9.823775
   17       -8.842975
   18       -8.820975
   19       -8.820565
   20       -8.791470
   21       -7.514178
   22       -7.509081
   23       -7.465683
   24       -7.464282
   25       -7.460971
   26       -7.458834
   27       -7.414262
   28       -7.409223
   29       -3.819420
   30       -3.155837
   31       -3.154516
   32       -3.106077
   33       -3.083616
   34       -3.083225
   35       -3.060331
   36       -2.368638
   37       -2.279517
   38       -2.264667
   39       -2.262818
   40       -2.260804
   41       -2.248344
   42       -2.245515
   43       -2.243879
   44       -2.229144
   45        0.358671
   46        0.365950
   47        0.366465
   48        0.373343
   49        0.578759
   50        0.585748
   51        0.727379
   52        0.732659
   53        0.733175
   54        0.738816
   55        1.057371
   56        1.059258
   57        1.065551
   58        1.067044
   59        1.576049
   60        1.585579
   61        1.832705
   62        2.115367
   63        2.115727
   64        2.333732
   65        5.678821
   66        5.791114
   67        5.793198
   68        6.103527
   69        6.648487
   70        6.649707
   71        6.942397
   72        6.945576
   73        6.945770
   74        6.949568
   75        7.358928
   76        7.362039
   77        8.364349
   78       10.566436
   79       10.569124
   80       11.871919
   81       11.904480
   82       11.998103
   83       12.007439
   84       12.030541
 
 -0.1111111E+00  0.1111111E+00  0.0000000E+00  0.6172840E-02
    1      -15.312628
    2      -15.219395
    3      -15.218918
    4      -15.121517
    5      -10.872604
    6      -10.807849
    7      -10.807178
    8      -10.740779
    9      -10.322367
   10      -10.320211
   11      -10.267602
   12      -10.265343
   13      -10.265338
   14      -10.263228
   15      -10.210132
   16      -10.207908
   17       -8.708787
   18       -8.706911
   19       -8.664933
   20       -8.661644
   21       -8.661626
   22       -8.661368
   23       -8.614733
   24       -8.613032
   25       -8.195587
   26       -8.145737
   27       -8.144230
   28       -8.092401
   29       -3.996939
   30       -3.329466
   31       -3.328136
   32       -2.536939
   33       -2.427094
   34       -2.425134
   35       -2.410012
   36       -2.408489
   37       -2.408486
   38       -2.405515
   39       -2.391292
   40       -2.388496
   41       -2.111645
   42       -2.097104
   43       -2.094344
   44       -2.079717
   45        0.886621
   46        0.893030
   47        0.896004
   48        0.904650
   49        0.998732
   50        1.039009
   51        1.047570
   52        1.051326
   53        1.056260
   54        1.414361
   55        1.416599
   56        1.461481
   57        1.463565
   58        1.797034
   59        1.798265
   60        1.798313
   61        1.801390
   62        1.835119
   63        2.094279
   64        2.096287
   65        5.805757
   66        5.808154
   67        5.992377
   68        5.997713
   69        5.998143
   70        5.999349
   71        6.141301
   72        6.382086
   73        6.385012
   74        6.401241
   75        6.405026
   76        6.828122
   77        8.182382
   78       10.399868
   79       10.402572
   80       11.532954
   81       11.657635
   82       11.658692
   83       11.786869
   84       11.795832
 
 -0.1355253E-19  0.2222222E+00  0.0000000E+00  0.6172840E-02
    1      -15.092402
    2      -15.000517
    3      -15.000038
    4      -14.904035
    5      -11.872621
    6      -11.799662
    7      -11.799186
    8      -11.723884
    9      -10.674646
   10      -10.668344
   11      -10.611844
   12      -10.610279
   13      -10.604626
   14      -10.603830
   15      -10.545336
   16      -10.538634
   17       -8.026974
   18       -8.020022
   19       -7.978334
   20       -7.978153
   21       -7.970905
   22       -7.970014
   23       -7.927043
   24       -7.919931
   25       -6.865720
   26       -6.818920
   27       -6.818518
   28       -6.770847
   29       -3.730487
   30       -3.068996
   31       -3.067676
   32       -3.030352
   33       -3.015360
   34       -3.008641
   35       -3.006931
   36       -2.993916
   37       -2.991388
   38       -2.984760
   39       -2.969671
   40       -2.284411
   41       -1.914023
   42       -1.898680
   43       -1.898309
   44       -1.883027
   45        0.007922
   46        0.074550
   47        0.086750
   48        0.087002
   49        0.099388
   50        0.533088
   51        0.534018
   52        0.613594
   53        0.622610
   54        0.623086
   55        0.631907
   56        1.120537
   57        1.253383
   58        1.259012
   59        1.667607
   60        1.670170
   61        1.675511
   62        1.677501
   63        2.088392
   64        2.098783
   65        6.091061
   66        6.093198
   67        6.324847
   68        6.326661
   69        6.330706
   70        6.332539
   71        6.691183
   72        6.696209
   73        7.314675
   74        7.628403
   75        7.630589
   76        8.047198
   77        8.455686
   78       10.649222
   79       10.651905
   80       11.610076
   81       11.731569
   82       11.732149
   83       11.829453
   84       12.591000
 
  0.1111111E+00  0.2222222E+00  0.0000000E+00  0.6172840E-02
    1      -14.872680
    2      -14.782093
    3      -14.781602
    4      -14.687041
    5      -12.291101
    6      -12.215666
    7      -12.215209
    8      -12.137113
    9      -11.668245
   10      -11.596681
   11      -11.596242
   12      -11.522143
   13       -9.947118
   14       -9.894209
   15       -9.893064
   16       -9.840065
   17       -8.364236
   18       -8.323397
   19       -8.321448
   20       -8.277637
   21       -6.724965
   22       -6.681155
   23       -6.679099
   24       -6.634304
   25       -6.126814
   26       -6.083724
   27       -6.083478
   28       -6.039675
   29       -3.995717
   30       -3.968893
   31       -3.966497
   32       -3.938916
   33       -3.465282
   34       -2.809890
   35       -2.808602
   36       -2.805618
   37       -2.784857
   38       -2.783119
   39       -2.761813
   40       -2.033638
   41       -1.995867
   42       -1.979284
   43       -1.978697
   44       -1.961809
   45       -0.584492
   46       -0.572788
   47       -0.569600
   48       -0.558296
   49       -0.441760