    4    4  200    1
  0.9128901E+01  0.2467155E-09  0.2467155E-09  0.6927515E-09  0.5000000E-15
  1.000000000000000E-004
  CAR 
 graphite                                
     16    455     12
 
  0.0000000E+00  0.0000000E+00  0.0000000E+00  0.3858025E-03
    1      -15.198167
    2      -14.964606
    3       -3.970008
    4       -2.303204
    5        1.387669
    6        1.392367
    7        1.400873
    8        1.405560
    9        8.454473
   10       12.715922
   11       12.722934
   12       12.755027
 
  0.5555556E-01  0.0000000E+00  0.0000000E+00  0.1543210E-02
    1      -15.124711
    2      -14.892206
    3       -3.880927
    4       -2.219178
    5        1.090299
    6        1.109065
    7        1.230741
    8        1.247698
    9        8.544351
   10       12.748227
   11       12.800380
   12       13.036311
 
  0.1111111E+00  0.0000000E+00  0.0000000E+00  0.1543210E-02
    1      -14.904704
    2      -14.675335
    3       -3.614513
    4       -1.968460
    5        0.265627
    6        0.297419
    7        0.812488
    8        0.836157
    9        8.814576
   10       12.768501
   11       12.857246
   12       13.933911
 
  0.1666667E+00  0.1387779E-16  0.0000000E+00  0.1543210E-02
    1      -14.539177
    2      -14.315117
    3       -3.173459
    4       -1.554683
    5       -0.917249
    6       -0.869272
    7        0.251339
    8        0.280630
    9        9.265330
   10       12.673803
   11       12.819812
   12       13.583490
 
  0.2222222E+00  0.1387779E-16  0.0000000E+00  0.1543210E-02
    1      -14.030083
    2      -13.813387
    3       -2.563067
    4       -2.300611
    5       -2.235045
    6       -0.985731
    7       -0.344246
    8       -0.310724
    9        9.894465
   10       12.160232
   11       12.471188
   12       12.667520
 
  0.2777778E+00 -0.2775558E-16  0.0000000E+00  0.1543210E-02
    1      -13.380546
    2      -13.173283
    3       -3.769306
    4       -3.685845
    5       -1.792810
    6       -0.898243
    7       -0.861924
    8       -0.276263
    9       10.578972
   10       10.694675
   11       11.178394
   12       12.225724
 
  0.3333333E+00  0.2775558E-16  0.0000000E+00  0.1543210E-02
    1      -12.595794
    2      -12.400075
    3       -5.246677
    4       -5.145243
    5       -1.363670
    6       -1.325259
    7       -0.881342
    8        0.543652
    9        8.964599
   10        9.712207
   11       11.615253
   12       12.008999
 
  0.3888889E+00  0.0000000E+00  0.0000000E+00  0.1543210E-02
    1      -11.685451
    2      -11.503175
    3       -6.676606
    4       -6.558841
    5       -1.711834
    6       -1.672116
    7        0.131758
    8        1.402131
    9        7.458843
   10        8.297272
   11       11.778817
   12       12.049083
 
  0.4444444E+00  0.2775558E-16  0.0000000E+00  0.1543210E-02
    1      -10.678066
    2      -10.515987
    3       -7.999085
    4       -7.871940
    5       -1.926321
    6       -1.885858
    7        1.137129
    8        2.097429
    9        6.306615
   10        7.086288
   11       11.665790
   12       11.969481
 
  0.5000000E+00  0.5551115E-16  0.0000000E+00  0.7716049E-03
    1       -9.891723
    2       -9.805740
    3       -8.824351
    4       -8.759171
    5       -1.998623
    6       -1.958098
    7        1.711964
    8        2.288530
    9        5.903027
   10        6.497659
   11       11.625721
   12       11.937020
 
  0.5555556E-01  0.5555556E-01  0.0000000E+00  0.7716049E-03
    1      -14.977945
    2      -14.747561
    3       -3.703168
    4       -2.051774
    5        0.559781
    6        0.578532
    7        0.918371
    8        0.933302
    9        8.724567
   10       12.851555
   11       12.919782
   12       13.547104
 
  0.1111111E+00  0.5555556E-01  0.0000000E+00  0.1543210E-02
    1      -14.685161
    2      -14.459013
    3       -3.349359
    4       -1.719349
    5       -0.391303
    6       -0.358795
    7        0.374412
    8        0.397285
    9        9.085790
   10       12.944313
   11       13.054643
   12       14.058637
 
  0.1666667E+00  0.5555556E-01  0.0000000E+00  0.1543210E-02
    1      -14.247823
    2      -14.028023
    3       -2.823359
    4       -1.634063
    5       -1.581756
    6       -1.227509
    7       -0.248882
    8       -0.217226
    9        9.627222
   10       12.787572
   11       12.863643
   12       13.035769
 
  0.2222222E+00  0.5555556E-01  0.0000000E+00  0.1543210E-02
    1      -13.668508
    2      -13.457091
    3       -3.034809
    4       -2.962915
    5       -2.132235
    6       -0.851948
    7       -0.814384
    8       -0.586881
    9       10.345196
   10       11.306865
   11       11.797823
   12       12.659349
 
  0.2777778E+00  0.5555556E-01  0.0000000E+00  0.1543210E-02
    1      -12.951177
    2      -12.750152
    3       -4.493158
    4       -4.402420
    5       -1.377671
    6       -1.336619
    7       -1.289157
    8        0.182214
    9        9.723993
   10       10.370458
   11       11.228672
   12       12.425637
 
  0.3333333E+00  0.5555556E-01  0.0000000E+00  0.1543210E-02
    1      -12.103008
    2      -11.914423
    3       -5.939270
    4       -5.831055
    5       -1.793263
    6       -1.749853
    7       -0.320273
    8        1.035023
    9        8.164338
   10        8.939475
   11       12.111522
   12       12.292943
 
  0.3888889E+00  0.5555556E-01  0.0000000E+00  0.1543210E-02
    1      -11.139029
    2      -10.966122
    3       -7.317620
    4       -7.194338
    5       -2.079099
    6       -2.034272
    7        0.711544
    8        1.853679
    9        6.803386
   10        7.614281
   11       12.037635
   12       12.336170
 
  0.4444444E+00  0.5555556E-01  0.0000000E+00  0.1543210E-02
    1      -10.134776
    2       -9.997201
    3       -8.512599
    4       -8.397410
    5       -2.224626
    6       -2.179003
    7        1.602318
    8        2.324252
    9        5.991374
   10        6.630566
   11       11.959269
   12       12.277090
 
  0.5000000E+00  0.5555556E-01  0.0000000E+00  0.1543210E-02
    1      -10.134950
    2       -9.997362
    3       -8.512423
    4       -8.397220
    5       -2.224660
    6       -2.179039
    7        1.602264
    8        2.324254
    9        5.991379
   10        6.630561
   11       11.959351
   12       12.277180
 
 -0.4444444E+00  0.5555556E-01  0.0000000E+00  0.1543210E-02
    1      -11.139224
    2      -10.966315
    3       -7.317386
    4       -7.194104
    5       -2.079196
    6       -2.034370
    7        0.711454
    8        1.853644
    9        6.803386
   10        7.614241
   11       12.037890
   12       12.336446
 
 -0.3888889E+00  0.5555556E-01  0.0000000E+00  0.1543210E-02
    1      -12.103183
    2      -11.914597
    3       -5.939049
    4       -5.830839
    5       -1.793394
    6       -1.749988
    7       -0.320367
    8        1.034969
    9        8.164292
   10        8.939375
   11       12.111821
   12       12.293188
 
 -0.3333333E+00  0.5555556E-01  0.0000000E+00  0.1543210E-02
    1      -12.951327
    2      -12.750302
    3       -4.493004
    4       -4.402277
    5       -1.377774
    6       -1.336732
    7       -1.289246
    8        0.182155
    9        9.723868
   10       10.370281
   11       11.228544
   12       12.426259
 
 -0.2777778E+00  0.5555556E-01  0.0000000E+00  0.1543210E-02
    1      -13.668632
    2      -13.457214
    3       -3.034828
    4       -2.962959
    5       -2.132314
    6       -0.851891
    7       -0.814351
    8       -0.586937
    9       10.345072
   10       11.306639
   11       11.797567
   12       12.660276
 
 -0.2222222E+00  0.5555556E-01  0.0000000E+00  0.1543210E-02
    1      -14.247919
    2      -14.028119
    3       -2.823423
    4       -1.634490
    5       -1.582238
    6       -1.227556
    7       -0.248388
    8       -0.216788
    9        9.627122
   10       12.790819
   11       12.863718
   12       13.036425
 
 -0.1666667E+00  0.5555556E-01  0.0000000E+00  0.1543210E-02
    1      -14.685230
    2      -14.459082
    3       -3.349406
    4       -1.719385
    5       -0.392647
    6       -0.360243
    7        0.375899
    8        0.398663
    9        9.085717
   10       12.946466
   11       13.056890
   12       14.051682
 
 -0.1111111E+00  0.5555556E-01  0.0000000E+00  0.1543210E-02
    1      -14.977987
    2      -14.747602
    3       -3.703197
    4       -2.051796
    5        0.556723
    6        0.575481
    7        0.921488
    8        0.936414
    9        8.724522
   10       12.854702
   11       12.922967
   12       13.546591
 
 -0.5555556E-01  0.5555556E-01  0.0000000E+00  0.7716049E-03
    1      -15.124725
    2      -14.892220
    3       -3.880937
    4       -2.219186
    5        1.086882
    6        1.105660
    7        1.234185
    8        1.251141
    9        8.544336
   10       12.751291
   11       12.801926
   12       13.066488
 
  0.1111111E+00  0.1111111E+00  0.0000000E+00  0.7716049E-03
    1      -14.320545
    2      -14.099718
    3       -2.910438
    4       -1.308543
    5       -1.290130
    6       -1.260454
    7       -0.328488
    8       -0.307714
    9        9.538830
   10       13.030060
   11       13.348534
   12       13.405316
 
  0.1666667E+00  0.1111111E+00  0.0000000E+00  0.1543210E-02
    1      -13.812990
    2      -13.599529
    3       -2.435912
    4       -2.388063
    5       -2.303021
    6       -1.074205
    7       -1.042172
    8       -0.743587
    9       10.171365
   10       11.762166
   11       12.131489
   12       13.525657
 
  0.2222222E+00  0.1111111E+00  0.0000000E+00  0.1543210E-02
    1      -13.165785
    2      -12.961678
    3       -3.760431
    4       -3.688037
    5       -1.720659
    6       -1.676513
    7       -1.536577
    8       -0.038588
    9       10.323745
   10       10.813939
   11       10.978382
   12       13.401103
 
  0.2777778E+00  0.1111111E+00  0.0000000E+00  0.1543210E-02
    1      -12.384450
    2      -12.191729
    3       -5.155122
    4       -5.061174
    5       -2.233202
    6       -2.182080
    7       -0.628786
    8        0.778111
    9        8.818207
   10        9.448566
   11       11.948758
   12       13.199662
 
  0.3333333E+00  0.1111111E+00  0.0000000E+00  0.1543210E-02
    1      -11.479375
    2      -11.300067
    3       -6.537169
    4       -6.424899
    5       -2.604481
    6       -2.549471
    7        0.382167
    8        1.639323
    9        7.381323
   10        8.112347
   11       12.929864
   12       13.108480
 
  0.3888889E+00  0.1111111E+00  0.0000000E+00  0.1543210E-02
    1      -10.479767
    2      -10.320688
    3       -7.830723
    4       -7.707637
    5       -2.829596
    6       -2.772481
    7        1.391925
    8        2.350148
    9        6.259451
   10        6.939288
   11       12.879165
   12       13.222140
 
  0.4444444E+00  0.1111111E+00  0.0000000E+00  0.1543210E-02
    1       -9.703287
    2       -9.618877
    3       -8.641172
    4       -8.578777
    5       -2.904889
    6       -2.847237
    7        1.978546
    8        2.550195
    9        5.877371
   10        6.337654
   11       12.839249
   12       13.194305
 
  0.5000000E+00  0.1111111E+00  0.0000000E+00  0.1543210E-02
    1      -10.480158
    2      -10.321071
    3       -7.830289
    4       -7.707199
    5       -2.829696
    6       -2.772583
    7        1.391773
    8        2.350121
    9        6.259442
   10        6.939236
   11       12.879476
   12       13.222495
 
 -0.4444444E+00  0.1111111E+00  0.0000000E+00  0.1543210E-02
    1      -11.479745
    2      -11.300435
    3       -6.536733
    4       -6.424471
    5       -2.604639
    6       -2.549636
    7        0.381986
    8        1.639237
    9        7.381242
   10        8.112188
   11       12.930267
   12       13.108469
 
 -0.3888889E+00  0.1111111E+00  0.0000000E+00  0.1543210E-02
    1      -12.384774
    2      -12.192052
    3       -5.154803
    4       -5.060876
    5       -2.233307
    6       -2.182205
    7       -0.628967
    8        0.778002
    9        8.817980
   10        9.448266
   11       11.948439
   12       13.200644
 
 -0.3333333E+00  0.1111111E+00  0.0000000E+00  0.1543210E-02
    1      -13.166058
    2      -12.961950
    3       -3.760446
    4       -3.688100
    5       -1.720460
    6       -1.676361
    7       -1.536743
    8       -0.038700
    9       10.323314
   10       10.813494
   11       10.978090
   12       13.402701
 
 -0.2777778E+00  0.1111111E+00  0.0000000E+00  0.1543210E-02
    1      -13.813210
    2      -13.599748
    3       -2.436718
    4       -2.388947
    5       -2.303162
    6       -1.073205
    7       -1.041252
    8       -0.743687
    9       10.171128
   10       11.761510
   11       12.130932
   12       13.529038
 
 -0.2222222E+00  0.1111111E+00  0.0000000E+00  0.1543210E-02
    1      -14.320710
    2      -14.099882
    3       -2.910548
    4       -1.308625
    5       -1.292309
    6       -1.262622
    7       -0.326180
    8       -0.305404
    9        9.538650
   10       13.029205
   11       13.359872
   12       13.468681
 
 -0.1666667E+00  0.1111111E+00  0.0000000E+00  0.1543210E-02
    1      -14.685271
    2      -14.459123
    3       -3.349435
    4       -1.719406
    5       -0.394537
    6       -0.362007
    7        0.377798
    8        0.400683
    9        9.085668
   10       12.948565
   11       13.058890
   12       14.044090
 
 -0.1111111E+00  0.1111111E+00  0.0000000E+00  0.7716049E-03
    1      -14.904759
    2      -14.675390
    3       -3.614551
    4       -1.968490
    5        0.262402
    6        0.294204
    7        0.815845
    8        0.839514
    9        8.814513
   10       12.771608
   11       12.860323
   12       13.923707
 
  0.1666667E+00  0.1666667E+00  0.0000000E+00  0.7716049E-03
    1      -13.237533
    2      -13.032406
    3       -3.352252
    4       -3.311282
    5       -1.992282
    6       -1.962471
    7       -1.619420
    8       -0.112835
    9       10.570357
   10       10.893015
   11       10.961799
   12       14.320294
 
  0.2222222E+00  0.1666667E+00  0.0000000E+00  0.1543210E-02
    1      -12.526066
    2      -12.331158
    3       -4.474343
    4       -4.410752
    5       -2.762736
    6       -2.717329
    7       -0.785100
    8        0.646302
    9        9.252663
   10        9.716039
   11       11.784740
   12       14.515049
 
  0.2777778E+00  0.1666667E+00  0.0000000E+00  0.1543210E-02
    1      -11.686591
    2      -11.504089
    3       -5.741519
    4       -5.649533
    5       -3.302798
    6       -3.242302
    7        0.175953
    8        1.495339
    9        7.886623
   10        8.457609
   11       12.834026
   12       14.368642
 
  0.3333333E+00  0.1666667E+00  0.0000000E+00  0.1543210E-02
    1      -10.735725
    2      -10.568922
    3       -7.024897
    4       -6.912750
    5       -3.643157
    6       -3.575263
    7        1.207637
    8        2.332021
    9        6.630657
   10        7.255298
   11       13.986131
   12       14.241749
 
  0.3888889E+00  0.1666667E+00  0.0000000E+00  0.1543210E-02
    1       -9.750226
    2       -9.618118
    3       -8.168060
    4       -8.061188
    5       -3.809179
    6       -3.738204
    7        2.121354
    8        2.842448
    9        5.865133
   10        6.286222
   11       14.113591
   12       14.556853
 
  0.4444444E+00  0.1666667E+00  0.0000000E+00  0.1543210E-02
    1       -9.750728
    2       -9.618556
    3       -8.167568
    4       -8.060658
    5       -3.809111
    6       -3.738247
    7        2.121208
    8        2.842469
    9        5.865090
   10        6.286180
   11       14.113805
   12       14.557137
 
  0.5000000E+00  0.1666667E+00  0.0000000E+00  0.1543210E-02
    1      -10.736300
    2      -10.569492
    3       -7.024293
    4       -6.912156
    5       -3.643230
    6       -3.575350
    7        1.207399
    8        2.331949
    9        6.630507
   10        7.255107
   11       13.985538
   12       14.241469
 
 -0.4444444E+00  0.1666667E+00  0.0000000E+00  0.1543210E-02
    1      -11.687111
    2      -11.504607
    3       -5.741109
    4       -5.649159
    5       -3.302727
    6       -3.242269
    7        0.175696
    8        1.495208
    9        7.886259
   10        8.457232
   11       12.833431
   12       14.369779
 
 -0.3888889E+00  0.1666667E+00  0.0000000E+00  0.1543210E-02
    1      -12.526514
    2      -12.331604
    3       -4.474531
    4       -4.411006
    5       -2.762106
    6       -2.716769
    7       -0.785348
    8        0.646149
    9        9.251992
   10        9.715479
   11       11.784225
   12       14.517655
 
 -0.3333333E+00  0.1666667E+00  0.0000000E+00  0.1543210E-02
    1      -13.237901
    2      -13.032774
    3       -3.353604
    4       -3.312616
    5       -1.990610
    6       -1.960788
    7       -1.619641
    8       -0.112984
    9       10.569356
   10       10.892598
   11       10.961085
   12       14.325434
 
 -0.2777778E+00  0.1666667E+00  0.0000000E+00  0.1543210E-02
    1      -13.813278
    2      -13.599816
    3       -2.438253
    4       -2.390363
    5       -2.303203
    6       -1.071564
    7       -1.039499
    8       -0.743716
    9       10.171044
   10       11.760945
   11       12.130663
   12       13.531213
 
 -0.2222222E+00  0.1666667E+00  0.0000000E+00  0.1543210E-02
    1      -14.248029
    2      -14.028228
    3       -2.823495
    4       -1.636892
    5       -1.584581
    6       -1.227608
    7       -0.245695
    8       -0.214045
    9        9.626992
   10       12.785732
   11       12.867133
   12       13.039492
 
 -0.1666667E+00  0.1666667E+00  0.0000000E+00  0.7716049E-03
    1      -14.539301
    2      -14.315240
    3       -3.173542
    4       -1.554745
    5       -0.920192
    6       -0.872206
    7        0.254593
    8        0.283885
    9        9.265188
   10       12.677364
   11       12.823326
   12       13.607274
 
  0.2222222E+00  0.2222222E+00  0.0000000E+00  0.7716049E-03
    1      -11.756330
    2      -11.572589
    3       -5.269036
    4       -5.217006
    5       -3.726251
    6       -3.687071
    7        0.105909
    8        1.444899
    9        8.104375
   10        8.569954
   11       12.751391
   12       15.629790
 
  0.2777778E+00  0.2222222E+00  0.0000000E+00  0.1543210E-02
    1      -10.867832
    2      -10.697953
    3       -6.281460
    4       -6.202589
    5       -4.393735
    6       -4.335104
    7        1.104963
    8        2.307679
    9        6.919384
   10        7.436512
   11       13.857621
   12       15.687019
 
  0.3333333E+00  0.2222222E+00  0.0000000E+00  0.1543210E-02
    1       -9.893257
    2       -9.743428
    3       -7.403975
    4       -7.300432
    5       -4.743078
    6       -4.668345
    7        2.128734
    8        3.079488
    9        5.889725
   10        6.382577
   11       15.050075
   12       15.558814
 
  0.3888889E+00  0.2222222E+00  0.0000000E+00  0.1543210E-02
    1       -9.138870
    2       -9.059076
    3       -8.155238
    4       -8.109192
    5       -4.849868
    6       -4.770782
    7        2.769694
    8        3.323977
    9        5.630228
   10        5.657603
   11       15.478270
   12       16.126089
 
  0.4444444E+00  0.2222222E+00  0.0000000E+00  0.1543210E-02
    1       -9.894013
    2       -9.744169
    3       -7.403305
    4       -7.299771
    5       -4.742982
    6       -4.668275
    7        2.128500
    8        3.079502
    9        5.889455
   10        6.382394
   11       15.049138
   12       15.558939
 
  0.5000000E+00  0.2222222E+00  0.0000000E+00  0.1543210E-02
    1      -10.868558
    2      -10.698675
    3       -6.281150
    4       -6.202329
    5       -4.393255
    6       -4.334687
    7        1.104670
    8        2.307583
    9        6.918823
   10        7.436104
   11       13.856687
   12       15.688112
 
 -0.4444444E+00  0.2222222E+00  0.0000000E+00  0.1543210E-02
    1      -11.756972
    2      -11.573229
    3       -5.269693
    4       -5.217636
    5       -3.724937
    6       -3.685745
    7        0.105603
    8        1.444743
    9        8.103430
   10        8.569335
   11       12.750607
   12       15.635083
 
 -0.3888889E+00  0.2222222E+00  0.0000000E+00  0.1543210E-02
    1      -12.526608
    2      -12.331829
    3       -4.475922
    4       -4.412261
    5       -2.760608
    6       -2.715148
    7       -0.785391
    8        0.646126
    9        9.251360
   10        9.715202
   11       11.784105
   12       14.521118
 
 -0.3333333E+00  0.2222222E+00  0.0000000E+00  0.1543210E-02
    1      -13.166222
    2      -12.962114
    3       -3.762494
    4       -3.690086
    5       -1.717989
    6       -1.673836
    7       -1.536831
    8       -0.038756
    9       10.322216
   10       10.812910
   11       10.977890
   12       13.406355
 
 -0.2777778E+00  0.2222222E+00  0.0000000E+00  0.1543210E-02
    1      -13.668837
    2      -13.457418
    3       -3.037223
    4       -2.965325
    5       -2.132436
    6       -0.848919
    7       -0.811359
    8       -0.587021
    9       10.344832
   10       11.305282
   11       11.796735
   12       12.663929
 
 -0.2222222E+00  0.2222222E+00  0.0000000E+00  0.7716049E-03
    1      -14.030302
    2      -13.813606
    3       -2.563206
    4       -2.303242
    5       -2.237667
    6       -0.985831
    7       -0.341065
    8       -0.307542
    9        9.894215
   10       12.158811
   11       12.475037
   12       12.678209
 
  0.2777778E+00  0.2777778E+00  0.0000000E+00  0.7716049E-03
    1       -9.948852
    2       -9.795668
    3       -6.904044
    4       -6.841233
    5       -5.262077
    6       -5.218188
    7        2.120172
    8        3.162734
    9        5.914308
   10        6.437167
   11       14.975089
   12       15.787097
 
  0.3333333E+00  0.2777778E+00  0.0000000E+00  0.1543210E-02
    1       -9.002465
    2       -8.880050
    3       -7.721432
    4       -7.645786
    5       -5.700224
    6       -5.640418
    7        3.100010
    8        3.834864
    9        5.096579
   10        5.545025
   11       15.586306
   12       15.700548
 
  0.3888889E+00  0.2777778E+00  0.0000000E+00  0.1543210E-02
    1       -9.003260
    2       -8.880788
    3       -7.720930
    4       -7.645252
    5       -5.699935
    6       -5.640161
    7        3.099891
    8        3.835047
    9        5.096192
   10        5.544865
   11       15.586995
   12       15.700429
 
  0.4444444E+00  0.2777778E+00  0.0000000E+00  0.1543210E-02
    1       -9.949768
    2       -9.796573
    3       -6.904141
    4       -6.841295
    5       -5.261017
    6       -5.217110
    7        2.119938
    8        3.162787
    9        5.913513
   10        6.436719
   11       14.973757
   12       15.788013
 
  0.5000000E+00  0.2777778E+00  0.0000000E+00  0.1543210E-02
    1      -10.868678
    2      -10.698936
    3       -6.282385
    4       -6.203435
    5       -4.391914
    6       -4.333226
    7        1.104661
    8        2.307600
    9        6.918189
   10        7.435808
   11       13.856527
   12       15.692540
 
 -0.4444444E+00  0.2777778E+00  0.0000000E+00  0.1543210E-02
    1      -11.687326
    2      -11.504822
    3       -5.742891
    4       -5.650884
    5       -3.300484
    6       -3.239976
    7        0.175632
    8        1.495190
    9        7.885105
   10        8.456622
   11       12.833157
   12       14.374073
 
 -0.3888889E+00  0.2777778E+00  0.0000000E+00  0.1543210E-02
    1      -12.385058
    2      -12.192336
    3       -5.156852
    4       -5.062895
    5       -2.230539
    6       -2.179417
    7       -0.629090
    8        0.777938
    9        8.816478
   10        9.447341
   11       11.948110
   12       13.204736
 
 -0.3333333E+00  0.2777778E+00  0.0000000E+00  0.1543210E-02
    1      -12.951654
    2      -12.750628
    3       -4.495206
    4       -4.404463
    5       -1.374710
    6       -1.333660
    7       -1.289416
    8        0.182050
    9        9.722178
   10       10.369134
   11       11.228201
   12       12.430211
 
 -0.2777778E+00  0.2777778E+00  0.0000000E+00  0.7716049E-03
    1      -13.380888
    2      -13.173624
    3       -3.771619
    4       -3.688149
    5       -1.793007
    6       -0.895104
    7       -0.858785
    8       -0.276394
    9       10.577249
   10       10.694312
   11       11.177183
   12       12.229811
 
  0.3333333E+00  0.3333333E+00  0.0000000E+00  0.7716049E-03
    1       -8.237697
    2       -8.163801
    3       -8.163694
    4       -8.093037
    5       -6.111015
    6       -6.110931
    7        3.869980
    8        4.382945
    9        4.383461
   10        4.984137
   11       15.424891
   12       15.425427
 
  0.3888889E+00  0.3333333E+00  0.0000000E+00  0.1543210E-02
    1       -9.003414
    2       -8.880963
    3       -7.721853
    4       -7.646117
    5       -5.698850
    6       -5.638965
    7        3.100106
    8        3.835122
    9        5.095639
   10        5.544372
   11       15.587259
   12       15.701662
 
  0.4444444E+00  0.3333333E+00  0.0000000E+00  0.1543210E-02
    1       -9.894272
    2       -9.744433
    3       -7.404808
    4       -7.301228
    5       -4.741046
    6       -4.666293
    7        2.128607
    8        3.079597
    9        5.888295
   10        6.381699
   11       15.048799
   12       15.563641
 
  0.5000000E+00  0.3333333E+00  0.0000000E+00  0.1543210E-02
    1      -10.736656
    2      -10.569850
    3       -7.026035
    4       -6.913872
    5       -3.640764
    6       -3.572865
    7        1.207390
    8        2.331994
    9        6.628948
   10        7.254116
   11       13.985574
   12       14.245689
 
 -0.4444444E+00  0.3333333E+00  0.0000000E+00  0.1543210E-02
    1      -11.480173
    2      -11.300864
    3       -6.538603
    4       -6.426324
    5       -2.601790
    6       -2.546780
    7        0.381876
    8        1.639214
    9        7.379440
   10        8.110925
   11       12.932501
   12       13.111303
 
 -0.3888889E+00  0.3333333E+00  0.0000000E+00  0.1543210E-02
    1      -12.103655
    2      -11.915069
    3       -5.940999
    4       -5.832777
    5       -1.790311
    6       -1.746903
    7       -0.320555
    8        1.034881
    9        8.162368
   10        8.937943
   11       12.113941
   12       12.296302
 
 -0.3333333E+00  0.3333333E+00  0.0000000E+00  0.7716049E-03
    1      -12.596282
    2      -12.400562
    3       -5.248681
    4       -5.147239
    5       -1.360552
    6       -1.322142
    7       -0.881580
    8        0.543515
    9        8.962666
   10        9.710748
   11       11.615296
   12       12.013053
 
  0.3888889E+00  0.3888889E+00  0.0000000E+00  0.7716049E-03
    1       -9.139510
    2       -9.059760
    3       -8.156416
    4       -8.110358
    5       -4.847798
    6       -4.768692
    7        2.770075
    8        3.323940
    9        5.628877
   10        5.656485
   11       15.482786
   12       16.129378
 
  0.4444444E+00  0.3888889E+00  0.0000000E+00  0.1543210E-02
    1       -9.751244
    2       -9.619095
    3       -8.169116
    4       -8.062204
    5       -3.806612
    6       -3.735741
    7        2.121452
    8        2.842489
    9        5.863329
   10        6.284730
   11       14.118428
   12       14.561736
 
  0.5000000E+00  0.3888889E+00  0.0000000E+00  0.1543210E-02
    1      -10.480744
    2      -10.321661
    3       -7.831935
    4       -7.708833
    5       -2.826854
    6       -2.769738
    7        1.391810
    8        2.350164
    9        6.257425
   10        6.937595
   11       12.883876
   12       13.226868
 
 -0.4444444E+00  0.3888889E+00  0.0000000E+00  0.1543210E-02
    1      -11.139860
    2      -10.966952
    3       -7.319077
    4       -7.195785
    5       -2.076127
    6       -2.031301
    7        0.711337
    8        1.853633
    9        6.801276
   10        7.612517
   11       12.042095
   12       12.340611
 
 -0.3888889E+00  0.3888889E+00  0.0000000E+00  0.7716049E-03
    1      -11.686107
    2      -11.503831
    3       -6.678322
    4       -6.560549
    5       -1.708724
    6       -1.669007
    7        0.131536
    8        1.402047
    9        7.456754
   10        8.295579
   11       11.782982
   12       12.053141
 
  0.4444444E+00  0.4444444E+00  0.0000000E+00  0.7716049E-03
    1       -9.704107
    2       -9.619745
    3       -8.642509
    4       -8.580119
    5       -2.902090
    6       -2.844437
    7        1.978848
    8        2.550083
    9        5.875424
   10        6.335634
   11       12.843837
   12       13.198921
 
  0.5000000E+00  0.4444444E+00  0.0000000E+00  0.1543210E-02
    1      -10.135740
    2       -9.998164
    3       -8.513894
    4       -8.398683
    5       -2.221620
    6       -2.175999
    7        1.602423
    8        2.324214
    9        5.989237
   10        6.628442
   11       11.963707
   12       12.281541
 
 -0.4444444E+00  0.4444444E+00  0.0000000E+00  0.7716049E-03
    1      -10.678895
    2      -10.516817
    3       -8.000556
    4       -7.873400
    5       -1.923212
    6       -1.882751
    7        1.137072
    8        2.097431
    9        6.304407
   10        7.084290
   11       11.670090
   12       11.973780
 
  0.5000000E+00  0.5000000E+00  0.0000000E+00  0.3858025E-03
    1       -9.892603
    2       -9.806669
    3       -8.825713
    4       -8.760540
    5       -1.995515
    6       -1.954992
    7        1.712236
    8        2.288387
    9        5.900904
   10        6.495336
   11       11.630045
   12       11.941350
 