32   
4    

1    
  0.0033549724308325  -0.0000001512158470   0.0094204118787603
  -0.2103992900    0.0040925000   -0.1352318500
   0.0323658100    0.0031261300   -0.0054678000
  -0.0027389900   -0.0171417600   -0.0054049100
  -0.0028435200    0.0234560100   -0.0055429800
  -0.0066156600    0.0031609500    0.0017039300
  -0.0066006100    0.0031633400    0.0017223100
  -0.0066076100    0.0031562100    0.0017226400
  -0.0066060400    0.0031651100    0.0017221500
   0.0050797900   -0.0030999500   -0.0017169900
   0.0049539200   -0.0031815500   -0.0017607800
   0.0050864700   -0.0030342600   -0.0017395300
   0.0049292800   -0.0031147200   -0.0012215000
   0.0057131800   -0.0029091500   -0.0017314600
   0.0058243500   -0.0029883800   -0.0016900900
   0.0058385500   -0.0030461200   -0.0017109200
   0.0056817600   -0.0029855300   -0.0011254800
   0.0030252800   -0.0027219600    0.0119805000
   0.0296573900   -0.0033477400    0.0475614800
   0.0736973000    0.0226593500    0.0479639000
   0.0739960100   -0.0283669400    0.0471093000
   0.0057416800   -0.0026776000   -0.0002030300
   0.0057410300   -0.0026775600   -0.0001914200
   0.0057429500   -0.0026761100   -0.0001915100
   0.0057399600   -0.0026751600   -0.0001917900
  -0.0045712800    0.0027078800    0.0005452900
  -0.0042309000    0.0027955100    0.0005736700
  -0.0044776900    0.0024663000    0.0005644600
  -0.0043354300    0.0026554800    0.0000449500
  -0.0045572200    0.0023867200    0.0006180200
  -0.0048313600    0.0024748600    0.0005903300
  -0.0047696900    0.0026691300    0.0005974600
  -0.0046294500    0.0025090100    0.0001016700

1    
 -0.0033549724308325   0.0000001512158470  -0.0094204118787603
   0.1993391800    0.0039990900    0.1352380000
  -0.0434646900    0.0031172400    0.0055056300
  -0.0082565200    0.0234492800    0.0055673400
  -0.0083482500   -0.0171565500    0.0054569400
  -0.0041132200    0.0031823300   -0.0017332300
  -0.0041262200    0.0031813100   -0.0017505400
  -0.0041197500    0.0031841400   -0.0017497800
  -0.0041226200    0.0031803000   -0.0017508200
   0.0051254400   -0.0033481700    0.0016396400
   0.0052419600   -0.0032671200    0.0016809400
   0.0051124800   -0.0034102900    0.0016592800
   0.0052683100   -0.0033387800    0.0010761600
   0.0060044200   -0.0033137100    0.0018126200
   0.0058799400   -0.0032348600    0.0017686700
   0.0058752400   -0.0031626600    0.0017907700
   0.0060268900   -0.0032300700    0.0012752600
   0.0063984600   -0.0026331700   -0.0119584100
  -0.0202028000   -0.0032386300   -0.0475367300
  -0.0645220500   -0.0282599300   -0.0471230700
  -0.0643126300    0.0227925500   -0.0478997300
   0.0032568600   -0.0026765600    0.0001754800
   0.0032529200   -0.0026746000    0.0001647300
   0.0032529700   -0.0026764400    0.0001643800
   0.0032551700   -0.0026758400    0.0001645900
  -0.0043920500    0.0027824200   -0.0006327000
  -0.0046693400    0.0026961000   -0.0006578000
  -0.0044569600    0.0029797000   -0.0006503500
  -0.0045991500    0.0028231800   -0.0001428600
  -0.0050667900    0.0028732600   -0.0005353700
  -0.0047307500    0.0027889300   -0.0005027500
  -0.0048244400    0.0025352800   -0.0005117200
  -0.0049619900    0.0027322700   -0.0000045500

17   
  0.0033549724308325  -0.0000001512158470   0.0094204118787603
  -0.0078231600    0.0031865700    0.0106280200
   0.0187841400    0.0037953700    0.0461936700
   0.0631131300    0.0288165600    0.0457731900
   0.0629069300   -0.0222474800    0.0465665700
  -0.0038776200    0.0031752200   -0.0016451500
  -0.0038781700    0.0031772400   -0.0016338600
  -0.0038793400    0.0031759300   -0.0016359800
  -0.0038759400    0.0031740700   -0.0016319000
   0.0053823900   -0.0031093600    0.0019713600
   0.0054631500   -0.0029980600    0.0020745100
   0.0053273400   -0.0031019300    0.0020216800
   0.0054838200   -0.0030638400    0.0015097300
   0.0058431800   -0.0030442600    0.0019982200
   0.0057623800   -0.0029817800    0.0018907600
   0.0057499600   -0.0029623500    0.0019436600
   0.0058682900   -0.0029982000    0.0014401500
  -0.1979065000   -0.0036026600   -0.1358263900
   0.0446752200   -0.0027186300   -0.0072491000
   0.0099152700   -0.0227960800   -0.0073087700
   0.0100106000    0.0172956000   -0.0072047400
   0.0029961300   -0.0026695200    0.0002888000
   0.0029959000   -0.0026707800    0.0001989700
   0.0029968000   -0.0026696600    0.0001989000
   0.0029944500   -0.0026704800    0.0001991700
  -0.0057876700    0.0026686300   -0.0000932000
  -0.0054979100    0.0026881000    0.0000398000
  -0.0056590800    0.0024273800   -0.0000404800
  -0.0056500900    0.0025883000   -0.0002149200
  -0.0054667300    0.0024485500   -0.0000291900
  -0.0057567400    0.0024524000   -0.0001025400
  -0.0056142800    0.0026973200   -0.0000777400
  -0.0055958700    0.0025378400   -0.0002432400

17   
 -0.0033549724308325   0.0000001512158470  -0.0094204118787603
  -0.0035689100    0.0031592400   -0.0105875100
  -0.0301738200    0.0037866600   -0.0461696500
  -0.0742358800   -0.0222299100   -0.0465760900
  -0.0745240400    0.0288138100   -0.0457192800
  -0.0060901600    0.0031509900    0.0016554300
  -0.0060901300    0.0031499600    0.0016440900
  -0.0060897700    0.0031510400    0.0016422500
  -0.0060915400    0.0031509100    0.0016460900
   0.0052786400   -0.0031305300   -0.0019668100
   0.0052016000   -0.0031880800   -0.0020745300
   0.0052896300   -0.0031049900   -0.0020207000
   0.0051757800   -0.0031449800   -0.0015175600
   0.0055943400   -0.0028678700   -0.0020326900
   0.0056660100   -0.0029828300   -0.0019269100
   0.0057281000   -0.0029801100   -0.0019787300
   0.0055685000   -0.0029419400   -0.0014674900
   0.2092124800   -0.0039068600    0.1357978600
  -0.0333721100   -0.0029361300    0.0072972600
   0.0012919900    0.0170746300    0.0072365600
   0.0013917500   -0.0230159100    0.0073744200
   0.0053207100   -0.0026739100   -0.0002740900
   0.0053222100   -0.0026728000   -0.0001843600
   0.0053204600   -0.0026742200   -0.0001844400
   0.0053224100   -0.0026741900   -0.0001846800
  -0.0044174400    0.0027164700    0.0000301000
  -0.0047029700    0.0027121900   -0.0000412500
  -0.0045568400    0.0029651200   -0.0000017200
  -0.0045792800    0.0028031400    0.0001684800
  -0.0046997000    0.0027160900   -0.0000122200
  -0.0044080600    0.0026975600    0.0001242500
  -0.0045391900    0.0024559700    0.0000624000
  -0.0045448000    0.0026214700    0.0002415400
