# Thermal properties / unit cell (natom)

unit:
  temperature:   K
  free_energy:   kJ/mol
  entropy:       J/K/mol
  heat_capacity: J/K/mol

natom:     4
num_modes: 3888
num_integrated_modes: 3872

zero_point_energy:      65.7649873
high_T_entropy:        229.7925529

thermal_properties:
- temperature:         0.0000000
  free_energy:        65.7649873
  entropy:             0.0000000
  heat_capacity:       0.0000000
  energy:             65.7649873

- temperature:        10.0000000
  free_energy:        65.7649744
  entropy:             0.0061339
  heat_capacity:       0.0185120
  energy:             65.7650358

- temperature:        20.0000000
  free_energy:        65.7648018
  entropy:             0.0300210
  heat_capacity:       0.0591039
  energy:             65.7654022

- temperature:        30.0000000
  free_energy:        65.7643119
  entropy:             0.0733924
  heat_capacity:       0.1862371
  energy:             65.7665137

- temperature:        40.0000000
  free_energy:        65.7631838
  entropy:             0.1611491
  heat_capacity:       0.4613567
  energy:             65.7696298

- temperature:        50.0000000
  free_energy:        65.7608983
  entropy:             0.3057848
  heat_capacity:       0.8709062
  energy:             65.7761875

- temperature:        60.0000000
  free_energy:        65.7568705
  entropy:             0.5096845
  heat_capacity:       1.4021356
  energy:             65.7874516

- temperature:        70.0000000
  free_energy:        65.7505052
  entropy:             0.7734241
  heat_capacity:       2.0578095
  energy:             65.8046449

- temperature:        80.0000000
  free_energy:        65.7411991
  entropy:             1.0980257
  heat_capacity:       2.8433199
  energy:             65.8290412

- temperature:        90.0000000
  free_energy:        65.7283383
  entropy:             1.4845285
  heat_capacity:       3.7589870
  energy:             65.8619458

- temperature:       100.0000000
  free_energy:        65.7113007
  entropy:             1.9333524
  heat_capacity:       4.7990067
  energy:             65.9046360

- temperature:       110.0000000
  free_energy:        65.6894650
  entropy:             2.4440060
  heat_capacity:       5.9528370
  energy:             65.9583057

- temperature:       120.0000000
  free_energy:        65.6622192
  entropy:             3.0150648
  heat_capacity:       7.2068836
  energy:             66.0240269

- temperature:       130.0000000
  free_energy:        65.6289698
  entropy:             3.6442849
  heat_capacity:       8.5459580
  energy:             66.1027268

- temperature:       140.0000000
  free_energy:        65.5891492
  entropy:             4.3287737
  heat_capacity:       9.9544726
  energy:             66.1951775

- temperature:       150.0000000
  free_energy:        65.5422212
  entropy:             5.0651748
  heat_capacity:      11.4173838
  energy:             66.3019974

- temperature:       160.0000000
  free_energy:        65.4876848
  entropy:             5.8498468
  heat_capacity:      12.9208760
  energy:             66.4236603

- temperature:       170.0000000
  free_energy:        65.4250760
  entropy:             6.6790208
  heat_capacity:      14.4527862
  energy:             66.5605095

- temperature:       180.0000000
  free_energy:        65.3539686
  entropy:             7.5489306
  heat_capacity:      16.0027914
  energy:             66.7127761

- temperature:       190.0000000
  free_energy:        65.2739738
  entropy:             8.4559125
  heat_capacity:      17.5624057
  energy:             66.8805972

- temperature:       200.0000000
  free_energy:        65.1847384
  entropy:             9.3964751
  heat_capacity:      19.1248432
  energy:             67.0640335

- temperature:       210.0000000
  free_energy:        65.0859433
  entropy:            10.3673444
  heat_capacity:      20.6848008
  energy:             67.2630856

- temperature:       220.0000000
  free_energy:        64.9773007
  entropy:            11.3654857
  heat_capacity:      22.2382065
  energy:             67.4777075

- temperature:       230.0000000
  free_energy:        64.8585520
  entropy:            12.3881110
  heat_capacity:      23.7819681
  energy:             67.7078175

- temperature:       240.0000000
  free_energy:        64.7294653
  entropy:            13.4326730
  heat_capacity:      25.3137424
  energy:             67.9533069

- temperature:       250.0000000
  free_energy:        64.5898332
  entropy:            14.4968529
  heat_capacity:      26.8317377
  energy:             68.2140464

- temperature:       260.0000000
  free_energy:        64.4394699
  entropy:            15.5785425
  heat_capacity:      28.3345533
  energy:             68.4898910

- temperature:       270.0000000
  free_energy:        64.2782104
  entropy:            16.6758248
  heat_capacity:      29.8210556
  energy:             68.7806831

- temperature:       280.0000000
  free_energy:        64.1059073
  entropy:            17.7869544
  heat_capacity:      31.2902871
  energy:             69.0862545

- temperature:       290.0000000
  free_energy:        63.9224304
  entropy:            18.9103378
  heat_capacity:      32.7414026
  energy:             69.4064284

- temperature:       300.0000000
  free_energy:        63.7276646
  entropy:            20.0445168
  heat_capacity:      34.1736279
  energy:             69.7410196

- temperature:       310.0000000
  free_energy:        63.5215086
  entropy:            21.1881515
  heat_capacity:      35.5862358
  energy:             70.0898356

- temperature:       320.0000000
  free_energy:        63.3038742
  entropy:            22.3400077
  heat_capacity:      36.9785330
  energy:             70.4526766

- temperature:       330.0000000
  free_energy:        63.0746848
  entropy:            23.4989438
  heat_capacity:      38.3498571
  energy:             70.8293363

- temperature:       340.0000000
  free_energy:        62.8338752
  entropy:            24.6639016
  heat_capacity:      39.6995780
  energy:             71.2196017

- temperature:       350.0000000
  free_energy:        62.5813900
  entropy:            25.8338967
  heat_capacity:      41.0271026
  energy:             71.6232539

- temperature:       360.0000000
  free_energy:        62.3171836
  entropy:            27.0080123
  heat_capacity:      42.3318809
  energy:             72.0400680

- temperature:       370.0000000
  free_energy:        62.0412189
  entropy:            28.1853922
  heat_capacity:      43.6134123
  energy:             72.4698140

- temperature:       380.0000000
  free_energy:        61.7534675
  entropy:            29.3652361
  heat_capacity:      44.8712510
  energy:             72.9122572

- temperature:       390.0000000
  free_energy:        61.4539085
  entropy:            30.5467956
  heat_capacity:      46.1050113
  energy:             73.3671588

- temperature:       400.0000000
  free_energy:        61.1425282
  entropy:            31.7293698
  heat_capacity:      47.3143701
  energy:             73.8342761

- temperature:       410.0000000
  free_energy:        60.8193199
  entropy:            32.9123026
  heat_capacity:      48.4990696
  energy:             74.3133640

- temperature:       420.0000000
  free_energy:        60.4842830
  entropy:            34.0949801
  heat_capacity:      49.6589178
  energy:             74.8041747

- temperature:       430.0000000
  free_energy:        60.1374231
  entropy:            35.2768279
  heat_capacity:      50.7937878
  energy:             75.3064590

- temperature:       440.0000000
  free_energy:        59.7787510
  entropy:            36.4573089
  heat_capacity:      51.9036167
  energy:             75.8199669

- temperature:       450.0000000
  free_energy:        59.4082831
  entropy:            37.6359217
  heat_capacity:      52.9884032
  energy:             76.3444479

- temperature:       460.0000000
  free_energy:        59.0260404
  entropy:            38.8121986
  heat_capacity:      54.0482043
  energy:             76.8796517

- temperature:       470.0000000
  free_energy:        58.6320484
  entropy:            39.9857036
  heat_capacity:      55.0831323
  energy:             77.4253291

- temperature:       480.0000000
  free_energy:        58.2263369
  entropy:            41.1560314
  heat_capacity:      56.0933504
  energy:             77.9812320

- temperature:       490.0000000
  free_energy:        57.8089396
  entropy:            42.3228057
  heat_capacity:      57.0790689
  energy:             78.5471144

- temperature:       500.0000000
  free_energy:        57.3798938
  entropy:            43.4856775
  heat_capacity:      58.0405411
  energy:             79.1227325

- temperature:       510.0000000
  free_energy:        56.9392401
  entropy:            44.6443240
  heat_capacity:      58.9780584
  energy:             79.7078454

- temperature:       520.0000000
  free_energy:        56.4870224
  entropy:            45.7984472
  heat_capacity:      59.8919469
  energy:             80.3022149

- temperature:       530.0000000
  free_energy:        56.0232872
  entropy:            46.9477727
  heat_capacity:      60.7825628
  energy:             80.9056067

- temperature:       540.0000000
  free_energy:        55.5480838
  entropy:            48.0920484
  heat_capacity:      61.6502884
  energy:             81.5177899

- temperature:       550.0000000
  free_energy:        55.0614638
  entropy:            49.2310431
  heat_capacity:      62.4955288
  energy:             82.1385375

- temperature:       560.0000000
  free_energy:        54.5634812
  entropy:            50.3645459
  heat_capacity:      63.3187080
  energy:             82.7676269

- temperature:       570.0000000
  free_energy:        54.0541919
  entropy:            51.4923645
  heat_capacity:      64.1202656
  energy:             83.4048396

- temperature:       580.0000000
  free_energy:        53.5336535
  entropy:            52.6143245
  heat_capacity:      64.9006540
  energy:             84.0499617

- temperature:       590.0000000
  free_energy:        53.0019254
  entropy:            53.7302683
  heat_capacity:      65.6603355
  energy:             84.7027837

- temperature:       600.0000000
  free_energy:        52.4590686
  entropy:            54.8400538
  heat_capacity:      66.3997794
  energy:             85.3631009

- temperature:       610.0000000
  free_energy:        51.9051453
  entropy:            55.9435543
  heat_capacity:      67.1194603
  energy:             86.0307134

- temperature:       620.0000000
  free_energy:        51.3402189
  entropy:            57.0406564
  heat_capacity:      67.8198555
  energy:             86.7054259

- temperature:       630.0000000
  free_energy:        50.7643538
  entropy:            58.1312603
  heat_capacity:      68.5014432
  energy:             87.3870478

- temperature:       640.0000000
  free_energy:        50.1776156
  entropy:            59.2152781
  heat_capacity:      69.1647009
  energy:             88.0753936

- temperature:       650.0000000
  free_energy:        49.5800705
  entropy:            60.2926336
  heat_capacity:      69.8101040
  energy:             88.7702823

- temperature:       660.0000000
  free_energy:        48.9717854
  entropy:            61.3632612
  heat_capacity:      70.4381243
  energy:             89.4715378

- temperature:       670.0000000
  free_energy:        48.3528279
  entropy:            62.4271053
  heat_capacity:      71.0492287
  energy:             90.1789884

- temperature:       680.0000000
  free_energy:        47.7232660
  entropy:            63.4841198
  heat_capacity:      71.6438788
  energy:             90.8924675

- temperature:       690.0000000
  free_energy:        47.0831684
  entropy:            64.5342671
  heat_capacity:      72.2225294
  energy:             91.6118127

- temperature:       700.0000000
  free_energy:        46.4326037
  entropy:            65.5775179
  heat_capacity:      72.7856280
  energy:             92.3368662

- temperature:       710.0000000
  free_energy:        45.7716411
  entropy:            66.6138504
  heat_capacity:      73.3336145
  energy:             93.0674749

- temperature:       720.0000000
  free_energy:        45.1003498
  entropy:            67.6432497
  heat_capacity:      73.8669200
  energy:             93.8034896

- temperature:       730.0000000
  free_energy:        44.4187992
  entropy:            68.6657076
  heat_capacity:      74.3859671
  energy:             94.5447657

- temperature:       740.0000000
  free_energy:        43.7270588
  entropy:            69.6812216
  heat_capacity:      74.8911690
  energy:             95.2911628

- temperature:       750.0000000
  free_energy:        43.0251979
  entropy:            70.6897952
  heat_capacity:      75.3829297
  energy:             96.0425443

- temperature:       760.0000000
  free_energy:        42.3132860
  entropy:            71.6914367
  heat_capacity:      75.8616435
  energy:             96.7987779

- temperature:       770.0000000
  free_energy:        41.5913922
  entropy:            72.6861594
  heat_capacity:      76.3276949
  energy:             97.5597350

- temperature:       780.0000000
  free_energy:        40.8595858
  entropy:            73.6739808
  heat_capacity:      76.7814588
  energy:             98.3252908

- temperature:       790.0000000
  free_energy:        40.1179356
  entropy:            74.6549226
  heat_capacity:      77.2233000
  energy:             99.0953244

- temperature:       800.0000000
  free_energy:        39.3665102
  entropy:            75.6290101
  heat_capacity:      77.6535735
  energy:             99.8697183

- temperature:       810.0000000
  free_energy:        38.6053781
  entropy:            76.5962721
  heat_capacity:      78.0726248
  energy:            100.6483585

- temperature:       820.0000000
  free_energy:        37.8346074
  entropy:            77.5567403
  heat_capacity:      78.4807894
  energy:            101.4311345

- temperature:       830.0000000
  free_energy:        37.0542658
  entropy:            78.5104497
  heat_capacity:      78.8783933
  energy:            102.2179391

- temperature:       840.0000000
  free_energy:        36.2644208
  entropy:            79.4574374
  heat_capacity:      79.2657529
  energy:            103.0086682

- temperature:       850.0000000
  free_energy:        35.4651394
  entropy:            80.3977431
  heat_capacity:      79.6431754
  energy:            103.8032210

- temperature:       860.0000000
  free_energy:        34.6564881
  entropy:            81.3314087
  heat_capacity:      80.0109587
  energy:            104.6014996

- temperature:       870.0000000
  free_energy:        33.8385332
  entropy:            82.2584780
  heat_capacity:      80.3693918
  energy:            105.4034090

- temperature:       880.0000000
  free_energy:        33.0113404
  entropy:            83.1789964
  heat_capacity:      80.7187548
  energy:            106.2088572

- temperature:       890.0000000
  free_energy:        32.1749749
  entropy:            84.0930111
  heat_capacity:      81.0593193
  energy:            107.0177548

- temperature:       900.0000000
  free_energy:        31.3295017
  entropy:            85.0005705
  heat_capacity:      81.3913482
  energy:            107.8300151

- temperature:       910.0000000
  free_energy:        30.4749849
  entropy:            85.9017245
  heat_capacity:      81.7150963
  energy:            108.6455541

- temperature:       920.0000000
  free_energy:        29.6114883
  entropy:            86.7965238
  heat_capacity:      82.0308105
  energy:            109.4642903

- temperature:       930.0000000
  free_energy:        28.7390754
  entropy:            87.6850204
  heat_capacity:      82.3387298
  energy:            110.2861444

- temperature:       940.0000000
  free_energy:        27.8578088
  entropy:            88.5672669
  heat_capacity:      82.6390855
  energy:            111.1110396

- temperature:       950.0000000
  free_energy:        26.9677507
  entropy:            89.4433167
  heat_capacity:      82.9321018
  energy:            111.9389016

- temperature:       960.0000000
  free_energy:        26.0689629
  entropy:            90.3132240
  heat_capacity:      83.2179952
  energy:            112.7696579

- temperature:       970.0000000
  free_energy:        25.1615065
  entropy:            91.1770432
  heat_capacity:      83.4969759
  energy:            113.6032385

- temperature:       980.0000000
  free_energy:        24.2454422
  entropy:            92.0348295
  heat_capacity:      83.7692468
  energy:            114.4395751

- temperature:       990.0000000
  free_energy:        23.3208299
  entropy:            92.8866382
  heat_capacity:      84.0350045
  energy:            115.2786017

- temperature:      1000.0000000
  free_energy:        22.3877291
  entropy:            93.7325250
  heat_capacity:      84.2944392
  energy:            116.1202541
