  80  80   0   0
  0.1020106E+02  0.1186197E-08  0.8297066E-09  0.8291900E-09  0.5000000E-15
  1.000000000000000E-004
  CAR 
 methane                                 
      8.49732276    -16.83287157  301     -6.25751543      1.00000000
    -16.833  0.0000E+00  0.0000E+00
    -16.748  0.0000E+00  0.0000E+00
    -16.664  0.0000E+00  0.0000E+00
    -16.580  0.0000E+00  0.0000E+00
    -16.495  0.0000E+00  0.0000E+00
    -16.411  0.0000E+00  0.0000E+00
    -16.326  0.0000E+00  0.0000E+00
    -16.242  0.0000E+00  0.0000E+00
    -16.157  0.0000E+00  0.0000E+00
    -16.073  0.0000E+00  0.0000E+00
    -15.989  0.0000E+00  0.0000E+00
    -15.904  0.0000E+00  0.0000E+00
    -15.820  0.0000E+00  0.0000E+00
    -15.735  0.0000E+00  0.0000E+00
    -15.651  0.0000E+00  0.0000E+00
    -15.566  0.0000E+00  0.0000E+00
    -15.482  0.0000E+00  0.0000E+00
    -15.397  0.0000E+00  0.0000E+00
    -15.313  0.0000E+00  0.0000E+00
    -15.229  0.0000E+00  0.0000E+00
    -15.144  0.0000E+00  0.0000E+00
    -15.060  0.0000E+00  0.0000E+00
    -14.975  0.0000E+00  0.0000E+00
    -14.891  0.0000E+00  0.0000E+00
    -14.806  0.2741E-01  0.2511E-03
    -14.722  0.1062E+00  0.5966E-02
    -14.638  0.1415E+00  0.1937E-01
    -14.553  0.1539E+00  0.3896E-01
    -14.469  0.4284E+00  0.7093E-01
    -14.384  0.5213E+00  0.1089E+00
    -14.300  0.4346E+00  0.1463E+00
    -14.215  0.0000E+00  0.1600E+00
    -14.131  0.0000E+00  0.1600E+00
    -14.047  0.0000E+00  0.1600E+00
    -13.962  0.0000E+00  0.1600E+00
    -13.878  0.0000E+00  0.1600E+00
    -13.793  0.0000E+00  0.1600E+00
    -13.709  0.0000E+00  0.1600E+00
    -13.624  0.0000E+00  0.1600E+00
    -13.540  0.0000E+00  0.1600E+00
    -13.456  0.0000E+00  0.1600E+00
    -13.371  0.0000E+00  0.1600E+00
    -13.287  0.0000E+00  0.1600E+00
    -13.202  0.0000E+00  0.1600E+00
    -13.118  0.0000E+00  0.1600E+00
    -13.033  0.0000E+00  0.1600E+00
    -12.949  0.0000E+00  0.1600E+00
    -12.864  0.0000E+00  0.1600E+00
    -12.780  0.0000E+00  0.1600E+00
    -12.696  0.0000E+00  0.1600E+00
    -12.611  0.0000E+00  0.1600E+00
    -12.527  0.0000E+00  0.1600E+00
    -12.442  0.0000E+00  0.1600E+00
    -12.358  0.0000E+00  0.1600E+00
    -12.273  0.0000E+00  0.1600E+00
    -12.189  0.0000E+00  0.1600E+00
    -12.105  0.0000E+00  0.1600E+00
    -12.020  0.0000E+00  0.1600E+00
    -11.936  0.0000E+00  0.1600E+00
    -11.851  0.0000E+00  0.1600E+00
    -11.767  0.0000E+00  0.1600E+00
    -11.682  0.0000E+00  0.1600E+00
    -11.598  0.0000E+00  0.1600E+00
    -11.514  0.0000E+00  0.1600E+00
    -11.429  0.0000E+00  0.1600E+00
    -11.345  0.0000E+00  0.1600E+00
    -11.260  0.0000E+00  0.1600E+00
    -11.176  0.0000E+00  0.1600E+00
    -11.091  0.0000E+00  0.1600E+00
    -11.007  0.0000E+00  0.1600E+00
    -10.922  0.0000E+00  0.1600E+00
    -10.838  0.0000E+00  0.1600E+00
    -10.754  0.0000E+00  0.1600E+00
    -10.669  0.0000E+00  0.1600E+00
    -10.585  0.0000E+00  0.1600E+00
    -10.500  0.0000E+00  0.1600E+00
    -10.416  0.0000E+00  0.1600E+00
    -10.331  0.0000E+00  0.1600E+00
    -10.247  0.0000E+00  0.1600E+00
    -10.163  0.0000E+00  0.1600E+00
    -10.078  0.0000E+00  0.1600E+00
     -9.994  0.0000E+00  0.1600E+00
     -9.909  0.0000E+00  0.1600E+00
     -9.825  0.0000E+00  0.1600E+00
     -9.740  0.0000E+00  0.1600E+00
     -9.656  0.0000E+00  0.1600E+00
     -9.572  0.0000E+00  0.1600E+00
     -9.487  0.0000E+00  0.1600E+00
     -9.403  0.0000E+00  0.1600E+00
     -9.318  0.0000E+00  0.1600E+00
     -9.234  0.0000E+00  0.1600E+00
     -9.149  0.0000E+00  0.1600E+00
     -9.065  0.0000E+00  0.1600E+00
     -8.981  0.0000E+00  0.1600E+00
     -8.896  0.0000E+00  0.1600E+00
     -8.812  0.0000E+00  0.1600E+00
     -8.727  0.0000E+00  0.1600E+00
     -8.643  0.0000E+00  0.1600E+00
     -8.558  0.0000E+00  0.1600E+00
     -8.474  0.0000E+00  0.1600E+00
     -8.389  0.0000E+00  0.1600E+00
     -8.305  0.0000E+00  0.1600E+00
     -8.221  0.0000E+00  0.1600E+00
     -8.136  0.0000E+00  0.1600E+00
     -8.052  0.0000E+00  0.1600E+00
     -7.967  0.0000E+00  0.1600E+00
     -7.883  0.0000E+00  0.1600E+00
     -7.798  0.0000E+00  0.1600E+00
     -7.714  0.0000E+00  0.1600E+00
     -7.630  0.0000E+00  0.1600E+00
     -7.545  0.7589E-01  0.1617E+00
     -7.461  0.2690E+00  0.1765E+00
     -7.376  0.3465E+00  0.2036E+00
     -7.292  0.3297E+00  0.2277E+00
     -7.207  0.2904E+00  0.2545E+00
     -7.123  0.2541E+00  0.2853E+00
     -7.039  0.3795E+00  0.3129E+00
     -6.954  0.2675E+00  0.3387E+00
     -6.870  0.7196E+00  0.3681E+00
     -6.785  0.4185E+00  0.4097E+00
     -6.701  0.6250E+00  0.4464E+00
     -6.616  0.5983E+00  0.4957E+00
     -6.532  0.6686E+00  0.5544E+00
     -6.447  0.3446E+00  0.6036E+00
     -6.363  0.1538E+00  0.6375E+00
     -6.279  0.0000E+00  0.6400E+00
     -6.194  0.0000E+00  0.6400E+00
     -6.110  0.0000E+00  0.6400E+00
     -6.025  0.0000E+00  0.6400E+00
     -5.941  0.0000E+00  0.6400E+00
     -5.856  0.0000E+00  0.6400E+00
     -5.772  0.0000E+00  0.6400E+00
     -5.688  0.0000E+00  0.6400E+00
     -5.603  0.0000E+00  0.6400E+00
     -5.519  0.0000E+00  0.6400E+00
     -5.434  0.0000E+00  0.6400E+00
     -5.350  0.0000E+00  0.6400E+00
     -5.265  0.0000E+00  0.6400E+00
     -5.181  0.0000E+00  0.6400E+00
     -5.097  0.0000E+00  0.6400E+00
     -5.012  0.0000E+00  0.6400E+00
     -4.928  0.0000E+00  0.6400E+00
     -4.843  0.0000E+00  0.6400E+00
     -4.759  0.0000E+00  0.6400E+00
     -4.674  0.0000E+00  0.6400E+00
     -4.590  0.0000E+00  0.6400E+00
     -4.506  0.0000E+00  0.6400E+00
     -4.421  0.0000E+00  0.6400E+00
     -4.337  0.0000E+00  0.6400E+00
     -4.252  0.0000E+00  0.6400E+00
     -4.168  0.0000E+00  0.6400E+00
     -4.083  0.0000E+00  0.6400E+00
     -3.999  0.0000E+00  0.6400E+00
     -3.914  0.0000E+00  0.6400E+00
     -3.830  0.0000E+00  0.6400E+00
     -3.746  0.0000E+00  0.6400E+00
     -3.661  0.0000E+00  0.6400E+00
     -3.577  0.0000E+00  0.6400E+00
     -3.492  0.0000E+00  0.6400E+00
     -3.408  0.0000E+00  0.6400E+00
     -3.323  0.0000E+00  0.6400E+00
     -3.239  0.0000E+00  0.6400E+00
     -3.155  0.0000E+00  0.6400E+00
     -3.070  0.0000E+00  0.6400E+00
     -2.986  0.0000E+00  0.6400E+00
     -2.901  0.0000E+00  0.6400E+00
     -2.817  0.0000E+00  0.6400E+00
     -2.732  0.0000E+00  0.6400E+00
     -2.648  0.0000E+00  0.6400E+00
     -2.564  0.0000E+00  0.6400E+00
     -2.479  0.0000E+00  0.6400E+00
     -2.395  0.0000E+00  0.6400E+00
     -2.310  0.0000E+00  0.6400E+00
     -2.226  0.0000E+00  0.6400E+00
     -2.141  0.0000E+00  0.6400E+00
     -2.057  0.0000E+00  0.6400E+00
     -1.972  0.0000E+00  0.6400E+00
     -1.888  0.0000E+00  0.6400E+00
     -1.804  0.0000E+00  0.6400E+00
     -1.719  0.0000E+00  0.6400E+00
     -1.635  0.0000E+00  0.6400E+00
     -1.550  0.0000E+00  0.6400E+00
     -1.466  0.0000E+00  0.6400E+00
     -1.381  0.0000E+00  0.6400E+00
     -1.297  0.0000E+00  0.6400E+00
     -1.213  0.0000E+00  0.6400E+00
     -1.128  0.0000E+00  0.6400E+00
     -1.044  0.0000E+00  0.6400E+00
     -0.959  0.0000E+00  0.6400E+00
     -0.875  0.0000E+00  0.6400E+00
     -0.790  0.0000E+00  0.6400E+00
     -0.706  0.0000E+00  0.6400E+00
     -0.622  0.0000E+00  0.6400E+00
     -0.537  0.0000E+00  0.6400E+00
     -0.453  0.0000E+00  0.6400E+00
     -0.368  0.0000E+00  0.6400E+00
     -0.284  0.0000E+00  0.6400E+00
     -0.199  0.0000E+00  0.6400E+00
     -0.115  0.0000E+00  0.6400E+00
     -0.031  0.0000E+00  0.6400E+00
      0.054  0.0000E+00  0.6400E+00
      0.138  0.0000E+00  0.6400E+00
      0.223  0.0000E+00  0.6400E+00
      0.307  0.0000E+00  0.6400E+00
      0.392  0.0000E+00  0.6400E+00
      0.476  0.0000E+00  0.6400E+00
      0.561  0.0000E+00  0.6400E+00
      0.645  0.0000E+00  0.6400E+00
      0.729  0.0000E+00  0.6400E+00
      0.814  0.0000E+00  0.6400E+00
      0.898  0.0000E+00  0.6400E+00
      0.983  0.0000E+00  0.6400E+00
      1.067  0.0000E+00  0.6400E+00
      1.152  0.0000E+00  0.6400E+00
      1.236  0.6790E-03  0.6400E+00
      1.320  0.3241E-02  0.6402E+00
      1.405  0.6632E-02  0.6406E+00
      1.489  0.8681E-02  0.6412E+00
      1.574  0.9937E-02  0.6420E+00
      1.658  0.1126E-01  0.6429E+00
      1.743  0.1279E-01  0.6439E+00
      1.827  0.1485E-01  0.6451E+00
      1.911  0.1787E-01  0.6465E+00
      1.996  0.2223E-01  0.6482E+00
      2.080  0.2730E-01  0.6503E+00
      2.165  0.3163E-01  0.6528E+00
      2.249  0.2595E-01  0.6552E+00
      2.334  0.1964E-01  0.6571E+00
      2.418  0.1977E-01  0.6588E+00
      2.503  0.2118E-01  0.6605E+00
      2.587  0.2912E-01  0.6625E+00
      2.671  0.5076E-01  0.6659E+00
      2.756  0.5947E-01  0.6707E+00
      2.840  0.4939E-01  0.6754E+00
      2.925  0.3507E-01  0.6790E+00
      3.009  0.4550E-01  0.6819E+00
      3.094  0.1308E+00  0.6901E+00
      3.178  0.1125E+00  0.7006E+00
      3.262  0.1453E+00  0.7118E+00
      3.347  0.3370E-01  0.7192E+00
      3.431  0.8799E-01  0.7244E+00
      3.516  0.1045E+00  0.7326E+00
      3.600  0.9052E-01  0.7406E+00
      3.685  0.1394E+00  0.7505E+00
      3.769  0.7348E-01  0.7592E+00
      3.853  0.7583E-01  0.7660E+00
      3.938  0.9011E-01  0.7730E+00
      4.022  0.1221E+00  0.7821E+00
      4.107  0.1678E+00  0.7940E+00
      4.191  0.8876E-01  0.8052E+00
      4.276  0.1024E+00  0.8139E+00
      4.360  0.5568E-01  0.8198E+00
      4.444  0.1053E+00  0.8266E+00
      4.529  0.1501E+00  0.8373E+00
      4.613  0.1472E+00  0.8514E+00
      4.698  0.1185E+00  0.8621E+00
      4.782  0.1435E+00  0.8728E+00
      4.867  0.1007E+00  0.8823E+00
      4.951  0.1577E+00  0.8929E+00
      5.036  0.1159E+00  0.9055E+00
      5.120  0.1288E+00  0.9159E+00
      5.204  0.1514E+00  0.9263E+00
      5.289  0.1607E+00  0.9391E+00
      5.373  0.1154E+00  0.9511E+00
      5.458  0.4957E-01  0.9583E+00
      5.542  0.1042E+00  0.9630E+00
      5.627  0.1167E+00  0.9724E+00
      5.711  0.9548E-01  0.9815E+00
      5.795  0.9074E-01  0.9887E+00
      5.880  0.1373E+00  0.9989E+00
      5.964  0.1137E+00  0.1010E+01
      6.049  0.1384E+00  0.1020E+01
      6.133  0.1101E+00  0.1031E+01
      6.218  0.1323E+00  0.1043E+01
      6.302  0.9256E-01  0.1052E+01
      6.386  0.5484E-01  0.1058E+01
      6.471  0.1456E-02  0.1060E+01
      6.555  0.0000E+00  0.1060E+01
      6.640  0.0000E+00  0.1060E+01
      6.724  0.0000E+00  0.1060E+01
      6.809  0.0000E+00  0.1060E+01
      6.893  0.0000E+00  0.1060E+01
      6.978  0.0000E+00  0.1060E+01
      7.062  0.0000E+00  0.1060E+01
      7.146  0.0000E+00  0.1060E+01
      7.231  0.0000E+00  0.1060E+01
      7.315  0.0000E+00  0.1060E+01
      7.400  0.0000E+00  0.1060E+01
      7.484  0.0000E+00  0.1060E+01
      7.569  0.0000E+00  0.1060E+01
      7.653  0.0000E+00  0.1060E+01
      7.737  0.0000E+00  0.1060E+01
      7.822  0.0000E+00  0.1060E+01
      7.906  0.0000E+00  0.1060E+01
      7.991  0.0000E+00  0.1060E+01
      8.075  0.0000E+00  0.1060E+01
      8.160  0.0000E+00  0.1060E+01
      8.244  0.0000E+00  0.1060E+01
      8.328  0.0000E+00  0.1060E+01
      8.413  0.0000E+00  0.1060E+01
      8.497  0.0000E+00  0.1060E+01
