   80   80  200    1
  0.1020106E+02  0.1186197E-08  0.8297066E-09  0.8291899E-09  0.5000000E-15
  1.000000000000000E-004
  CAR 
 diamond                                 
    128     27    106
 
  0.0000000E+00  0.0000000E+00  0.0000000E+00  0.1562500E-01
    1      -14.820975
    2      -14.620288
    3      -14.566640
    4      -14.537376
    5      -14.518334
    6      -14.513239
    7      -14.471086
    8      -14.467905
    9      -14.455628
   10      -14.446899
   11      -14.446565
   12      -14.403250
   13      -14.342055
   14      -14.341440
   15      -14.340880
   16      -14.313425
   17       -7.558745
   18       -7.539390
   19       -7.539031
   20       -7.502712
   21       -7.496867
   22       -7.495566
   23       -7.495490
   24       -7.361434
   25       -7.202389
   26       -7.192733
   27       -7.177351
   28       -7.089122
   29       -7.083915
   30       -7.061797
   31       -7.000834
   32       -6.987621
   33       -6.977518
   34       -6.973009
   35       -6.969102
   36       -6.933109
   37       -6.910086
   38       -6.902807
   39       -6.820173
   40       -6.808304
   41       -6.801148
   42       -6.743638
   43       -6.736324
   44       -6.676615
   45       -6.675492
   46       -6.668013
   47       -6.654107
   48       -6.644454
   49       -6.613886
   50       -6.591487
   51       -6.587492
   52       -6.575621
   53       -6.556401
   54       -6.543071
   55       -6.525490
   56       -6.518155
   57       -6.515450
   58       -6.513188
   59       -6.511471
   60       -6.508972
   61       -6.485392
   62       -6.468507
   63       -6.437113
   64       -6.382981
   65        1.190674
   66        2.475680
   67        2.523911
   68        2.939667
   69        2.990541
   70        3.107350
   71        3.205919
   72        3.417646
   73        3.491217
   74        3.509421
   75        3.531732
   76        3.564831
   77        3.657540
   78        3.702756
   79        3.878661
   80        4.113846
   81        4.123292
   82        4.206573
   83        4.259702
   84        4.623045
   85        4.770292
   86        4.820387
   87        4.917075
   88        4.922013
   89        4.997402
   90        5.028211
   91        5.029989
   92        5.103984
   93        5.123858
   94        5.211898
   95        5.375140
   96        5.410038
   97        5.427783
   98        5.532806
   99        5.673057
  100        5.981525
  101        6.050088
  102        6.063947
  103        6.125643
  104        6.149492
  105        6.221123
  106        6.267493
 
  0.2500000E+00  0.0000000E+00  0.0000000E+00  0.3125000E-01
    1      -14.804559
    2      -14.686153
    3      -14.529371
    4      -14.517585
    5      -14.514011
    6      -14.497638
    7      -14.474510
    8      -14.470594
    9      -14.468377
   10      -14.451544
   11      -14.447752
   12      -14.378260
   13      -14.363673
   14      -14.341038
   15      -14.339271
   16      -14.321733
   17       -7.556503
   18       -7.552690
   19       -7.527106
   20       -7.512169
   21       -7.476064
   22       -7.457615
   23       -7.396375
   24       -7.363690
   25       -7.269431
   26       -7.263152
   27       -7.250265
   28       -7.182157
   29       -7.174783
   30       -7.116242
   31       -6.988215
   32       -6.974729
   33       -6.942900
   34       -6.928945
   35       -6.915782
   36       -6.909124
   37       -6.834826
   38       -6.807433
   39       -6.798562
   40       -6.787269
   41       -6.776387
   42       -6.765859
   43       -6.731824
   44       -6.712225
   45       -6.680517
   46       -6.650814
   47       -6.648926
   48       -6.623295
   49       -6.611799
   50       -6.594401
   51       -6.587117
   52       -6.576012
   53       -6.563098
   54       -6.529167
   55       -6.525878
   56       -6.521067
   57       -6.519483
   58       -6.516398
   59       -6.515980
   60       -6.509407
   61       -6.495351
   62       -6.494954
   63       -6.448144
   64       -6.430487
   65        1.291522
   66        2.003382
   67        2.969513
   68        2.983328
   69        3.017078
   70        3.162331
   71        3.167715
   72        3.293661
   73        3.455975
   74        3.482974
   75        3.510055
   76        3.523199
   77        3.742409
   78        3.754970
   79        3.921232
   80        4.146171
   81        4.148627
   82        4.209698
   83        4.238333
   84        4.679492
   85        4.806189
   86        4.808899
   87        4.814307
   88        4.898854
   89        4.976719
   90        4.985368
   91        4.993024
   92        5.033388
   93        5.152188
   94        5.230312
   95        5.236252
   96        5.338432
   97        5.543323
   98        5.573470
   99        5.623506
  100        5.665641
  101        6.067133
  102        6.085055
  103        6.152139
  104        6.235390
  105        6.311916
  106        6.339175
 
  0.5000000E+00  0.0000000E+00  0.0000000E+00  0.1562500E-01
    1      -14.757362
    2      -14.757361
    3      -14.515789
    4      -14.515788
    5      -14.506769
    6      -14.506767
    7      -14.469476
    8      -14.469475
    9      -14.449789
   10      -14.449786
   11      -14.418747
   12      -14.418745
   13      -14.344980
   14      -14.344978
   15      -14.340059
   16      -14.340056
   17       -7.569250
   18       -7.569250
   19       -7.457121
   20       -7.457121
   21       -7.441384
   22       -7.441382
   23       -7.348709
   24       -7.348707
   25       -7.334277
   26       -7.334276
   27       -7.258492
   28       -7.258492
   29       -7.250262
   30       -7.250261
   31       -6.916354
   32       -6.916353
   33       -6.901375
   34       -6.901374
   35       -6.900136
   36       -6.900135
   37       -6.867414
   38       -6.867412
   39       -6.769907
   40       -6.769906
   41       -6.725912
   42       -6.725911
   43       -6.686505
   44       -6.686505
   45       -6.680738
   46       -6.680737
   47       -6.600623
   48       -6.600622
   49       -6.596829
   50       -6.596827
   51       -6.567444
   52       -6.567444
   53       -6.556209
   54       -6.556208
   55       -6.547446
   56       -6.547446
   57       -6.532631
   58       -6.532629
   59       -6.517162
   60       -6.517159
   61       -6.503165
   62       -6.503164
   63       -6.478071
   64       -6.478069
   65        1.577665
   66        1.577666
   67        3.086865
   68        3.086865
   69        3.111194
   70        3.111196
   71        3.302394
   72        3.302395
   73        3.309377
   74        3.309377
   75        3.513956
   76        3.513957
   77        3.806731
   78        3.806732
   79        4.029138
   80        4.029140
   81        4.192518
   82        4.192520
   83        4.477072
   84        4.477072
   85        4.767666
   86        4.767669
   87        4.940269
   88        4.940270
   89        4.975972
   90        4.975974
   91        4.990140
   92        4.990141
   93        5.007810
   94        5.007811
   95        5.313883
   96        5.313884
   97        5.405500
   98        5.405501
   99        5.882544
  100        5.882545
  101        5.892837
  102        5.892837
  103        6.258557
  104        6.258558
  105        6.286918
  106        6.286921
 
  0.0000000E+00  0.2500000E+00  0.0000000E+00  0.3125000E-01
    1      -14.790730
    2      -14.605367
    3      -14.599854
    4      -14.549656
    5      -14.533927
    6      -14.519833
    7      -14.473233
    8      -14.465014
    9      -14.461800
   10      -14.431512
   11      -14.420320
   12      -14.395391
   13      -14.356825
   14      -14.344665
   15      -14.342488
   16      -14.320958
   17       -7.569682
   18       -7.564967
   19       -7.489118
   20       -7.467157
   21       -7.464908
   22       -7.454854
   23       -7.453408
   24       -7.269419
   25       -7.209589
   26       -7.180910
   27       -7.162255
   28       -7.160988
   29       -7.068884
   30       -7.064629
   31       -7.052595
   32       -7.009734
   33       -6.988469
   34       -6.952014
   35       -6.933676
   36       -6.903526
   37       -6.902207
   38       -6.896150
   39       -6.849031
   40       -6.793646
   41       -6.785497
   42       -6.751749
   43       -6.750477
   44       -6.718251
   45       -6.668210
   46       -6.667536
   47       -6.650049
   48       -6.643446
   49       -6.610124
   50       -6.600411
   51       -6.598091
   52       -6.595343
   53       -6.558498
   54       -6.558093
   55       -6.551098
   56       -6.543973
   57       -6.531041
   58       -6.526825
   59       -6.520982
   60       -6.516935
   61       -6.500558
   62       -6.491669
   63       -6.453580
   64       -6.407997
   65        1.393389
   66        2.619725
   67        2.656084
   68        2.659520
   69        3.000520
   70        3.064108
   71        3.165986
   72        3.325510
   73        3.515581
   74        3.543685
   75        3.630583
   76        3.666309
   77        3.682792
   78        3.880046
   79        4.055383
   80        4.119993
   81        4.121650
   82        4.125059
   83        4.282030
   84        4.454943
   85        4.650768
   86        4.824390
   87        4.828777
   88        4.851130
   89        4.876044
   90        4.917707
   91        4.996761
   92        5.017146
   93        5.237279
   94        5.303399
   95        5.369009
   96        5.440843
   97        5.532485
   98        5.648192
   99        5.667572
  100        5.780137
  101        5.856135
  102        5.909073
  103        5.991590
  104        6.009491
  105        6.099524
  106        6.102812
 
  0.2500000E+00  0.2500000E+00  0.0000000E+00  0.6250000E-01
    1      -14.775308
    2      -14.664740
    3      -14.592670
    4      -14.546769
    5      -14.516581
    6      -14.488920
    7      -14.470433
    8      -14.464006
    9      -14.463789
   10      -14.448699
   11      -14.406848
   12      -14.382459
   13      -14.365395
   14      -14.352002
   15      -14.344173
   16      -14.328787
   17       -7.564350
   18       -7.547494
   19       -7.524325
   20       -7.502099
   21       -7.425836
   22       -7.403534
   23       -7.360023
   24       -7.329416
   25       -7.309722
   26       -7.220032
   27       -7.215350
   28       -7.150659
   29       -7.116724
   30       -7.081155
   31       -7.013695
   32       -6.987248
   33       -6.974200
   34       -6.904866
   35       -6.898718
   36       -6.892249
   37       -6.888919
   38       -6.872246
   39       -6.827808
   40       -6.794110
   41       -6.772019
   42       -6.765058
   43       -6.727761
   44       -6.720135
   45       -6.691218
   46       -6.673539
   47       -6.651307
   48       -6.630931
   49       -6.627441
   50       -6.601112
   51       -6.594031
   52       -6.592543
   53       -6.570059
   54       -6.567294
   55       -6.566822
   56       -6.541186
   57       -6.540361
   58       -6.531510
   59       -6.529986
   60       -6.517675
   61       -6.511216
   62       -6.474489
   63       -6.452961
   64       -6.407022
   65        1.486452
   66        2.155608
   67        2.682032
   68        2.888816
   69        3.103811
   70        3.111412
   71        3.220232
   72        3.365170
   73        3.463869
   74        3.518741
   75        3.647149
   76        3.695110
   77        3.760069
   78        3.909187
   79        4.020634
   80        4.078170
   81        4.091513
   82        4.169633
   83        4.187281
   84        4.574667
   85        4.582912
   86        4.793084
   87        4.800349
   88        4.838858
   89        4.842499
   90        4.903618
   91        5.028007
   92        5.103224
   93        5.207543
   94        5.227216
   95        5.248940
   96        5.405506
   97        5.540493
   98        5.592673
   99        5.669819
  100        5.675615
  101        5.811985
  102        5.907643
  103        5.938515
  104        6.028170
  105        6.090352
  106        6.227456
 
  0.5000000E+00  0.2500000E+00  0.0000000E+00  0.3125000E-01
    1      -14.731095
    2      -14.731093
    3      -14.572917
    4      -14.572916
    5      -14.495993
    6      -14.495991
    7      -14.468426
    8      -14.468425
    9      -14.423641
   10      -14.423639
   11      -14.414487
   12      -14.414485
   13      -14.350882
   14      -14.350881
   15      -14.348407
   16      -14.348405
   17       -7.555469
   18       -7.555468
   19       -7.503970
   20       -7.503969
   21       -7.382229
   22       -7.382228
   23       -7.347003
   24       -7.347002
   25       -7.293259
   26       -7.293259
   27       -7.226169
   28       -7.226168
   29       -7.154303
   30       -7.154301
   31       -6.944465
   32       -6.944465
   33       -6.937373
   34       -6.937373
   35       -6.881222
   36       -6.881222
   37       -6.844509
   38       -6.844508
   39       -6.775986
   40       -6.775985
   41       -6.755769
   42       -6.755768
   43       -6.755571
   44       -6.755570
   45       -6.682712
   46       -6.682711
   47       -6.657429
   48       -6.657428
   49       -6.607842
   50       -6.607841
   51       -6.595842
   52       -6.595840
   53       -6.588966
   54       -6.588965
   55       -6.575696
   56       -6.575696
   57       -6.530993
   58       -6.530990
   59       -6.522960
   60       -6.522959
   61       -6.483224
   62       -6.483223
   63       -6.428674
   64       -6.428674
   65        1.752711
   66        1.752713
   67        2.756454
   68        2.756455
   69        3.216499
   70        3.216502
   71        3.333926
   72        3.333927
   73        3.482151
   74        3.482152
   75        3.687541
   76        3.687541
   77        3.913462
   78        3.913462
   79        3.986921
   80        3.986922
   81        4.066909
   82        4.066911
   83        4.365851
   84        4.365852
   85        4.710937
   86        4.710938
   87        4.787124
   88        4.787124
   89        4.989965
   90        4.989966
   91        5.003630
   92        5.003631
   93        5.093428
   94        5.093428
   95        5.371325
   96        5.371326
   97        5.434612
   98        5.434612
   99        5.742834
  100        5.742834
  101        5.756382
  102        5.756383
  103        6.036718
  104        6.036718
  105        6.333080
  106        6.333080
 
  0.0000000E+00  0.5000000E+00  0.0000000E+00  0.1562500E-01
    1      -14.708703
    2      -14.708703
    3      -14.568851
    4      -14.568851
    5      -14.507895
    6      -14.507895
    7      -14.494289
    8      -14.494289
    9      -14.439506
   10      -14.439506
   11      -14.394624
   12      -14.394624
   13      -14.358892
   14      -14.358892
   15      -14.335805
   16      -14.335805
   17       -7.596733
   18       -7.596733
   19       -7.389375
   20       -7.389375
   21       -7.373767
   22       -7.373767
   23       -7.333948
   24       -7.333948
   25       -7.264939
   26       -7.264939
   27       -7.226851
   28       -7.226851
   29       -7.059964
   30       -7.059964
   31       -7.020539
   32       -7.020539
   33       -6.889323
   34       -6.889323
   35       -6.864674
   36       -6.864674
   37       -6.848602
   38       -6.848602
   39       -6.826743
   40       -6.826743
   41       -6.825860
   42       -6.825860
   43       -6.791287
   44       -6.791287
   45       -6.706860
   46       -6.706860
   47       -6.686386
   48       -6.686386
   49       -6.630648
   50       -6.630648
   51       -6.587556
   52       -6.587556
   53       -6.569744
   54       -6.569744
   55       -6.566989
   56       -6.566989
   57       -6.539799
   58       -6.539799
   59       -6.506050
   60       -6.506050
   61       -6.481384
   62       -6.481384
   63       -6.467182
   64       -6.467182
   65        1.935827
   66        1.935827
   67        2.897028
   68        2.897028
   69        2.980286
   70        2.980286
   71        3.338693
   72        3.338693
   73        3.376300
   74        3.376300
   75        3.765134
   76        3.765134
   77        3.921174
   78        3.921174
   79        4.089357
   80        4.089357
   81        4.104315
   82        4.104315
   83        4.455973
   84        4.455973
   85        4.555927
   86        4.555927
   87        4.702312
   88        4.702312
   89        4.796916
   90        4.796916
   91        5.121617
   92        5.121617
   93        5.288373
   94        5.288373
   95        5.299025
   96        5.299025
   97        5.576131
   98        5.576131
   99        5.724717
  100        5.724717
  101        5.727443
  102        5.727443
  103        5.828826
  104        5.828826
  105        6.022772
  106        6.022772
 
  0.2500000E+00  0.5000000E+00  0.0000000E+00  0.3125000E-01
    1      -14.696334
    2      -14.696334
    3      -14.609755
    4      -14.609755
    5      -14.491739
    6      -14.491739
    7      -14.463034
    8      -14.463034
    9      -14.454064
   10      -14.454064
   11      -14.380021
   12      -14.380021
   13      -14.372043
   14      -14.372043
   15      -14.341554
   16      -14.341554
   17       -7.578763
   18       -7.578763
   19       -7.461815
   20       -7.461815
   21       -7.351012
   22       -7.351012
   23       -7.335986
   24       -7.335986
   25       -7.277111
   26       -7.277111
   27       -7.136304
   28       -7.136304
   29       -7.081920
   30       -7.081920
   31       -7.005460
   32       -7.005460
   33       -6.902281
   34       -6.902281
   35       -6.891498
   36       -6.891498
   37       -6.869041
   38       -6.869041
   39       -6.813883
   40       -6.813883
   41       -6.810450
   42       -6.810450
   43       -6.757348
   44       -6.757348
   45       -6.745197
   46       -6.745197
   47       -6.692256
   48       -6.692256
   49       -6.621826
   50       -6.621826
   51       -6.612801
   52       -6.612801
   53       -6.567666
   54       -6.567666
   55       -6.566870
   56       -6.566870
   57       -6.544873
   58       -6.544873
   59       -6.538063
   60       -6.538063
   61       -6.453567
   62       -6.453567
   63       -6.439098
   64       -6.439098
   65        2.004483
   66        2.004483
   67        2.525304
   68        2.525304
   69        3.354616
   70        3.354616
   71        3.378627
   72        3.378627
   73        3.395525
   74        3.395525
   75        3.810767
   76        3.810767
   77        3.909462
   78        3.909462
   79        4.050844
   80        4.050844
   81        4.086700
   82        4.086700
   83        4.295134
   84        4.295134
   85        4.506595
   86        4.506595
   87        4.660610
   88        4.660610
   89        5.026530
   90        5.026530
   91        5.114634
   92        5.114634
   93        5.229066
   94        5.229066
   95        5.360775
   96        5.360775
   97        5.499813
   98        5.499813
   99        5.621847
  100        5.621847
  101        5.732997
  102        5.732997
  103        5.738906
  104        5.738906
  105        6.082898
  106        6.082898
 
  0.5000000E+00  0.5000000E+00  0.0000000E+00  0.1562500E-01
    1      -14.661174
    2      -14.661174
    3      -14.661173
    4      -14.661173
    5      -14.475804
    6      -14.475804
    7      -14.475803
    8      -14.475803
    9      -14.409740
   10      -14.409740
   11      -14.409738
   12      -14.409738
   13      -14.357594
   14      -14.357594
   15      -14.357592
   16      -14.357592
   17       -7.529985
   18       -7.529985
   19       -7.529985
   20       -7.529984
   21       -7.362000
   22       -7.362000
   23       -7.362000
   24       -7.362000
   25       -7.182573
   26       -7.182573
   27       -7.182571
   28       -7.182571
   29       -7.011046
   30       -7.011046
   31       -7.011045
   32       -7.011045
   33       -6.904218
   34       -6.904218
   35       -6.904218
   36       -6.904218
   37       -6.876847
   38       -6.876847
   39       -6.876846
   40       -6.876846
   41       -6.788770
   42       -6.788770
   43       -6.788769
   44       -6.788769
   45       -6.668257
   46       -6.668257
   47       -6.668256
   48       -6.668256
   49       -6.659827
   50       -6.659827
   51       -6.659827
   52       -6.659827
   53       -6.566562
   54       -6.566562
   55       -6.566560
   56       -6.566560
   57       -6.549367
   58       -6.549366
   59       -6.549366
   60       -6.549366
   61       -6.428086
   62       -6.428086
   63       -6.428086
   64       -6.428086
   65        2.205925
   66        2.205925
   67        2.205927
   68        2.205927
   69        3.378441
   70        3.378441
   71        3.378442
   72        3.378442
   73        3.768111
   74        3.768111
   75        3.768111
   76        3.768111
   77        3.969971
   78        3.969971
   79        3.969972
   80        3.969972
   81        4.061980
   82        4.061980
   83        4.061981
   84        4.061981
   85        4.569535
   86        4.569535
   87        4.569535
   88        4.569535
   89        5.135395
   90        5.135395
   91        5.135396
   92        5.135396
   93        5.303394
   94        5.303394
   95        5.303394
   96        5.303394
   97        5.507867
   98        5.507867
   99        5.507867
  100        5.507867
  101        5.676629
  102        5.676629
  103        5.676629
  104        5.676629
  105        6.182659
  106        6.182659
 
  0.0000000E+00  0.0000000E+00  0.2500000E+00  0.3125000E-01
    1      -14.790305
    2      -14.604559
    3      -14.599614
    4      -14.549609
    5      -14.502235
    6      -14.498569
    7      -14.492952
    8      -14.464734
    9      -14.452507
   10      -14.443409
   11      -14.431803
   12      -14.414753
   13      -14.357610
   14      -14.356870
   15      -14.337131
   16      -14.318336
   17       -7.514164
   18       -7.500722
   19       -7.450278
   20       -7.442038
   21       -7.435053
   22       -7.428932
   23       -7.402775
   24       -7.329838
   25       -7.217718
   26       -7.214544
   27       -7.187705
   28       -7.184379
   29       -7.137116
   30       -7.108576
   31       -7.072497
   32       -7.021264
   33       -6.991725
   34       -6.990581
   35       -6.962930
   36       -6.861617
   37       -6.841871
   38       -6.823730
   39       -6.801144
   40       -6.797854
   41       -6.785376
   42       -6.747387
   43       -6.739823
   44       -6.698049
   45       -6.678201
   46       -6.672538
   47       -6.655295
   48       -6.650725
   49       -6.628754
   50       -6.625865
   51       -6.624033
   52       -6.622640
   53       -6.599243
   54       -6.580616
   55       -6.557658
   56       -6.550050
   57       -6.547549
   58       -6.546654
   59       -6.534606
   60       -6.514141
   61       -6.508496
   62       -6.467930
   63       -6.425384
   64       -6.416829
   65        1.400820
   66        2.615556
   67        2.659753
   68        2.745585
   69        3.049511
   70        3.079121
   71        3.200330
   72        3.315439
   73        3.334845
   74        3.568800
   75        3.653003
   76        3.703011
   77        3.796470
   78        4.083597
   79        4.088203
   80        4.218586
   81        4.261759
   82        4.359595
   83        4.391720
   84        4.509846
   85        4.529105
   86        4.550781
   87        4.777953
   88        4.844059
   89        4.884275
   90        4.906984
   91        4.972176
   92        5.073959
   93        5.110682
   94        5.137869
   95        5.169138
   96        5.248697
   97        5.298805
   98        5.587079
   99        5.829938
  100        5.937115
  101        6.086202
  102        6.118971
  103        6.149952
  104        6.175400
  105        6.229108
  106        6.274279
 
  0.2500000E+00  0.0000000E+00  0.2500000E+00  0.6250000E-01
    1      -14.774630
    2      -14.661993
    3      -14.594541
    4      -14.525064
    5      -14.504592
    6      -14.499358
    7      -14.481456
    8      -14.460811
    9      -14.454000
   10      -14.432384
   11      -14.431212
   12      -14.396336
   13      -14.361903
   14      -14.357146
   15      -14.350824
   16      -14.328734
   17       -7.490276
   18       -7.486467
   19       -7.485644
   20       -7.448637
   21       -7.421209
   22       -7.392351
   23       -7.341165
   24       -7.339591
   25       -7.245336
   26       -7.238857
   27       -7.232907
   28       -7.228328
   29       -7.202379
   30       -7.175486
   31       -7.040907
   32       -6.980197
   33       -6.962675
   34       -6.940217
   35       -6.887567
   36       -6.877289
   37       -6.851789
   38       -6.823884
   39       -6.805193
   40       -6.797573
   41       -6.793598
   42       -6.751181
   43       -6.721332
   44       -6.712947
   45       -6.697390
   46       -6.664115
   47       -6.644302
   48       -6.639431
   49       -6.638618
   50       -6.630964
   51       -6.612133
   52       -6.606967
   53       -6.597514
   54       -6.583894
   55       -6.575002
   56       -6.555539
   57       -6.543934
   58       -6.536210
   59       -6.522508
   60       -6.513158
   61       -6.507310
   62       -6.480835
   63       -6.439165
   64       -6.433114
   65        1.495070
   66        2.165144
   67        2.768159
   68        2.956248
   69        3.091534
   70        3.126613
   71        3.214127
   72        3.298998
   73        3.478529
   74        3.493363
   75        3.610016
   76        3.705005
   77        3.799927
   78        4.106066
   79        4.114309
   80        4.160878
   81        4.261520
   82        4.277223
   83        4.370361
   84        4.524667
   85        4.552840
   86        4.584575
   87        4.657961
   88        4.833282
   89        4.864614
   90        4.967915
   91        5.076217
   92        5.101251
   93        5.139076
   94        5.152722
   95        5.155709
   96        5.262900
   97        5.274007
   98        5.412416
   99        5.876424
  100        5.948387
  101        5.978388
  102        6.016170
  103        6.088575
  104        6.238602
  105        6.240381
  106        6.321896
 
  0.5000000E+00  0.0000000E+00  0.2500000E+00  0.3125000E-01
    1      -14.729683
    2      -14.729682
    3      -14.566140
    4      -14.566139
    5      -14.501325
    6      -14.501324
    7      -14.457361
    8      -14.457360
    9      -14.430366
   10      -14.430364
   11      -14.409068
   12      -14.409066
   13      -14.357679
   14      -14.357677
   15      -14.355917
   16      -14.355915
   17       -7.499009
   18       -7.499009
   19       -7.410070
   20       -7.410068
   21       -7.405018
   22       -7.405017
   23       -7.337779
   24       -7.337778
   25       -7.291602
   26       -7.291602
   27       -7.248533
   28       -7.248532
   29       -7.223751
   30       -7.223751
   31       -6.988082
   32       -6.988082
   33       -6.948406
   34       -6.948405
   35       -6.855113
   36       -6.855112
   37       -6.833261
   38       -6.833260
   39       -6.775422
   40       -6.775422
   41       -6.773874
   42       -6.773873
   43       -6.732406
   44       -6.732405
   45       -6.704224
   46       -6.704224
   47       -6.638974
   48       -6.638973
   49       -6.604963
   50       -6.604963
   51       -6.600078
   52       -6.600078
   53       -6.594895
   54       -6.594894
   55       -6.577945
   56       -6.577945
   57       -6.549541
   58       -6.549540
   59       -6.514820
   60       -6.514818
   61       -6.470968
   62       -6.470968
   63       -6.470114
   64       -6.470113
   65        1.763412
   66        1.763413
   67        2.837896
   68        2.837897
   69        3.248450
   70        3.248451
   71        3.285018
   72        3.285021
   73        3.440822
   74        3.440823
   75        3.692519
   76        3.692521
   77        3.862087
   78        3.862088
   79        4.185698
   80        4.185700
   81        4.319737
   82        4.319739
   83        4.370864
   84        4.370865
   85        4.537788
   86        4.537790
   87        4.757393
   88        4.757393
   89        4.983914
   90        4.983914
   91        4.997441
   92        4.997442
   93        5.116864
   94        5.116864
   95        5.297078
   96        5.297080
   97        5.372617
   98        5.372617
   99        5.728176
  100        5.728176
  101        5.971108
  102        5.971108
  103        6.204306
  104        6.204307
  105        6.255663
  106        6.255664
 
  0.0000000E+00  0.2500000E+00  0.2500000E+00  0.6250000E-01
    1      -14.761200
    2      -14.588494
    3      -14.585370
    4      -14.575544
    5      -14.532894
    6      -14.513128
    7      -14.494155
    8      -14.453070
    9      -14.449640
   10      -14.449581
   11      -14.449399
   12      -14.387320
   13      -14.373147
   14      -14.345224
   15      -14.339488
   16      -14.323009
   17       -7.490781
   18       -7.479386
   19       -7.449049
   20       -7.427765
   21       -7.410268
   22       -7.396994
   23       -7.383278
   24       -7.212303
   25       -7.193180
   26       -7.192613
   27       -7.171405
   28       -7.141803
   29       -7.110652
   30       -7.097636
   31       -7.091806
   32       -7.072076
   33       -7.052111
   34       -7.007824
   35       -6.957197
   36       -6.911342
   37       -6.861631
   38       -6.813703
   39       -6.809182
   40       -6.793389
   41       -6.757027
   42       -6.751991
   43       -6.744094
   44       -6.742620
   45       -6.717208