   80   80  200    1
  0.1020106E+02  0.1186197E-08  0.8297066E-09  0.8291899E-09  0.5000000E-15
  1.000000000000000E-004
  CAR 
 methane                                 
    128     27    106
 
  0.0000000E+00  0.0000000E+00  0.0000000E+00  0.1562500E-01
    1      -14.832872
    2      -14.622149
    3      -14.594010
    4      -14.565416
    5      -14.505642
    6      -14.500194
    7      -14.452179
    8      -14.446860
    9      -14.445311
   10      -14.418167
   11      -14.417549
   12      -14.417477
   13      -14.341001
   14      -14.339797
   15      -14.294422
   16      -14.229197
   17       -7.572337
   18       -7.562520
   19       -7.545318
   20       -7.524346
   21       -7.454448
   22       -7.387238
   23       -7.382946
   24       -7.227432
   25       -7.212697
   26       -7.195762
   27       -7.179502
   28       -7.167578
   29       -7.163199
   30       -7.119117
   31       -7.056797
   32       -6.995891
   33       -6.966872
   34       -6.959003
   35       -6.935685
   36       -6.910343
   37       -6.871162
   38       -6.849826
   39       -6.835277
   40       -6.789172
   41       -6.736038
   42       -6.718057
   43       -6.708858
   44       -6.703986
   45       -6.699500
   46       -6.693075
   47       -6.668275
   48       -6.650453
   49       -6.632639
   50       -6.611986
   51       -6.562223
   52       -6.549229
   53       -6.548342
   54       -6.536192
   55       -6.527033
   56       -6.511004
   57       -6.506458
   58       -6.497408
   59       -6.444354
   60       -6.433950
   61       -6.428467
   62       -6.378192
   63       -6.363982
   64       -6.310921
   65        1.169781
   66        2.399893
   67        2.479565
   68        3.033197
   69        3.093096
   70        3.164574
   71        3.167390
   72        3.213146
   73        3.576565
   74        3.619552
   75        3.622520
   76        3.634736
   77        3.657016
   78        3.735641
   79        3.772616
   80        3.790661
   81        3.874039
   82        4.246232
   83        4.435821
   84        4.650070
   85        4.739730
   86        4.779640
   87        4.799475
   88        4.908260
   89        4.937237
   90        5.052609
   91        5.165604
   92        5.340599
   93        5.352857
   94        5.463876
   95        5.528636
   96        5.529397
   97        5.540917
   98        5.605465
   99        5.734505
  100        5.843381
  101        5.942280
  102        6.061070
  103        6.208424
  104        6.224408
  105        6.316287
  106        6.427456
 
  0.2500000E+00  0.0000000E+00  0.0000000E+00  0.3125000E-01
    1      -14.814497
    2      -14.680398
    3      -14.608286
    4      -14.507897
    5      -14.504853
    6      -14.501008
    7      -14.474997
    8      -14.450925
    9      -14.446269
   10      -14.417554
   11      -14.417482
   12      -14.355378
   13      -14.342497
   14      -14.340202
   15      -14.315017
   16      -14.245121
   17       -7.577209
   18       -7.527244
   19       -7.520955
   20       -7.514578
   21       -7.482526
   22       -7.387988
   23       -7.284419
   24       -7.277569
   25       -7.250022
   26       -7.224880
   27       -7.195277
   28       -7.181499
   29       -7.179188
   30       -7.132695
   31       -7.094697
   32       -7.090450
   33       -6.955127
   34       -6.923292
   35       -6.917770
   36       -6.912768
   37       -6.870694
   38       -6.843891
   39       -6.837361
   40       -6.746012
   41       -6.737733
   42       -6.737142
   43       -6.718879
   44       -6.711867
   45       -6.664533
   46       -6.660716
   47       -6.641040
   48       -6.615361
   49       -6.577753
   50       -6.563435
   51       -6.558912
   52       -6.558483
   53       -6.547706
   54       -6.528186
   55       -6.527099
   56       -6.511337
   57       -6.504636
   58       -6.479851
   59       -6.479664
   60       -6.446889
   61       -6.429822
   62       -6.412960
   63       -6.388885
   64       -6.354623
   65        1.266247
   66        1.950763
   67        2.926826
   68        3.024672
   69        3.101744
   70        3.137010
   71        3.151773
   72        3.214780
   73        3.521312
   74        3.522118
   75        3.602362
   76        3.613406
   77        3.749743
   78        3.763730
   79        3.821232
   80        3.861958
   81        3.872306
   82        4.087878
   83        4.611970
   84        4.726092
   85        4.804196
   86        4.816744
   87        4.833992
   88        4.966015
   89        4.995460
   90        5.121461
   91        5.135383
   92        5.140376
   93        5.178400
   94        5.277044
   95        5.398417
   96        5.415733
   97        5.496405
   98        5.607355
   99        5.806785
  100        5.978135
  101        5.999272
  102        6.083844
  103        6.179215
  104        6.261120
  105        6.379072
  106        6.392551
 
  0.5000000E+00  0.0000000E+00  0.0000000E+00  0.1562500E-01
    1      -14.761516
    2      -14.761514
    3      -14.568351
    4      -14.568349
    5      -14.502930
    6      -14.502929
    7      -14.448588
    8      -14.448585
    9      -14.417503
   10      -14.417503
   11      -14.385071
   12      -14.385070
   13      -14.337226
   14      -14.337223
   15      -14.289968
   16      -14.289967
   17       -7.568547
   18       -7.568546
   19       -7.436234
   20       -7.436234
   21       -7.427282
   22       -7.427280
   23       -7.362830
   24       -7.362829
   25       -7.284539
   26       -7.284538
   27       -7.153355
   28       -7.153353
   29       -7.132375
   30       -7.132375
   31       -7.046023
   32       -7.046021
   33       -7.037287
   34       -7.037286
   35       -6.984894
   36       -6.984894
   37       -6.812695
   38       -6.812694
   39       -6.800733
   40       -6.800732
   41       -6.703647
   42       -6.703645
   43       -6.661270
   44       -6.661270
   45       -6.639544
   46       -6.639543
   47       -6.616513
   48       -6.616512
   49       -6.580367
   50       -6.580366
   51       -6.519126
   52       -6.519126
   53       -6.517916
   54       -6.517914
   55       -6.514793
   56       -6.514791
   57       -6.483096
   58       -6.483096
   59       -6.455218
   60       -6.455218
   61       -6.454343
   62       -6.454342
   63       -6.450034
   64       -6.450033
   65        1.540450
   66        1.540452
   67        3.046560
   68        3.046563
   69        3.124690
   70        3.124691
   71        3.312893
   72        3.312894
   73        3.347237
   74        3.347238
   75        3.595035
   76        3.595037
   77        3.826900
   78        3.826901
   79        3.879907
   80        3.879908
   81        3.919893
   82        3.919894
   83        4.841222
   84        4.841223
   85        4.860451
   86        4.860453
   87        4.943453
   88        4.943454
   89        5.045822
   90        5.045824
   91        5.105180
   92        5.105181
   93        5.118278
   94        5.118279
   95        5.310461
   96        5.310462
   97        5.333604
   98        5.333605
   99        5.935781
  100        5.935782
  101        6.213082
  102        6.213084
  103        6.344545
  104        6.344924
  105        6.351095
  106        6.364365
 
  0.0000000E+00  0.2500000E+00  0.0000000E+00  0.3125000E-01
    1      -14.801707
    2      -14.601205
    3      -14.600689
    4      -14.581266
    5      -14.548375
    6      -14.513646
    7      -14.467148
    8      -14.463478
    9      -14.431615
   10      -14.418398
   11      -14.417556
   12      -14.381982
   13      -14.355964
   14      -14.304697
   15      -14.301152
   16      -14.237512
   17       -7.590108
   18       -7.494783
   19       -7.486431
   20       -7.481149
   21       -7.480316
   22       -7.412463
   23       -7.352058
   24       -7.216366
   25       -7.189657
   26       -7.168555
   27       -7.160457
   28       -7.154863
   29       -7.092825
   30       -7.090658
   31       -7.073617
   32       -7.073330
   33       -7.062583
   34       -7.008476
   35       -6.909575
   36       -6.882307
   37       -6.882125
   38       -6.867704
   39       -6.865160
   40       -6.864767
   41       -6.788280
   42       -6.736523
   43       -6.703361
   44       -6.699723
   45       -6.682096
   46       -6.636444
   47       -6.613959
   48       -6.604729
   49       -6.596192
   50       -6.589884
   51       -6.564216
   52       -6.559474
   53       -6.555933
   54       -6.544542
   55       -6.529606
   56       -6.522858
   57       -6.509226
   58       -6.505535
   59       -6.475387
   60       -6.455081
   61       -6.446297
   62       -6.417327
   63       -6.381932
   64       -6.339252
   65        1.368189
   66        2.546913
   67        2.613899
   68        2.619067
   69        3.060088
   70        3.150783
   71        3.165939
   72        3.286989
   73        3.412323
   74        3.446396
   75        3.550419
   76        3.698557
   77        3.764904
   78        3.773633
   79        3.845483
   80        3.968084
   81        4.027524
   82        4.258668
   83        4.509049
   84        4.527362
   85        4.700859
   86        4.778418
   87        4.796827
   88        4.998772
   89        5.008980
   90        5.044572
   91        5.104594
   92        5.105869
   93        5.110191
   94        5.408204
   95        5.492611
   96        5.530614
   97        5.607404
   98        5.646987
   99        5.760684
  100        5.832419
  101        5.887242
  102        6.002008
  103        6.030836
  104        6.114514
  105        6.146547
  106        6.190488
 
  0.2500000E+00  0.2500000E+00  0.0000000E+00  0.6250000E-01
    1      -14.784454
    2      -14.659018
    3      -14.592558
    4      -14.588381
    5      -14.536556
    6      -14.493625
    7      -14.471937
    8      -14.457112
    9      -14.441206
   10      -14.428951
   11      -14.389913
   12      -14.354118
   13      -14.346598
   14      -14.320080
   15      -14.309709
   16      -14.252200
   17       -7.579959
   18       -7.509219
   19       -7.483744
   20       -7.482076
   21       -7.451403
   22       -7.399244
   23       -7.306180
   24       -7.277226
   25       -7.253154
   26       -7.237370
   27       -7.163438
   28       -7.156155
   29       -7.115417
   30       -7.085656
   31       -7.043360
   32       -7.037377
   33       -7.000496
   34       -6.990955
   35       -6.945792
   36       -6.899707
   37       -6.890755
   38       -6.886107
   39       -6.851473
   40       -6.802780
   41       -6.736968
   42       -6.728373
   43       -6.712039
   44       -6.704267
   45       -6.684566
   46       -6.666735
   47       -6.634134
   48       -6.608366
   49       -6.601682
   50       -6.580731
   51       -6.578822
   52       -6.572839
   53       -6.554516
   54       -6.540302
   55       -6.518186
   56       -6.506871
   57       -6.503096
   58       -6.494235
   59       -6.467026
   60       -6.455002
   61       -6.454605
   62       -6.440984
   63       -6.380843
   64       -6.344086
   65        1.457175
   66        2.102803
   67        2.649077
   68        2.912610
   69        3.071794
   70        3.141262
   71        3.219392
   72        3.221408
   73        3.486171
   74        3.563918
   75        3.594190
   76        3.713553
   77        3.724002
   78        3.793567
   79        3.836913
   80        3.982680
   81        3.983419
   82        4.114511
   83        4.540135
   84        4.695440
   85        4.715450
   86        4.742336
   87        4.806823
   88        4.948517
   89        4.969833
   90        4.980816
   91        5.115109
   92        5.147476
   93        5.167854
   94        5.228316
   95        5.392785
   96        5.447975
   97        5.505417
   98        5.664070
   99        5.798604
  100        5.862265
  101        5.925514
  102        5.977286
  103        6.031012
  104        6.123273
  105        6.143208
  106        6.277460
 
  0.5000000E+00  0.2500000E+00  0.0000000E+00  0.3125000E-01
    1      -14.734753
    2      -14.734752
    3      -14.570555
    4      -14.570555
    5      -14.549361
    6      -14.549359
    7      -14.448677
    8      -14.448676
    9      -14.410830
   10      -14.410828
   11      -14.382358
   12      -14.382357
   13      -14.323191
   14      -14.323189
   15      -14.293555
   16      -14.293554
   17       -7.546053
   18       -7.546052
   19       -7.485029
   20       -7.485029
   21       -7.368207
   22       -7.368205
   23       -7.348459
   24       -7.348458
   25       -7.264922
   26       -7.264921
   27       -7.124511
   28       -7.124510
   29       -7.118428
   30       -7.118426
   31       -7.089083
   32       -7.089083
   33       -6.987727
   34       -6.987727
   35       -6.912520
   36       -6.912520
   37       -6.821058
   38       -6.821057
   39       -6.819884
   40       -6.819884
   41       -6.743678
   42       -6.743677
   43       -6.732426
   44       -6.732426
   45       -6.645978
   46       -6.645976
   47       -6.631993
   48       -6.631993
   49       -6.594395
   50       -6.594393
   51       -6.588532
   52       -6.588532
   53       -6.564631
   54       -6.564631
   55       -6.512424
   56       -6.512423
   57       -6.503301
   58       -6.503299
   59       -6.462207
   60       -6.462206
   61       -6.409817
   62       -6.409817
   63       -6.384256
   64       -6.384256
   65        1.712736
   66        1.712737
   67        2.745274
   68        2.745275
   69        3.152574
   70        3.152576
   71        3.339126
   72        3.339127
   73        3.496338
   74        3.496339
   75        3.761087
   76        3.761088
   77        3.784435
   78        3.784436
   79        3.792968
   80        3.792968
   81        4.041518
   82        4.041519
   83        4.629319
   84        4.629319
   85        4.714543
   86        4.714544
   87        4.916932
   88        4.916932
   89        4.987506
   90        4.987507
   91        5.069961
   92        5.069963
   93        5.205192
   94        5.205192
   95        5.327715
   96        5.327716
   97        5.504060
   98        5.504060
   99        5.793991
  100        5.793992
  101        6.004998
  102        6.004999
  103        6.115255
  104        6.115255
  105        6.160119
  106        6.160120
 
  0.0000000E+00  0.5000000E+00  0.0000000E+00  0.1562500E-01
    1      -14.716510
    2      -14.716510
    3      -14.556778
    4      -14.556778
    5      -14.533694
    6      -14.533694
    7      -14.506487
    8      -14.506487
    9      -14.417870
   10      -14.417870
   11      -14.394262
   12      -14.394262
   13      -14.326724
   14      -14.326724
   15      -14.262931
   16      -14.262931
   17       -7.581664
   18       -7.581664
   19       -7.355253
   20       -7.355253
   21       -7.341276
   22       -7.341276
   23       -7.318743
   24       -7.318743
   25       -7.277624
   26       -7.277624
   27       -7.228060
   28       -7.228060
   29       -7.058805
   30       -7.058805
   31       -7.006867
   32       -7.006867
   33       -6.985749
   34       -6.985749
   35       -6.953370
   36       -6.953370
   37       -6.916849
   38       -6.916849
   39       -6.869778
   40       -6.869778
   41       -6.761074
   42       -6.761074
   43       -6.690702
   44       -6.690702
   45       -6.687343
   46       -6.687343
   47       -6.638079
   48       -6.638079
   49       -6.572549
   50       -6.572549
   51       -6.556230
   52       -6.556230
   53       -6.526176
   54       -6.526176
   55       -6.510289
   56       -6.510289
   57       -6.498389
   58       -6.498389
   59       -6.492221
   60       -6.492221
   61       -6.427967
   62       -6.427967
   63       -6.420354
   64       -6.420354
   65        1.902281
   66        1.902281
   67        2.865977
   68        2.865977
   69        2.957490
   70        2.957490
   71        3.230461
   72        3.230461
   73        3.386471
   74        3.386471
   75        3.542492
   76        3.542492
   77        3.792719
   78        3.792719
   79        4.119169
   80        4.119169
   81        4.254226
   82        4.254226
   83        4.478676
   84        4.478676
   85        4.545534
   86        4.545534
   87        4.750273
   88        4.750273
   89        5.124561
   90        5.124561
   91        5.222973
   92        5.222973
   93        5.307709
   94        5.307709
   95        5.498724
   96        5.498724
   97        5.668140
   98        5.668140
   99        5.673201
  100        5.673201
  101        5.756809
  102        5.756809
  103        5.789280
  104        5.789280
  105        6.043816
  106        6.043818
 
  0.2500000E+00  0.5000000E+00  0.0000000E+00  0.3125000E-01
    1      -14.702624
    2      -14.702624
    3      -14.603935
    4      -14.603935
    5      -14.532402
    6      -14.532402
    7      -14.460158
    8      -14.460158
    9      -14.449023
   10      -14.449023
   11      -14.353639
   12      -14.353639
   13      -14.339600
   14      -14.339600
   15      -14.273853
   16      -14.273853
   17       -7.561252
   18       -7.561252
   19       -7.429968
   20       -7.429968
   21       -7.371517
   22       -7.371517
   23       -7.332925
   24       -7.332925
   25       -7.220764
   26       -7.220764
   27       -7.145369
   28       -7.145369
   29       -7.059965
   30       -7.059965
   31       -7.027412
   32       -7.027412
   33       -7.004253
   34       -7.004253
   35       -6.955787
   36       -6.955787
   37       -6.856014
   38       -6.856014
   39       -6.842821
   40       -6.842821
   41       -6.807065
   42       -6.807065
   43       -6.725200
   44       -6.725200
   45       -6.653882
   46       -6.653882
   47       -6.644966
   48       -6.644966
   49       -6.606692
   50       -6.606692
   51       -6.585528
   52       -6.585528
   53       -6.554050
   54       -6.554050
   55       -6.529215
   56       -6.529215
   57       -6.509250
   58       -6.509250
   59       -6.467832
   60       -6.467832
   61       -6.394877
   62       -6.394877
   63       -6.388851
   64       -6.388851
   65        1.969238
   66        1.969238
   67        2.487527
   68        2.487527
   69        3.261640
   70        3.261640
   71        3.371674
   72        3.371674
   73        3.383806
   74        3.383806
   75        3.595867
   76        3.595867
   77        3.752094
   78        3.752094
   79        4.136902
   80        4.136902
   81        4.242925
   82        4.242925
   83        4.334272
   84        4.334272
   85        4.539071
   86        4.539071
   87        4.692139
   88        4.692139
   89        5.057755
   90        5.057755
   91        5.329490
   92        5.329490
   93        5.366873
   94        5.366873
   95        5.450642
   96        5.450642
   97        5.582847
   98        5.582847
   99        5.635973
  100        5.635973
  101        5.719125
  102        5.719125
  103        5.795899
  104        5.795899
  105        6.119615
  106        6.119617
 
  0.5000000E+00  0.5000000E+00  0.0000000E+00  0.1562500E-01
    1      -14.662961
    2      -14.662961
    3      -14.662960
    4      -14.662960
    5      -14.503786
    6      -14.503786
    7      -14.503785
    8      -14.503785
    9      -14.386259
   10      -14.386259
   11      -14.386258
   12      -14.386258
   13      -14.304647
   14      -14.304647
   15      -14.304645
   16      -14.304645
   17       -7.506716
   18       -7.506715
   19       -7.506715
   20       -7.506715
   21       -7.374953
   22       -7.374953
   23       -7.374953
   24       -7.374953
   25       -7.138004
   26       -7.138004
   27       -7.138002
   28       -7.138002
   29       -7.017048
   30       -7.017047
   31       -7.017047
   32       -7.017047
   33       -7.000920
   34       -7.000920
   35       -7.000920
   36       -7.000920
   37       -6.858090
   38       -6.858090
   39       -6.858089
   40       -6.858089
   41       -6.744260
   42       -6.744260
   43       -6.744260
   44       -6.744260
   45       -6.682002
   46       -6.682002
   47       -6.682002
   48       -6.682002
   49       -6.605254
   50       -6.605254
   51       -6.605253
   52       -6.605253
   53       -6.559327
   54       -6.559327
   55       -6.559326
   56       -6.559326
   57       -6.483004
   58       -6.483004
   59       -6.483003
   60       -6.483003
   61       -6.368235
   62       -6.368235
   63       -6.368234
   64       -6.368234
   65        2.167591
   66        2.167591
   67        2.167592
   68        2.167592
   69        3.325839
   70        3.325839
   71        3.325840
   72        3.325840
   73        3.633777
   74        3.633777
   75        3.633778
   76        3.633778
   77        3.934855
   78        3.934855
   79        3.934855
   80        3.934855
   81        4.203844
   82        4.203844
   83        4.203845
   84        4.203845
   85        4.591673
   86        4.591673
   87        4.591673
   88        4.591674
   89        5.151965
   90        5.151965
   91        5.151966
   92        5.151966
   93        5.440841
   94        5.440841
   95        5.440841
   96        5.440841
   97        5.559263
   98        5.559263
   99        5.559263
  100        5.559263
  101        5.803844
  102        5.803844
  103        5.803844
  104        5.803844
  105        6.223277
  106        6.223277
 
  0.0000000E+00  0.0000000E+00  0.2500000E+00  0.3125000E-01
    1      -14.805928
    2      -14.658560
    3      -14.572627
    4      -14.548582
    5      -14.490275
    6      -14.485901
    7      -14.464782
    8      -14.459643
    9      -14.433085
   10      -14.430280
   11      -14.425668
   12      -14.419406
   13      -14.357197
   14      -14.355717
   15      -14.284849
   16      -14.238844
   17       -7.524514
   18       -7.509165
   19       -7.487260
   20       -7.465446
   21       -7.385505
   22       -7.311691
   23       -7.311298
   24       -7.294068
   25       -7.261082
   26       -7.255357
   27       -7.191997
   28       -7.164540
   29       -7.102199
   30       -7.077649
   31       -7.007521
   32       -6.999820
   33       -6.983903
   34       -6.982666
   35       -6.932313
   36       -6.892241
   37       -6.846530
   38       -6.839036
   39       -6.828580
   40       -6.808013
   41       -6.804831
   42       -6.733535
   43       -6.717155
   44       -6.695464
   45       -6.688246
   46       -6.686676
   47       -6.669183
   48       -6.662973
   49       -6.662168
   50       -6.632181
   51       -6.615886
   52       -6.597217
   53       -6.572985
   54       -6.551857
   55       -6.551496
   56       -6.549926
   57       -6.541452
   58       -6.497995
   59       -6.487500
   60       -6.467831
   61       -6.459583
   62       -6.368816
   63       -6.358079
   64       -6.335787
   65        1.387839
   66        2.548638
   67        2.620209
   68        2.758668
   69        3.099324
   70        3.136985
   71        3.280443
   72        3.293884
   73        3.370761
   74        3.378037
   75        3.712426
   76        3.758042
   77        3.797129
   78        3.965417
   79        4.062074
   80        4.137617
   81        4.233448
   82        4.234808
   83        4.375716
   84        4.438224
   85        4.515216
   86        4.649572
   87        4.808616
   88        4.841363
   89        4.904967
   90        4.930958
   91        5.007608
   92        5.032322
   93        5.229492
   94        5.272947
   95        5.369652
   96        5.393726
   97        5.550043
   98        5.849898
   99        5.857140
  100        5.872270
  101        6.115052
  102        6.133508
  103        6.217464
  104        6.325236
  105        6.376450
  106        6.497323
 
  0.2500000E+00  0.0000000E+00  0.2500000E+00  0.6250000E-01
    1      -14.788063
    2      -14.657709
    3      -14.643785
    4      -14.536939
    5      -14.491019
    6      -14.486688
    7      -14.458483
    8      -14.440337
    9      -14.432624
   10      -14.424476
   11      -14.422983
   12      -14.373228
   13      -14.357077
   14      -14.356140
   15      -14.305904
   16      -14.255944
   17       -7.493933
   18       -7.491825
   19       -7.469172
   20       -7.451542
   21       -7.446421
   22       -7.330727
   23       -7.274940
   24       -7.263963
   25       -7.229362
   26       -7.226695
   27       -7.216124
   28       -7.195107
   29       -7.187011
   30       -7.155551
   31       -7.058593
   32       -7.007215
   33       -6.959767
   34       -6.945936
   35       -6.881371
   36       -6.873544
   37       -6.870570
   38       -6.840209
   39       -6.828654
   40       -6.823958
   41       -6.821471
   42       -6.760472
   43       -6.724678
   44       -6.709984
   45       -6.685318
   46       -6.651409
   47       -6.645795
   48       -6.639190
   49       -6.635714
   50       -6.609012
   51       -6.569512
   52       -6.567566
   53       -6.563693
   54       -6.544448
   55       -6.540667
   56       -6.528291
   57       -6.522420
   58       -6.517326
   59       -6.516755
   60       -6.472715
   61       -6.471580
   62       -6.412152
   63       -6.378828
   64       -6.360006
   65        1.478770
   66        2.124572
   67        2.784878
   68        2.999693
   69        3.042466
   70        3.161111
   71        3.281733
   72        3.290721
   73        3.337470
   74        3.491624
   75        3.645719
   76        3.771077
   77        3.773369
   78        3.944643
   79        3.985334
   80        4.158028
   81        4.165159
   82        4.229045
   83        4.434353
   84        4.476341
   85        4.593275
   86        4.645998
   87        4.792305
   88        4.862056
   89        4.868717
   90        4.886419
   91        5.102754
   92        5.180032
   93        5.180629
   94        5.205579
   95        5.334770
   96        5.407274
   97        5.548796
   98        5.597000
   99        5.945818
  100        6.034988
  101        6.138848
  102        6.216865
  103        6.221816
  104        6.264051
  105        6.395105
  106        6.403742
 
  0.5000000E+00  0.0000000E+00  0.2500000E+00  0.3125000E-01
    1      -14.736542
    2      -14.736541
    3      -14.601366
    4      -14.601365
    5      -14.488603
    6      -14.488602
    7      -14.436636
    8      -14.436634
    9      -14.423242
   10      -14.423242
   11      -14.375797
   12      -14.375797
   13      -14.349659
   14      -14.349657
   15      -14.303932
   16      -14.303931
   17       -7.489681
   18       -7.489681
   19       -7.400936
   20       -7.400934
   21       -7.400450
   22       -7.400450
   23       -7.348388
   24       -7.348387
   25       -7.244311
   26       -7.244310
   27       -7.175471
   28       -7.175470
   29       -7.139797
   30       -7.139796
   31       -7.025312
   32       -7.025312
   33       -7.018297
   34       -7.018296
   35       -6.943977
   36       -6.943976
   37       -6.832694
   38       -6.832692
   39       -6.800404
   40       -6.800403
   41       -6.776474
   42       -6.776473
   43       -6.681738
   44       -6.681738
   45       -6.665771
   46       -6.665771
   47       -6.634883
   48       -6.634883
   49       -6.598217
   50       -6.598216
   51       -6.568642
   52       -6.568640
   53       -6.547184
   54       -6.547182
   55       -6.523184
   56       -6.523183
   57       -6.506434
   58       -6.506433
   59       -6.492494
   60       -6.492494
   61       -6.437148
   62       -6.437148
   63       -6.433906
   64       -6.433905
   65        1.737467
   66        1.737469
   67        2.866089
   68        2.866089
   69        3.245458
   70        3.245460
   71        3.282488
   72        3.282488
   73        3.421897
   74        3.421898
   75        3.668325
   76        3.668326
   77        3.812987
   78        3.812989
   79        4.055518
   80        4.055519
   81        4.197656
   82        4.197658
   83        4.546025
   84        4.546026
   85        4.610518
   86        4.610520
   87        4.780898
   88        4.780899
   89        4.968387
   90        4.968387
   91        5.003860
   92        5.003861
   93        5.260984
   94        5.260984
   95        5.475313
   96        5.475314
   97        5.519549
   98        5.519550
   99        5.947335
  100        5.947335
  101        6.047686
  102        6.047687
  103        6.401036
  104        6.401301
  105        6.401589
  106        6.438452
 
  0.0000000E+00  0.2500000E+00  0.2500000E+00  0.6250000E-01
    1      -14.775733
    2      -14.635161
    3      -14.582499
    4      -14.560036
    5      -14.531804
    6      -14.498371
    7      -14.487237
    8      -14.449288
    9      -14.448201
   10      -14.444599
   11      -14.429008
   12      -14.372179
   13      -14.369283
   14      -14.314166
   15      -14.291480
   16      -14.246535
   17       -7.503110
   18       -7.457410
   19       -7.448288
   20       -7.442070
   21       -7.418897
   22       -7.337347
   23       -7.290098
   24       -7.242057
   25       -7.212175
   26       -7.179653
   27       -7.156625
   28       -7.135745
   29       -7.113989
   30       -7.100974
   31       -7.084512
   32       -7.028882
   33       -7.012988
   34       -7.010775
   35       -6.938523
   36       -6.913738
   37       -6.870606
   38       -6.869053
   39       -6.821761
   40       -6.820709
   41       -6.818926
   42       -6.791058
   43       -6.740975
   44       -6.695588
   45       -6.674132