       N       E                     dE             d eps       ncg     rms          rms(c)
DAV:   1     0.451751121202E+03    0.45175E+03   -0.54772E+04  5740   0.109E+03
DAV:   2    -0.350878018871E+03   -0.80263E+03   -0.78062E+03  6860   0.217E+02
DAV:   3    -0.433422335523E+03   -0.82544E+02   -0.82070E+02  7320   0.682E+01
DAV:   4    -0.435702592721E+03   -0.22803E+01   -0.22774E+01  7168   0.136E+01
DAV:   5    -0.435759024471E+03   -0.56432E-01   -0.56417E-01  7352   0.196E+00    0.337E+01
DAV:   6    -0.390867189062E+03    0.44892E+02   -0.92323E+01  6184   0.206E+01    0.143E+01
DAV:   7    -0.385899541016E+03    0.49676E+01   -0.12132E+01  6744   0.791E+00    0.811E+00
DAV:   8    -0.384815470483E+03    0.10841E+01   -0.32135E+00  6834   0.442E+00    0.255E+00
DAV:   9    -0.384697768357E+03    0.11770E+00   -0.18205E-01  7096   0.102E+00    0.101E+00
DAV:  10    -0.384716306946E+03   -0.18539E-01   -0.30109E-01  6232   0.118E+00    0.611E-01
DAV:  11    -0.384707555022E+03    0.87519E-02   -0.32336E-02  6512   0.372E-01    0.186E-01
DAV:  12    -0.384707567704E+03   -0.12682E-04   -0.34120E-03  6824   0.162E-01    0.752E-02
DAV:  13    -0.384707474903E+03    0.92801E-04   -0.67918E-04  6408   0.556E-02    0.347E-02
DAV:  14    -0.384707498974E+03   -0.24071E-04   -0.21939E-04  6400   0.382E-02    0.988E-03
DAV:  15    -0.384707496800E+03    0.21735E-05   -0.83422E-06  7344   0.772E-03    0.232E-03
DAV:  16    -0.384707496947E+03   -0.14648E-06   -0.52813E-07  4184   0.233E-03
   1 F= -.38726540E+03 E0= -.38726540E+03  d E =-.387265E+03
       N       E                     dE             d eps       ncg     rms          rms(c)
DAV:   1    -0.384707468759E+03    0.28042E-04   -0.27522E-02  6010   0.494E-01    0.446E-02
DAV:   2    -0.384707520327E+03   -0.51569E-04   -0.84064E-04  6776   0.762E-02    0.387E-02
DAV:   3    -0.384707499685E+03    0.20642E-04   -0.57428E-05  7304   0.247E-02    0.998E-03
DAV:   4    -0.384707500577E+03   -0.89129E-06   -0.14107E-05  6542   0.956E-03    0.369E-03
DAV:   5    -0.384707500608E+03   -0.31022E-07   -0.70321E-07  3598   0.254E-03
   2 F= -.38726539E+03 E0= -.38726539E+03  d E =0.113428E-04
       N       E                     dE             d eps       ncg     rms          rms(c)
DAV:   1    -0.384707649507E+03   -0.14893E-03   -0.71709E-03  5972   0.252E-01    0.230E-02
DAV:   2    -0.384707661997E+03   -0.12490E-04   -0.21733E-04  6752   0.388E-02    0.199E-02
DAV:   3    -0.384707655949E+03    0.60479E-05   -0.15741E-05  6846   0.130E-02    0.465E-03
DAV:   4    -0.384707656123E+03   -0.17440E-06   -0.37676E-06  4716   0.504E-03
   3 F= -.38726555E+03 E0= -.38726555E+03  d E =-.151724E-03
