diamond                                 
           1
    11.861969    0.000000    0.000000
     0.000000    8.297066    0.000000
     0.000000    0.000000    8.291899
   H    C 
  64  16
Direct configuration=     1
   0.07560405  0.81709273  0.16748153
   0.92439598  0.18290727  0.83251850
   0.92439598  0.68290727  0.66748150
   0.07560405  0.31709273  0.33251847
   0.92439598  0.31709273  0.33251847
   0.07560405  0.68290727  0.66748150
   0.07560405  0.18290727  0.83251850
   0.92439598  0.81709273  0.16748153
   0.57560402  0.31709273  0.16748153
   0.42439595  0.68290727  0.83251850
   0.42439595  0.18290727  0.66748150
   0.57560402  0.81709273  0.33251847
   0.42439595  0.81709273  0.33251847
   0.57560402  0.18290727  0.66748150
   0.57560402  0.68290727  0.83251850
   0.42439595  0.31709273  0.16748153
   0.81469109  0.58435233  0.93300258
   0.18530891  0.41564767  0.06699742
   0.18530891  0.91564767  0.43300258
   0.81469109  0.08435233  0.56699742
   0.18530891  0.08435233  0.56699742
   0.81469109  0.91564767  0.43300258
   0.81469109  0.41564767  0.06699742
   0.18530891  0.58435233  0.93300258
   0.31469109  0.08435233  0.93300258
   0.68530891  0.91564767  0.06699742
   0.68530891  0.41564767  0.43300258
   0.31469109  0.58435233  0.56699742
   0.68530891  0.58435233  0.56699742
   0.31469109  0.41564767  0.43300258
   0.31469109  0.91564767  0.06699742
   0.68530891  0.08435233  0.93300258
   0.70797835  0.56730843  0.08427995
   0.29202165  0.43269157  0.91572005
   0.29202165  0.93269157  0.58427995
   0.70797835  0.06730843  0.41572005
   0.29202165  0.06730843  0.41572005
   0.70797835  0.93269157  0.58427995
   0.70797835  0.43269157  0.91572005
   0.29202165  0.56730843  0.08427995
   0.20797835  0.06730843  0.08427995
   0.79202165  0.93269157  0.91572005
   0.79202165  0.43269157  0.58427995
   0.20797835  0.56730843  0.41572005
   0.79202165  0.56730843  0.41572005
   0.20797835  0.43269157  0.58427995
   0.20797835  0.93269157  0.91572005
   0.79202165  0.06730843  0.08427995
   0.00000000  0.63111369  0.14949836
   0.00000000  0.36888631  0.85050161
   0.00000000  0.86888631  0.64949839
   0.00000000  0.13111369  0.35050164
   0.50000000  0.13111369  0.14949836
   0.50000000  0.86888631  0.85050161
   0.50000000  0.36888631  0.64949839
   0.50000000  0.63111369  0.35050164
   0.00000000  0.27239992  0.51332621
   0.00000000  0.72760008  0.48667379
   0.00000000  0.22760008  0.01332621
   0.00000000  0.77239992  0.98667379
   0.50000000  0.77239992  0.51332621
   0.50000000  0.22760008  0.48667379
   0.50000000  0.72760008  0.01332621
   0.50000000  0.27239992  0.98667379
   0.00000000  0.25935253  0.38173496
   0.00000000  0.74064747  0.61826503
   0.00000000  0.24064747  0.88173497
   0.00000000  0.75935253  0.11826503
   0.50000000  0.75935253  0.38173496
   0.50000000  0.24064747  0.61826503
   0.50000000  0.74064747  0.88173497
   0.50000000  0.25935253  0.11826503
   0.76128312  0.50000000  0.00000000
   0.23871688  0.50000000  0.00000000
   0.23871688  0.00000000  0.50000000
   0.76128312  0.00000000  0.50000000
   0.26128312  0.00000000  0.00000000
   0.73871688  0.00000000  0.00000000
   0.73871688  0.50000000  0.50000000
   0.26128312  0.50000000  0.50000000
Direct configuration=     2
   0.07558320  0.81708515  0.16754241
   0.92441682  0.18291485  0.83245761
   0.92441682  0.68291485  0.66754239
   0.07558320  0.31708515  0.33245759
   0.92441682  0.31708515  0.33245759
   0.07558320  0.68291485  0.66754239
   0.07558320  0.18291485  0.83245761
   0.92441682  0.81708515  0.16754241
   0.57558318  0.31708515  0.16754241
   0.42441679  0.68291485  0.83245761
   0.42441679  0.18291485  0.66754239
   0.57558318  0.81708515  0.33245759
   0.42441679  0.81708515  0.33245759
   0.57558318  0.18291485  0.66754239
   0.57558318  0.68291485  0.83245761
   0.42441679  0.31708515  0.16754241
   0.81468301  0.58435122  0.93300049
   0.18531699  0.41564878  0.06699951
   0.18531699  0.91564878  0.43300049
   0.81468301  0.08435122  0.56699951
   0.18531699  0.08435122  0.56699951
   0.81468301  0.91564878  0.43300049
   0.81468301  0.41564878  0.06699951
   0.18531699  0.58435122  0.93300049
   0.31468301  0.08435122  0.93300049
   0.68531699  0.91564878  0.06699951
   0.68531699  0.41564878  0.43300049
   0.31468301  0.58435122  0.56699951
   0.68531699  0.58435122  0.56699951
   0.31468301  0.41564878  0.43300049
   0.31468301  0.91564878  0.06699951
   0.68531699  0.08435122  0.93300049
   0.70797226  0.56732049  0.08427657
   0.29202774  0.43267951  0.91572343
   0.29202774  0.93267951  0.58427657
   0.70797226  0.06732049  0.41572343
   0.29202774  0.06732049  0.41572343
   0.70797226  0.93267951  0.58427657
   0.70797226  0.43267951  0.91572343
   0.29202774  0.56732049  0.08427657
   0.20797226  0.06732049  0.08427657
   0.79202774  0.93267951  0.91572343
   0.79202774  0.43267951  0.58427657
   0.20797226  0.56732049  0.41572343
   0.79202774  0.56732049  0.41572343
   0.20797226  0.43267951  0.58427657
   0.20797226  0.93267951  0.91572343
   0.79202774  0.06732049  0.08427657
   0.00000000  0.63102181  0.14956842
   0.00000000  0.36897819  0.85043155
   0.00000000  0.86897819  0.64956845
   0.00000000  0.13102181  0.35043158
   0.50000000  0.13102181  0.14956842
   0.50000000  0.86897819  0.85043155
   0.50000000  0.36897819  0.64956845
   0.50000000  0.63102181  0.35043158
   0.00000000  0.27239535  0.51319056
   0.00000000  0.72760465  0.48680944
   0.00000000  0.22760465  0.01319056
   0.00000000  0.77239535  0.98680944
   0.50000000  0.77239535  0.51319056
   0.50000000  0.22760465  0.48680944
   0.50000000  0.72760465  0.01319056
   0.50000000  0.27239535  0.98680944
   0.00000000  0.25946278  0.38172749
   0.00000000  0.74053722  0.61827250
   0.00000000  0.24053722  0.88172750
   0.00000000  0.75946278  0.11827250
   0.50000000  0.75946278  0.38172749
   0.50000000  0.24053722  0.61827250
   0.50000000  0.74053722  0.88172750
   0.50000000  0.25946278  0.11827250
   0.76127969  0.50000000  0.00000000
   0.23872031  0.50000000  0.00000000
   0.23872031 -0.00000000  0.50000000
   0.76127969 -0.00000000  0.50000000
   0.26127969 -0.00000000  0.00000000
   0.73872031 -0.00000000  0.00000000
   0.73872031  0.50000000  0.50000000
   0.26127969  0.50000000  0.50000000
Direct configuration=     3
   0.07559386  0.81708903  0.16751128
   0.92440616  0.18291097  0.83248875
   0.92440616  0.68291097  0.66751125
   0.07559386  0.31708903  0.33248872
   0.92440616  0.31708903  0.33248872
   0.07559386  0.68291097  0.66751125
   0.07559386  0.18291097  0.83248875
   0.92440616  0.81708903  0.16751128
   0.57559384  0.31708903  0.16751128
   0.42440613  0.68291097  0.83248875
   0.42440613  0.18291097  0.66751125
   0.57559384  0.81708903  0.33248872
   0.42440613  0.81708903  0.33248872
   0.57559384  0.18291097  0.66751125
   0.57559384  0.68291097  0.83248875
   0.42440613  0.31708903  0.16751128
   0.81468714  0.58435179  0.93300156
   0.18531286  0.41564821  0.06699844
   0.18531286  0.91564821  0.43300156
   0.81468714  0.08435179  0.56699844
   0.18531286  0.08435179  0.56699844
   0.81468714  0.91564821  0.43300156
   0.81468714  0.41564821  0.06699844
   0.18531286  0.58435179  0.93300156
   0.31468714  0.08435179  0.93300156
   0.68531286  0.91564821  0.06699844
   0.68531286  0.41564821  0.43300156
   0.31468714  0.58435179  0.56699844
   0.68531286  0.58435179  0.56699844
   0.31468714  0.41564821  0.43300156
   0.31468714  0.91564821  0.06699844
   0.68531286  0.08435179  0.93300156
   0.70797537  0.56731432  0.08427830
   0.29202463  0.43268568  0.91572170
   0.29202463  0.93268568  0.58427830
   0.70797537  0.06731432  0.41572170
   0.29202463  0.06731432  0.41572170
   0.70797537  0.93268568  0.58427830
   0.70797537  0.43268568  0.91572170
   0.29202463  0.56731432  0.08427830
   0.20797537  0.06731432  0.08427830
   0.79202463  0.93268568  0.91572170
   0.79202463  0.43268568  0.58427830
   0.20797537  0.56731432  0.41572170
   0.79202463  0.56731432  0.41572170
   0.20797537  0.43268568  0.58427830
   0.20797537  0.93268568  0.91572170
   0.79202463  0.06731432  0.08427830
   0.00000000  0.63106879  0.14953260
   0.00000000  0.36893121  0.85046737
   0.00000000  0.86893121  0.64953263
   0.00000000  0.13106879  0.35046740
   0.50000000  0.13106879  0.14953260
   0.50000000  0.86893121  0.85046737
   0.50000000  0.36893121  0.64953263
   0.50000000  0.63106879  0.35046740
   0.00000000  0.27239769  0.51325992
   0.00000000  0.72760231  0.48674008
   0.00000000  0.22760231  0.01325992
   0.00000000  0.77239769  0.98674008
   0.50000000  0.77239769  0.51325992
   0.50000000  0.22760231  0.48674008
   0.50000000  0.72760231  0.01325992
   0.50000000  0.27239769  0.98674008
   0.00000000  0.25940641  0.38173131
   0.00000000  0.74059359  0.61826868
   0.00000000  0.24059359  0.88173132
   0.00000000  0.75940641  0.11826868
   0.50000000  0.75940641  0.38173131
   0.50000000  0.24059359  0.61826868
   0.50000000  0.74059359  0.88173132
   0.50000000  0.25940641  0.11826868
   0.76128145  0.50000000  0.00000000
   0.23871855  0.50000000  0.00000000
   0.23871855 -0.00000000  0.50000000
   0.76128145 -0.00000000  0.50000000
   0.26128145 -0.00000000  0.00000000
   0.73871855 -0.00000000  0.00000000
   0.73871855  0.50000000  0.50000000
   0.26128145  0.50000000  0.50000000
