diamond                                 
           1
    11.861969    0.000000    0.000000
     0.000000    8.297066    0.000000
     0.000000    0.000000    8.291899
   H    C 
  64  16
Direct configuration=     1
   0.07559519  0.81709850  0.16755296
   0.92440483  0.18290150  0.83244707
   0.92440483  0.68290150  0.66755293
   0.07559519  0.31709850  0.33244704
   0.92440483  0.31709850  0.33244704
   0.07559519  0.68290150  0.66755293
   0.07559519  0.18290150  0.83244707
   0.92440483  0.81709850  0.16755296
   0.57559517  0.31709850  0.16755296
   0.42440480  0.68290150  0.83244707
   0.42440480  0.18290150  0.66755293
   0.57559517  0.81709850  0.33244704
   0.42440480  0.81709850  0.33244704
   0.57559517  0.18290150  0.66755293
   0.57559517  0.68290150  0.83244707
   0.42440480  0.31709850  0.16755296
   0.81468326  0.58435143  0.93299933
   0.18531674  0.41564857  0.06700067
   0.18531674  0.91564857  0.43299933
   0.81468326  0.08435143  0.56700067
   0.18531674  0.08435143  0.56700067
   0.81468326  0.91564857  0.43299933
   0.81468326  0.41564857  0.06700067
   0.18531674  0.58435143  0.93299933
   0.31468326  0.08435143  0.93299933
   0.68531674  0.91564857  0.06700067
   0.68531674  0.41564857  0.43299933
   0.31468326  0.58435143  0.56700067
   0.68531674  0.58435143  0.56700067
   0.31468326  0.41564857  0.43299933
   0.31468326  0.91564857  0.06700067
   0.68531674  0.08435143  0.93299933
   0.70797275  0.56731942  0.08427485
   0.29202725  0.43268058  0.91572515
   0.29202725  0.93268058  0.58427485
   0.70797275  0.06731942  0.41572515
   0.29202725  0.06731942  0.41572515
   0.70797275  0.93268058  0.58427485
   0.70797275  0.43268058  0.91572515
   0.29202725  0.56731942  0.08427485
   0.20797275  0.06731942  0.08427485
   0.79202725  0.93268058  0.91572515
   0.79202725  0.43268058  0.58427485
   0.20797275  0.56731942  0.41572515
   0.79202725  0.56731942  0.41572515
   0.20797275  0.43268058  0.58427485
   0.20797275  0.93268058  0.91572515
   0.79202725  0.06731942  0.08427485
   0.00000000  0.63110246  0.14955242
   0.00000000  0.36889754  0.85044755
   0.00000000  0.86889754  0.64955245
   0.00000000  0.13110246  0.35044758
   0.50000000  0.13110246  0.14955242
   0.50000000  0.86889754  0.85044755
   0.50000000  0.36889754  0.64955245
   0.50000000  0.63110246  0.35044758
   0.00000000  0.27240600  0.51323879
   0.00000000  0.72759400  0.48676121
   0.00000000  0.22759400  0.01323879
   0.00000000  0.77240600  0.98676121
   0.50000000  0.77240600  0.51323879
   0.50000000  0.22759400  0.48676121
   0.50000000  0.72759400  0.01323879
   0.50000000  0.27240600  0.98676121
   0.00000000  0.25934474  0.38165845
   0.00000000  0.74065526  0.61834153
   0.00000000  0.24065526  0.88165847
   0.00000000  0.75934474  0.11834153
   0.50000000  0.75934474  0.38165845
   0.50000000  0.24065526  0.61834153
   0.50000000  0.74065526  0.88165847
   0.50000000  0.25934474  0.11834153
   0.76127579  0.50000000  0.00000000
   0.23872421  0.50000000  0.00000000
   0.23872421  0.00000000  0.50000000
   0.76127579  0.00000000  0.50000000
   0.26127579  0.00000000  0.00000000
   0.73872421  0.00000000  0.00000000
   0.73872421  0.50000000  0.50000000
   0.26127579  0.50000000  0.50000000
Direct configuration=     2
   0.07558215  0.81708966  0.16761874
   0.92441787  0.18291034  0.83238128
   0.92441787  0.68291034  0.66761872
   0.07558215  0.31708966  0.33238126
   0.92441787  0.31708966  0.33238126
   0.07558215  0.68291034  0.66761872
   0.07558215  0.18291034  0.83238128
   0.92441787  0.81708966  0.16761874
   0.57558213  0.31708966  0.16761874
   0.42441784  0.68291034  0.83238128
   0.42441784  0.18291034  0.66761872
   0.57558213  0.81708966  0.33238126
   0.42441784  0.81708966  0.33238126
   0.57558213  0.18291034  0.66761872
   0.57558213  0.68291034  0.83238128
   0.42441784  0.31708966  0.16761874
   0.81467520  0.58434843  0.93299658
   0.18532480  0.41565157  0.06700342
   0.18532480  0.91565157  0.43299658
   0.81467520  0.08434843  0.56700342
   0.18532480  0.08434843  0.56700342
   0.81467520  0.91565157  0.43299658
   0.81467520  0.41565157  0.06700342
   0.18532480  0.58434843  0.93299658
   0.31467520  0.08434843  0.93299658
   0.68532480  0.91565157  0.06700342
   0.68532480  0.41565157  0.43299658
   0.31467520  0.58434843  0.56700342
   0.68532480  0.58434843  0.56700342
   0.31467520  0.41565157  0.43299658
   0.31467520  0.91565157  0.06700342
   0.68532480  0.08434843  0.93299658
   0.70796657  0.56732888  0.08427109
   0.29203343  0.43267112  0.91572891
   0.29203343  0.93267112  0.58427109
   0.70796657  0.06732888  0.41572891
   0.29203343  0.06732888  0.41572891
   0.70796657  0.93267112  0.58427109
   0.70796657  0.43267112  0.91572891
   0.29203343  0.56732888  0.08427109
   0.20796657  0.06732888  0.08427109
   0.79203343  0.93267112  0.91572891
   0.79203343  0.43267112  0.58427109
   0.20796657  0.56732888  0.41572891
   0.79203343  0.56732888  0.41572891
   0.20796657  0.43267112  0.58427109
   0.20796657  0.93267112  0.91572891
   0.79203343  0.06732888  0.08427109
  -0.00000000  0.63101045  0.14962751
  -0.00000000  0.36898955  0.85037246
  -0.00000000  0.86898955  0.64962754
  -0.00000000  0.13101045  0.35037249
   0.50000000  0.13101045  0.14962751
   0.50000000  0.86898955  0.85037246
   0.50000000  0.36898955  0.64962754
   0.50000000  0.63101045  0.35037249
  -0.00000000  0.27240258  0.51311900
  -0.00000000  0.72759742  0.48688100
  -0.00000000  0.22759742  0.01311900
  -0.00000000  0.77240258  0.98688100
   0.50000000  0.77240258  0.51311900
   0.50000000  0.22759742  0.48688100
   0.50000000  0.72759742  0.01311900
   0.50000000  0.27240258  0.98688100
  -0.00000000  0.25945635  0.38165044
  -0.00000000  0.74054365  0.61834955
  -0.00000000  0.24054365  0.88165045
  -0.00000000  0.75945635  0.11834955
   0.50000000  0.75945635  0.38165044
   0.50000000  0.24054365  0.61834955
   0.50000000  0.74054365  0.88165045
   0.50000000  0.25945635  0.11834955
   0.76127254  0.50000000 -0.00000000
   0.23872746  0.50000000 -0.00000000
   0.23872746  0.00000000  0.50000000
   0.76127254  0.00000000  0.50000000
   0.26127254  0.00000000 -0.00000000
   0.73872746  0.00000000 -0.00000000
   0.73872746  0.50000000  0.50000000
   0.26127254  0.50000000  0.50000000
Direct configuration=     3
   0.07558873  0.81709412  0.16758556
   0.92441129  0.18290588  0.83241446
   0.92441129  0.68290588  0.66758554
   0.07558873  0.31709412  0.33241444
   0.92441129  0.31709412  0.33241444
   0.07558873  0.68290588  0.66758554
   0.07558873  0.18290588  0.83241446
   0.92441129  0.81709412  0.16758556
   0.57558871  0.31709412  0.16758556
   0.42441126  0.68290588  0.83241446
   0.42441126  0.18290588  0.66758554
   0.57558871  0.81709412  0.33241444
   0.42441126  0.81709412  0.33241444
   0.57558871  0.18290588  0.66758554
   0.57558871  0.68290588  0.83241446
   0.42441126  0.31709412  0.16758556
   0.81467927  0.58434994  0.93299796
   0.18532073  0.41565006  0.06700204
   0.18532073  0.91565006  0.43299796
   0.81467927  0.08434994  0.56700204
   0.18532073  0.08434994  0.56700204
   0.81467927  0.91565006  0.43299796
   0.81467927  0.41565006  0.06700204
   0.18532073  0.58434994  0.93299796
   0.31467927  0.08434994  0.93299796
   0.68532073  0.91565006  0.06700204
   0.68532073  0.41565006  0.43299796
   0.31467927  0.58434994  0.56700204
   0.68532073  0.58434994  0.56700204
   0.31467927  0.41565006  0.43299796
   0.31467927  0.91565006  0.06700204
   0.68532073  0.08434994  0.93299796
   0.70796969  0.56732411  0.08427299
   0.29203031  0.43267589  0.91572701
   0.29203031  0.93267589  0.58427299
   0.70796969  0.06732411  0.41572701
   0.29203031  0.06732411  0.41572701
   0.70796969  0.93267589  0.58427299
   0.70796969  0.43267589  0.91572701
   0.29203031  0.56732411  0.08427299
   0.20796969  0.06732411  0.08427299
   0.79203031  0.93267589  0.91572701
   0.79203031  0.43267589  0.58427299
   0.20796969  0.56732411  0.41572701
   0.79203031  0.56732411  0.41572701
   0.20796969  0.43267589  0.58427299
   0.20796969  0.93267589  0.91572701
   0.79203031  0.06732411  0.08427299
  -0.00000000  0.63105685  0.14958964
  -0.00000000  0.36894315  0.85041033
  -0.00000000  0.86894315  0.64958967
  -0.00000000  0.13105685  0.35041036
   0.50000000  0.13105685  0.14958964
   0.50000000  0.86894315  0.85041033
   0.50000000  0.36894315  0.64958967
   0.50000000  0.63105685  0.35041036
  -0.00000000  0.27240431  0.51317942
  -0.00000000  0.72759569  0.48682058
  -0.00000000  0.22759569  0.01317942
  -0.00000000  0.77240431  0.98682058
   0.50000000  0.77240431  0.51317942
   0.50000000  0.22759569  0.48682058
   0.50000000  0.72759569  0.01317942
   0.50000000  0.27240431  0.98682058
  -0.00000000  0.25940006  0.38165448
  -0.00000000  0.74059994  0.61834550
  -0.00000000  0.24059994  0.88165450
  -0.00000000  0.75940006  0.11834550
   0.50000000  0.75940006  0.38165448
   0.50000000  0.24059994  0.61834550
   0.50000000  0.74059994  0.88165450
   0.50000000  0.25940006  0.11834550
   0.76127418  0.50000000 -0.00000000
   0.23872582  0.50000000 -0.00000000
   0.23872582  0.00000000  0.50000000
   0.76127418  0.00000000  0.50000000
   0.26127418  0.00000000 -0.00000000
   0.73872582  0.00000000 -0.00000000
   0.73872582  0.50000000  0.50000000
   0.26127418  0.50000000  0.50000000
