    4    4  200    1
  0.8817899E+01  0.2466437E-09  0.2466437E-09  0.6698068E-09  0.5000000E-15
  1.000000000000000E-004
  CAR 
 graphite                                
     16    455     12
 
  0.0000000E+00  0.0000000E+00  0.0000000E+00  0.3858025E-03
    1      -14.940180
    2      -14.635974
    3       -3.814828
    4       -1.831743
    5        1.686852
    6        1.703269
    7        1.705969
    8        1.721771
    9        9.012275
   10       13.023887
   11       13.030182
   12       13.076753
 
  0.5555556E-01 -0.6938894E-17  0.0000000E+00  0.1543210E-02
    1      -14.866513
    2      -14.563601
    3       -3.725353
    4       -1.748131
    5        1.396924
    6        1.423290
    7        1.532073
    8        1.556322
    9        9.100960
   10       13.057778
   11       13.124056
   12       13.358745
 
  0.1111111E+00 -0.1387779E-16  0.0000000E+00  0.1543210E-02
    1      -14.645729
    2      -14.346839
    3       -3.457798
    4       -1.498501
    5        0.569779
    6        0.613703
    7        1.111264
    8        1.144746
    9        9.367710
   10       13.071729
   11       13.184686
   12       14.244102
 
  0.1666667E+00  0.1387779E-16  0.0000000E+00  0.1543210E-02
    1      -14.278992
    2      -13.986778
    3       -3.014729
    4       -1.086913
    5       -0.616602
    6       -0.551033
    7        0.547746
    8        0.588974
    9        9.812748
   10       12.968292
   11       13.153555
   12       13.860756
 
  0.2222222E+00 -0.2775558E-16  0.0000000E+00  0.1543210E-02
    1      -13.768263
    2      -13.485301
    3       -2.401273
    4       -2.003888
    5       -1.914990
    6       -0.521287
    7       -0.049897
    8       -0.002862
    9       10.433417
   10       12.422697
   11       12.757686
   12       13.015563
 
  0.2777778E+00  0.0000000E+00  0.0000000E+00  0.1543210E-02
    1      -13.116644
    2      -12.845392
    3       -3.477160
    4       -3.364700
    5       -1.626918
    6       -0.605592
    7       -0.554829
    8        0.182721
    9       10.826454
   10       11.219795
   11       11.561652
   12       12.506295
 
  0.3333333E+00  0.2775558E-16  0.0000000E+00  0.1543210E-02
    1      -12.329264
    2      -12.072159
    3       -4.958925
    4       -4.823108
    5       -1.071991
    6       -1.018783
    7       -0.709114
    8        0.993496
    9        9.201079
   10       10.107622
   11       12.069763
   12       12.316419
 
  0.3888889E+00  0.0000000E+00  0.0000000E+00  0.1543210E-02
    1      -11.415762
    2      -11.176043
    3       -6.393422
    4       -6.236415
    5       -1.421187
    6       -1.366119
    7        0.313526
    8        1.833650
    9        7.694938
   10        8.701251
   11       12.047739
   12       12.402886
 
  0.4444444E+00 -0.5551115E-16  0.0000000E+00  0.1543210E-02
    1      -10.403706
    2      -10.189620
    3       -7.719461
    4       -7.550368
    5       -1.636422
    6       -1.580147
    7        1.335774
    8        2.485878
    9        6.569985
   10        7.489230
   11       11.931149
   12       12.322350
 
  0.5000000E+00 -0.5551115E-16  0.0000000E+00  0.7716049E-03
    1       -9.604987
    2       -9.490514
    3       -8.534944
    4       -8.448850
    5       -1.708905
    6       -1.652232
    7        1.929292
    8        2.626931
    9        6.208910
   10        6.889484
   11       11.890266
   12       12.290406
 
  0.5555556E-01  0.5555556E-01  0.0000000E+00  0.7716049E-03
    1      -14.719180
    2      -14.418920
    3       -3.546732
    4       -1.581447
    5        0.867922
    6        0.893660
    7        1.218188
    8        1.239461
    9        9.279018
   10       13.160433
   11       13.245396
   12       13.857231
 
  0.1111111E+00  0.5555556E-01  0.0000000E+00  0.1543210E-02
    1      -14.425321
    2      -14.130421
    3       -3.191283
    4       -1.250600
    5       -0.087722
    6       -0.043108
    7        0.673010
    8        0.705255
    9        9.635952
   10       13.245023
   11       13.382372
   12       14.332250
 
  0.1666667E+00  0.5555556E-01  0.0000000E+00  0.1543210E-02
    1      -13.986471
    2      -13.699556
    3       -2.662660
    4       -1.335640
    5       -1.264335
    6       -0.761394
    7        0.047497
    8        0.091653
    9       10.170832
   10       13.058083
   11       13.152226
   12       13.369946
 
  0.2222222E+00  0.5555556E-01  0.0000000E+00  0.1543210E-02
    1      -13.405161
    2      -13.128738
    3       -2.741005
    4       -2.643943
    5       -1.967825
    6       -0.557538
    7       -0.505424
    8       -0.124876
    9       10.879156
   10       11.563528
   11       12.168870
   12       12.941062
 
  0.2777778E+00  0.5555556E-01  0.0000000E+00  0.1543210E-02
    1      -12.685429
    2      -12.421926
    3       -4.204072
    4       -4.082265
    5       -1.119572
    6       -1.085136
    7       -1.028172
    8        0.637301
    9        9.966908
   10       10.754183
   11       11.745349
   12       12.703553
 
  0.3333333E+00  0.5555556E-01  0.0000000E+00  0.1543210E-02
    1      -11.834117
    2      -11.586509
    3       -5.654690
    4       -5.509805
    5       -1.502261
    6       -1.442076
    7       -0.143052
    8        1.477687
    9        8.399793
   10        9.334572
   11       12.428743
   12       12.680218
 
  0.3888889E+00  0.5555556E-01  0.0000000E+00  0.1543210E-02
    1      -10.866420
    2      -10.638441
    3       -7.037087
    4       -6.873144
    5       -1.789258
    6       -1.727179
    7        0.901272
    8        2.268711
    9        7.048709
   10        8.014722
   11       12.303793
   12       12.688584
 
  0.4444444E+00  0.5555556E-01  0.0000000E+00  0.1543210E-02
    1       -9.855028
    2       -9.672737
    3       -8.232503
    4       -8.079799
    5       -1.935432
    6       -1.872377
    7        1.813237
    8        2.680244
    9        6.283150
   10        7.022609
   11       12.223888
   12       12.630383
 
  0.5000000E+00  0.5555556E-01  0.0000000E+00  0.1543210E-02
    1       -9.856489
    2       -9.674043
    3       -8.230892
    4       -8.078089
    5       -1.935824
    6       -1.872735
    7        1.812437
    8        2.680171
    9        6.283014
   10        7.023611
   11       12.224356
   12       12.630857
 
 -0.4444444E+00  0.5555556E-01  0.0000000E+00  0.1543210E-02
    1      -10.868003
    2      -10.640013
    3       -7.034892
    4       -6.870902
    5       -1.790446
    6       -1.728330
    7        0.900023
    8        2.267924
    9        7.049023
   10        8.016354
   11       12.305185
   12       12.689921
 
 -0.3888889E+00  0.5555556E-01  0.0000000E+00  0.1543210E-02
    1      -11.835516
    2      -11.587901
    3       -5.652306
    4       -5.507379
    5       -1.504126
    6       -1.443891
    7       -0.144257
    8        1.476634
    9        8.400083
   10        9.336222
   11       12.430644
   12       12.680484
 
 -0.3333333E+00  0.5555556E-01  0.0000000E+00  0.1543210E-02
    1      -12.686623
    2      -12.423123
    3       -4.201713
    4       -4.079852
    5       -1.120710
    6       -1.087540
    7       -1.030427
    8        0.636260
    9        9.966677
   10       10.755654
   11       11.743818
   12       12.706492
 
 -0.2777778E+00  0.5555556E-01  0.0000000E+00  0.1543210E-02
    1      -13.406133
    2      -13.129703
    3       -2.739043
    4       -2.641937
    5       -1.968795
    6       -0.559761
    7       -0.507626
    8       -0.125795
    9       10.877823
   10       11.562416
   11       12.170072
   12       12.944678
 
 -0.2222222E+00  0.5555556E-01  0.0000000E+00  0.1543210E-02
    1      -13.987225
    2      -13.700305
    3       -2.663434
    4       -1.334998
    5       -1.263710
    6       -0.762140
    7        0.046562
    8        0.090587
    9       10.169771
   10       13.056201
   11       13.156154
   12       13.374059
 
 -0.1666667E+00  0.5555556E-01  0.0000000E+00  0.1543210E-02
    1      -14.425850
    2      -14.130949
    3       -3.191846
    4       -1.251146
    5       -0.090575
    6       -0.046027
    7        0.675910
    8        0.707685
    9        9.635174
   10       13.248149
   11       13.386538
   12       14.330489
 
 -0.1111111E+00  0.5555556E-01  0.0000000E+00  0.1543210E-02
    1      -14.719477
    2      -14.419249
    3       -3.547073
    4       -1.581742
    5        0.857690
    6        0.884115
    7        1.228078
    8        1.249138
    9        9.278535
   10       13.162101
   11       13.248344
   12       13.861254
 
 -0.5555556E-01  0.5555556E-01  0.0000000E+00  0.7716049E-03
    1      -14.866621
    2      -14.563707
    3       -3.725467
    4       -1.748243
    5        1.384621
    6        1.411400
    7        1.544341
    8        1.568310
    9        9.100795
   10       13.060616
   11       13.125154
   12       13.353158
 
  0.1111111E+00  0.1111111E+00  0.0000000E+00  0.7716049E-03
    1      -14.059311
    2      -13.771077
    3       -2.749977
    4       -0.987616
    5       -0.947542
    6       -0.841786
    7       -0.028909
    8       -0.000299
    9       10.084139
   10       13.306760
   11       13.660296
   12       13.685847
 
  0.1666667E+00  0.1111111E+00  0.0000000E+00  0.1543210E-02
    1      -13.550032
    2      -13.270938
    3       -2.139373
    4       -2.138375
    5       -2.073837
    6       -0.777257
    7       -0.733313
    8       -0.280257
    9       10.709613
   10       12.029214
   11       12.485822
   12       13.813380
 
  0.2222222E+00  0.1111111E+00  0.0000000E+00  0.1543210E-02
    1      -12.900520
    2      -12.633134
    3       -3.468764
    4       -3.371245
    5       -1.427129
    6       -1.368428
    7       -1.366642
    8        0.419409
    9       10.578056
   10       11.177566
   11       11.506469
   12       13.678885
 
  0.2777778E+00  0.1111111E+00  0.0000000E+00  0.1543210E-02
    1      -12.116331
    2      -11.863356
    3       -4.868520
    4       -4.742551
    5       -1.942322
    6       -1.872227
    7       -0.454426
    8        1.227276
    9        9.060864
   10        9.824405
   11       12.460123
   12       13.473414
 
  0.3333333E+00  0.1111111E+00  0.0000000E+00  0.1543210E-02
    1      -11.207667
    2      -10.971893
    3       -6.254984
    4       -6.105041
    5       -2.315379
    6       -2.240064
    7        0.566052
    8        2.071089
    9        7.621431
   10        8.498399
   11       13.238437
   12       13.513410
 
  0.3888889E+00  0.1111111E+00  0.0000000E+00  0.1543210E-02
    1      -10.203426
    2       -9.993220
    3       -7.551935
    4       -7.388268
    5       -2.541773
    6       -2.463778
    7        1.592115
    8        2.739660
    9        6.525701
   10        7.325692
   11       13.143725
   12       13.576304
 
  0.4444444E+00  0.1111111E+00  0.0000000E+00  0.1543210E-02
    1       -9.416232
    2       -9.303704
    3       -8.350961
    4       -8.268676
    5       -2.618215
    6       -2.539299
    7        2.195981
    8        2.887558
    9        6.191740
   10        6.711014
   11       13.103419
   12       13.549281
 
  0.5000000E+00  0.1111111E+00  0.0000000E+00  0.1543210E-02
    1      -10.206671
    2       -9.996397
    3       -7.547949
    4       -7.384123
    5       -2.543174
    6       -2.465136
    7        1.589853
    8        2.738713
    9        6.525507
   10        7.328847
   11       13.145343
   12       13.577874
 
 -0.4444444E+00  0.1111111E+00  0.0000000E+00  0.1543210E-02
    1      -11.210664
    2      -10.974879
    3       -6.250442
    4       -6.100387
    5       -2.318042
    6       -2.242638
    7        0.563522
    8        2.069110
    9        7.621665
   10        8.501899
   11       13.241141
   12       13.512039
 
 -0.3888889E+00  0.1111111E+00  0.0000000E+00  0.1543210E-02
    1      -12.118902
    2      -11.865931
    3       -4.863942
    4       -4.737847
    5       -1.945835
    6       -1.875522
    7       -0.456816
    8        1.225124
    9        9.060273
   10        9.827721
   11       12.456687
   12       13.478038
 
 -0.3333333E+00  0.1111111E+00  0.0000000E+00  0.1543210E-02
    1      -12.902681
    2      -12.635281
    3       -3.465011
    4       -3.367362
    5       -1.430456
    6       -1.370530
    7       -1.369924
    8        0.417421
    9       10.575763
   10       11.180498
   11       11.503530
   12       13.685144
 
 -0.2777778E+00  0.1111111E+00  0.0000000E+00  0.1543210E-02
    1      -13.551756
    2      -13.272652
    3       -2.141114
    4       -2.137569
    5       -2.072838
    6       -0.778009
    7       -0.734141
    8       -0.281936
    9       10.707244
   10       12.024868
   11       12.488168
   12       13.821670
 
 -0.2222222E+00  0.1111111E+00  0.0000000E+00  0.1543210E-02
    1      -14.060602
    2      -13.772358
    3       -2.751312
    4       -0.993353
    5       -0.952324
    6       -0.843087
    7       -0.023718
    8        0.005146
    9       10.082335
   10       13.300767
   11       13.668278
   12       13.701039
 
 -0.1666667E+00  0.1111111E+00  0.0000000E+00  0.1543210E-02
    1      -14.426151
    2      -14.131272
    3       -3.192185
    4       -1.251447
    5       -0.099583
    6       -0.054202
    7        0.684722
    8        0.717044
    9        9.634725
   10       13.258322
   11       13.395872
   12       14.324669
 
 -0.1111111E+00  0.1111111E+00  0.0000000E+00  0.7716049E-03
    1      -14.646158
    2      -14.347265
    3       -3.458252
    4       -1.498947
    5        0.556639
    6        0.600904
    7        1.124683
    8        1.157960
    9        9.367083
   10       13.080931
   11       13.193742
   12       14.245228
 
  0.1666667E+00  0.1666667E+00  0.0000000E+00  0.7716049E-03
    1      -12.972385
    2      -12.703720
    3       -3.055231
    4       -3.000448
    5       -1.694803
    6       -1.654721
    7       -1.451802
    8        0.346230
    9       10.832446
   10       11.312684
   11       11.423623
   12       14.607408
 
  0.2222222E+00  0.1666667E+00  0.0000000E+00  0.1543210E-02
    1      -12.258278
    2      -12.002620
    3       -4.183104
    4       -4.097807
    5       -2.469289
    6       -2.408033
    7       -0.612045
    8        1.098550
    9        9.506250
   10       10.070597
   11       12.304342
   12       14.789174
 
  0.2777778E+00  0.1666667E+00  0.0000000E+00  0.1543210E-02
    1      -11.415537
    2      -11.175558
    3       -5.456159
    4       -5.333287
    5       -3.013709
    6       -2.931494
    7        0.356663
    8        1.936000
    9        8.131841
   10        8.821427
   11       13.337150
   12       14.636827
 
  0.3333333E+00  0.1666667E+00  0.0000000E+00  0.1543210E-02
    1      -10.460676
    2      -10.240610
    3       -6.744327
    4       -6.595083
    5       -3.356810
    6       -3.264650
    7        1.400149
    8        2.747742
    9        6.880936
   10        7.626455
   11       14.390620
   12       14.576883
 
  0.3888889E+00  0.1666667E+00  0.0000000E+00  0.1543210E-02
    1       -9.468260
    2       -9.293102
    3       -7.887723
    4       -7.745943
    5       -3.524365
    6       -3.428207
    7        2.333143
    8        3.198096
    9        6.166517
   10        6.647171
   11       14.375822
   12       14.916219
 
  0.4444444E+00  0.1666667E+00  0.0000000E+00  0.1543210E-02
    1       -9.472644
    2       -9.297071
    3       -7.883252
    4       -7.740810
    5       -3.525248
    6       -3.429047
    7        2.330684
    8        3.197866
    9        6.164283
   10        6.651709
   11       14.376782
   12       14.917034
 
  0.5000000E+00  0.1666667E+00  0.0000000E+00  0.1543210E-02
    1      -10.465425
    2      -10.245333
    3       -6.737957
    4       -6.588460
    5       -3.359274
    6       -3.267026
    7        1.396468
    8        2.745204
    9        6.880058
   10        7.632183
   11       14.389809
   12       14.572495
 
 -0.4444444E+00  0.1666667E+00  0.0000000E+00  0.1543210E-02
    1      -11.419738
    2      -11.179748
    3       -5.449813
    4       -5.326670
    5       -3.017130
    6       -2.934767
    7        0.352984
    8        1.932730
    9        8.130136
   10        8.827090
   11       13.331381
   12       14.641557
 
 -0.3888889E+00  0.1666667E+00  0.0000000E+00  0.1543210E-02
    1      -12.261842
    2      -12.006171
    3       -4.178732
    4       -4.093015
    5       -2.471679
    6       -2.410272
    7       -0.615391
    8        1.095363
    9        9.502203
   10       10.075806
   11       12.299514
   12       14.797396
 
 -0.3333333E+00  0.1666667E+00  0.0000000E+00  0.1543210E-02
    1      -12.975283
    2      -12.706614
    3       -3.056723
    4       -3.000675
    5       -1.692696
    6       -1.651823
    7       -1.454666
    8        0.343433
    9       10.825931
   10       11.316607
   11       11.419702
   12       14.627276
 
 -0.2777778E+00  0.1666667E+00  0.0000000E+00  0.1543210E-02
    1      -13.552291
    2      -13.273185
    3       -2.146191
    4       -2.141667
    5       -2.080533
    6       -0.768937
    7       -0.724441
    8       -0.282521
    9       10.706563
   10       12.021474
   11       12.487321
   12       13.839801
 
 -0.2222222E+00  0.1666667E+00  0.0000000E+00  0.1543210E-02
    1      -13.988080
    2      -13.701157
    3       -2.664330
    4       -1.347433
    5       -1.275601
    6       -0.763051
    7        0.060362
    8        0.104529
    9       10.168638
   10       13.050483
   11       13.175816
   12       13.392796
 
 -0.1666667E+00  0.1666667E+00  0.0000000E+00  0.7716049E-03
    1      -14.279999
    2      -13.987737
    3       -3.015743
    4       -1.087966
    5       -0.630052
    6       -0.564148
    7        0.562339
    8        0.603424
    9        9.811415
   10       12.986713
   11       13.171361
   12       13.855570
 
  0.2222222E+00  0.2222222E+00  0.0000000E+00  0.7716049E-03
    1      -11.485122
    2      -11.243954
    3       -4.977470
    4       -4.908083
    5       -3.431897
    6       -3.379856
    7        0.285649
    8        1.888311
    9        8.355060
   10        8.920706
   11       13.258061
   12       15.901767
 
  0.2777778E+00  0.2222222E+00  0.0000000E+00  0.1543210E-02
    1      -10.593312
    2      -10.369458
    3       -5.995703
    4       -5.890711
    5       -4.104742
    6       -4.026162
    7        1.293835
    8        2.736029
    9        7.166118
   10        7.791276
   11       14.344563
   12       15.949723
 
  0.3333333E+00  0.2222222E+00  0.0000000E+00  0.1543210E-02
    1       -9.613881
    2       -9.415526
    3       -7.123084
    4       -6.985726
    5       -4.458633
    6       -4.357844
    7        2.331426
    8        3.471489
    9        6.153098
   10        6.740620
   11       15.496810
   12       15.830327
 
  0.3888889E+00  0.2222222E+00  0.0000000E+00  0.1543210E-02
    1       -8.850940
    2       -8.744375
    3       -7.861745
    4       -7.801030
    5       -4.567410
    6       -4.460690
    7        2.985882
    8        3.655244
    9        5.974031
   10        5.981474
   11       15.739327
   12       16.501017
 
  0.4444444E+00  0.2222222E+00  0.0000000E+00  0.1543210E-02
    1       -9.620399
    2       -9.421956
    3       -7.115582
    4       -6.977634
    5       -4.460265
    6       -4.359337
    7        2.326966
    8        3.469149
    9        6.149473
   10        6.749135
   11       15.487646
   12       15.830222
 
  0.5000000E+00  0.2222222E+00  0.0000000E+00  0.1543210E-02
    1      -10.599324
    2      -10.375471
    3       -5.988679
    4       -5.883013
    5       -4.106662
    6       -4.027807
    7        1.288979
    8        2.731671
    9        7.162672
   10        7.799596
   11       14.336063
   12       15.953230
 
 -0.4444444E+00  0.2222222E+00  0.0000000E+00  0.1543210E-02
    1      -11.490310
    2      -11.249140
    3       -4.975252
    4       -4.904220
    5       -3.430800
    6       -3.377707
    7        0.281047
    8        1.883778
    9        8.349482
   10        8.927907
   11       13.251034
   12       15.922508
 
 -0.3888889E+00  0.2222222E+00  0.0000000E+00  0.1543210E-02
    1      -12.262599
    2      -12.006929
    3       -4.186970
    4       -4.100307
    5       -2.462645
    6       -2.400535
    7       -0.616123
    8        1.094436
    9        9.498892
   10       10.075017
   11       12.298621
   12       14.824241
 
 -0.3333333E+00  0.2222222E+00  0.0000000E+00  0.1543210E-02
    1      -12.903958
    2      -12.636563
    3       -3.476889
    4       -3.378680
    5       -1.416105
    6       -1.371823
    7       -1.355232
    8        0.415959
    9       10.569744
   10       11.178380
   11       11.501982
   12       13.712077
 
 -0.2777778E+00  0.2222222E+00  0.0000000E+00  0.1543210E-02
    1      -13.407740
    2      -13.131301
    3       -2.752163
    4       -2.654714
    5       -1.970441
    6       -0.543462
    7       -0.491363
    8       -0.127538
    9       10.875835
   10       11.554861
   11       12.166888
   12       12.970474
 
 -0.2222222E+00  0.2222222E+00  0.0000000E+00  0.7716049E-03
    1      -13.769994
    2      -13.487009
    3       -2.403046
    4       -2.017003
    5       -1.927890
    6       -0.523093
    7       -0.034150
    8        0.012773
    9       10.431183
   10       12.414655
   11       12.782399
   12       12.970630
 
  0.2777778E+00  0.2777778E+00  0.0000000E+00  0.7716049E-03
    1       -9.670094
    2       -9.467454
    3       -6.616736
    4       -6.533755
    5       -4.971009
    6       -4.913089
    7        2.319316
    8        3.572140
    9        6.159263
   10        6.793468
   11       15.434275
   12       16.274172
 
  0.3333333E+00  0.2777778E+00  0.0000000E+00  0.1543210E-02
    1       -8.717189
    2       -8.554658
    3       -7.436659
    4       -7.336744
    5       -5.413881
    6       -5.333987
    7        3.310803
    8        4.189074
    9        5.368034
   10        5.913478
   11       16.025723
   12       16.111680
 
  0.3888889E+00  0.2777778E+00  0.0000000E+00  0.1543210E-02
    1       -8.724899
    2       -8.561923
    3       -7.430031
    4       -7.328113
    5       -5.414089
    6       -5.333983
    7        3.306572
    8        4.188526
    9        5.361856
   10        5.922720
   11       16.048717
   12       16.094051
 
  0.4444444E+00  0.2777778E+00  0.0000000E+00  0.1543210E-02
    1       -9.678131
    2       -9.475561
    3       -6.611700
    4       -6.526647
    5       -4.969668
    6       -4.910493
    7        2.313724
    8        3.566464
    9        6.155143
   10        6.803480
   11       15.422491
   12       16.288323
 
  0.5000000E+00  0.2777778E+00  0.0000000E+00  0.1543210E-02
    1      -10.600374
    2      -10.376562
    3       -5.995811
    4       -5.889329
    5       -4.098514
    6       -4.018914
    7        1.288197
    8        2.729800
    9        7.160742
   10        7.799047
   11       14.335009
   12       15.987761
 
 -0.4444444E+00  0.2777778E+00  0.0000000E+00  0.1543210E-02
    1      -11.421506
    2      -11.181543
    3       -5.460412
    4       -5.336789
    5       -3.003491
    6       -2.920884
    7        0.351425
    8        1.930240
    9        8.125350
   10        8.825202
   11       13.329523
   12       14.674724
 
 -0.3888889E+00  0.2777778E+00  0.0000000E+00  0.1543210E-02
    1      -12.121176
    2      -11.868214
    3       -4.875964
    4       -4.749565
    5       -1.929286
    6       -1.858972
    7       -0.458979
    8        1.222334
    9        9.053307
   10        9.824121
   11       12.454444
   12       13.509035
 
 -0.3333333E+00  0.2777778E+00  0.0000000E+00  0.1543210E-02
    1      -12.689196
    2      -12.425688
    3       -4.214180
    4       -4.092065
    5       -1.123258
    6       -1.069845
    7       -1.012914
    8        0.633346
    9        9.958408
   10       10.750959
   11       11.741326
   12       12.736049
 
 -0.2777778E+00  0.2777778E+00  0.0000000E+00  0.7716049E-03
    1      -13.119324
    2      -12.848056
    3       -3.489378
    4       -3.376658
    5       -1.629614
    6       -0.588802
    7       -0.538135
    8        0.179848
    9       10.817670
   10       11.216745
   11       11.557340
   12       12.535479
 
  0.3333333E+00  0.3333333E+00  0.0000000E+00  0.7716049E-03
    1       -7.961410
    2       -7.863506
    3       -7.861390
    4       -7.767380
    5       -5.814703
    6       -5.813752
    7        4.054649
    8        4.669285
    9        4.678201
   10        5.417715
   11       15.835179
   12       15.859605
 
  0.3888889E+00  0.3333333E+00  0.0000000E+00  0.1543210E-02
    1       -8.727433
    2       -8.565642
    3       -7.432176
    4       -7.330879
    5       -5.408480
    6       -5.327434
    7        3.306762
    8        4.179033
    9        5.366627
   10        5.923608
   11       16.037441
   12       16.103126
 
  0.4444444E+00  0.3333333E+00  0.0000000E+00  0.1543210E-02
    1       -9.623191
    2       -9.425127
    3       -7.123003
    4       -6.985018
    5       -4.448874
    6       -4.347645
    7        2.325881
    8        3.462096
    9        6.149817
   10        6.748157
   11       15.487361
   12       15.865237
 
  0.5000000E+00  0.3333333E+00  0.0000000E+00  0.1543210E-02
    1      -10.468623
    2      -10.248686
    3       -6.747652
    4       -6.598059
    5       -3.344311
    6       -3.252008
    7        1.394278
    8        2.739401
    9        6.876770
   10        7.629178
   11       14.404648
   12       14.592970
 
 -0.4444444E+00  0.3333333E+00  0.0000000E+00  0.1543210E-02
    1      -11.214229
    2      -10.978515
    3       -6.261151
    4       -6.110949
    5       -2.300766
    6       -2.225431
    7        0.560542
    8        2.064023
    9        7.615857
   10        8.496997
   11       13.268916
   12       13.527852
 
 -0.3888889E+00  0.3333333E+00  0.0000000E+00  0.1543210E-02
    1      -11.839466
    2      -11.591740
    3       -5.663376
    4       -5.518300
    5       -1.485872
    6       -1.425738
    7       -0.147745
    8        1.471953
    9        8.392670
   10        9.330305
   11       12.456501
   12       12.699506
 
 -0.3333333E+00  0.3333333E+00  0.0000000E+00  0.7716049E-03
    1      -12.333146
    2      -12.076052
    3       -4.969808
    4       -4.833775
    5       -1.054366
    6       -1.001257
    7       -0.712834
    8        0.989153
    9        9.192829
   10       10.102125
   11       12.075906
   12       12.343122
 
  0.3888889E+00  0.3888889E+00  0.0000000E+00  0.7716049E-03
    1       -8.860108
    2       -8.755982
    3       -7.860972
    4       -7.801735
    5       -4.555980
    6       -4.449038
    7        2.985650
    8        3.639641
    9        5.977088
   10        5.983651
   11       15.775402
   12       16.530528
 
  0.4444444E+00  0.3888889E+00  0.0000000E+00  0.1543210E-02
    1       -9.478756
    2       -9.304486
    3       -7.888646
    4       -7.747153
    5       -3.510359
    6       -3.414163
    7        2.329515
    8        3.184508
    9        6.167315
   10        6.647089
   11       14.413135
   12       14.953888
 
  0.5000000E+00  0.3888889E+00  0.0000000E+00  0.1543210E-02
    1      -10.212181
    2      -10.002327
    3       -7.556063
    4       -7.392433
    5       -2.525931
    6       -2.447968
    7        1.586869
    8        2.728672
    9        6.524236
   10        7.322473
   11       13.179978
   12       13.612566
 
 -0.4444444E+00  0.3888889E+00  0.0000000E+00  0.1543210E-02
    1      -10.873440
    2      -10.645610
    3       -7.043905
    4       -6.879876
    5       -1.771964
    6       -1.709952
    7        0.895962
    8        2.260013
    9        7.044712
   10        8.009273
   11       12.338288
   12       12.722809
 
 -0.3888889E+00  0.3888889E+00  0.0000000E+00  0.7716049E-03
    1      -11.421145
    2      -11.181492
    3       -6.402563
    4       -6.245423
    5       -1.402949
    6       -1.347979
    7        0.308927
    8        1.827018
    9        7.688782
   10        8.694778
   11       12.080193
   12       12.434542
 
  0.4444444E+00  0.4444444E+00  0.0000000E+00  0.7716049E-03
    1       -9.426392
    2       -9.316428
    3       -8.352097
    4       -8.271631
    5       -2.601483
    6       -2.522632
    7        2.195077
    8        2.870645
    9        6.196728
   10        6.702556
   11       13.139294
   12       13.585463
 
  0.5000000E+00  0.4444444E+00  0.0000000E+00  0.1543210E-02
    1       -9.864740
    2       -9.683490
    3       -8.235852
    4       -8.083873
    5       -1.917458
    6       -1.854460
    7        1.809985
    8        2.665656
    9        6.285416
   10        7.013962
   11       12.258733
   12       12.665305
 
 -0.4444444E+00  0.4444444E+00  0.0000000E+00  0.7716049E-03
    1      -10.411181
    2      -10.197468
    3       -7.726088
    4       -7.557178
    5       -1.617820
    6       -1.561632
    7        1.331367
    8        2.474795
    9        6.568627
   10        7.481076
   11       11.965008
   12       12.356181
 
  0.5000000E+00  0.5000000E+00  0.0000000E+00  0.3858025E-03
    1       -9.615474
    2       -9.503614
    3       -8.536507
    4       -8.452293
    5       -1.690171
    6       -1.633592
    7        1.928122
    8        2.609599
    9        6.213522
   10        6.878037
   11       11.924484
   12       12.324658
 