32   
4    

1    
  0.0034554842889698  -0.0000013444620359   0.0093840090857322
  -0.2243874600    0.0072003500   -0.1343745000
   0.0276299500    0.0062210900   -0.0050433600
  -0.0090956800   -0.0149968400   -0.0049794200
  -0.0091811500    0.0275442900   -0.0052065100
  -0.0124920400    0.0060442300    0.0019901400
  -0.0124723200    0.0060431500    0.0020185200
  -0.0124792300    0.0060361100    0.0020187700
  -0.0124824800    0.0060468000    0.0020188400
   0.0114399500   -0.0070349000   -0.0020638600
   0.0112565800   -0.0071212500   -0.0021303000
   0.0114205000   -0.0069167000   -0.0020944700
   0.0112472500   -0.0070323700   -0.0013616100
   0.0113979300   -0.0059716100   -0.0021466900
   0.0115729200   -0.0060483500   -0.0020826400
   0.0115486700   -0.0061655400   -0.0021156900
   0.0113787600   -0.0060645400   -0.0012997200
   0.0096059900   -0.0057945300    0.0121884500
   0.0369624900   -0.0065211300    0.0469892600
   0.0826272600    0.0204510700    0.0474099900
   0.0827653400   -0.0322894000    0.0465209400
   0.0117721300   -0.0056819300   -0.0002440900
   0.0117749400   -0.0056796900   -0.0002260600
   0.0117721400   -0.0056797000   -0.0002270000
   0.0117743500   -0.0056784100   -0.0002235400
  -0.0110332100    0.0067285100    0.0007563600
  -0.0105137400    0.0068355900    0.0007859400
  -0.0108678700    0.0063450400    0.0007728300
  -0.0106993400    0.0066361700    0.0000254200
  -0.0103306300    0.0054520500    0.0007901800
  -0.0107727200    0.0055664200    0.0007417100
  -0.0106521600    0.0058898900    0.0007544500
  -0.0104871400    0.0056361300    0.0000376300

1    
 -0.0034554842889698   0.0000013444620359  -0.0093840090857322
   0.2030010100    0.0071969900    0.1343084600
  -0.0490014200    0.0061920400    0.0049935600
  -0.0121870600    0.0274727100    0.0050577500
  -0.0122729900   -0.0150753800    0.0050266300
  -0.0100500500    0.0064296500   -0.0019951400
  -0.0100719900    0.0064302900   -0.0020268600
  -0.0100590400    0.0064304200   -0.0020271300
  -0.0100639000    0.0064198800   -0.0020273100
   0.0110315500   -0.0070597200    0.0021088500
   0.0112069400   -0.0069816800    0.0021741100
   0.0110421900   -0.0071770900    0.0021397100
   0.0112211900   -0.0070672800    0.0013224000
   0.0112949600   -0.0060144900    0.0021586400
   0.0111199900   -0.0059383900    0.0020913300
   0.0111399800   -0.0058162600    0.0021271400
   0.0113078200   -0.0059098800    0.0013874500
   0.0103329700   -0.0058461800   -0.0121863900
  -0.0170265500   -0.0063820300   -0.0469938500
  -0.0630218800   -0.0323892000   -0.0465596200
  -0.0624913300    0.0203437400   -0.0473731100
   0.0093223500   -0.0059763800    0.0002968200
   0.0093218400   -0.0059714200    0.0002785200
   0.0093203900   -0.0059705400    0.0002779100
   0.0093242400   -0.0059709200    0.0002781500
  -0.0103920500    0.0066012400   -0.0007754800
  -0.0108381100    0.0064855000   -0.0008032500
  -0.0105244400    0.0069218500   -0.0007914400
  -0.0106891400    0.0066723700   -0.0000630900
  -0.0105826600    0.0056940000   -0.0008241200
  -0.0100811500    0.0055776300   -0.0007617500
  -0.0102324400    0.0051922900   -0.0007745200
  -0.0104012200    0.0054862400   -0.0000443700

17   
  0.0034554842889698  -0.0000013444620359   0.0093840090857322
  -0.0113586200    0.0061882000    0.0105361800
   0.0159610600    0.0067246100    0.0453437400
   0.0619739500    0.0327325600    0.0449077000
   0.0614459900   -0.0200190000    0.0457242400
  -0.0093747100    0.0063648400   -0.0019733100
  -0.0093733700    0.0063648900   -0.0019549500
  -0.0093747300    0.0063650400   -0.0019569400
  -0.0093737300    0.0063659700   -0.0019519500
   0.0115809300   -0.0073440600    0.0023713100
   0.0117030500   -0.0072507200    0.0025319000
   0.0115650300   -0.0073741300    0.0024471300
   0.0117123200   -0.0073206100    0.0017096400
   0.0113274100   -0.0060328600    0.0025418300
   0.0112188000   -0.0058948500    0.0023507800
   0.0111571500   -0.0058976000    0.0024370000
   0.0113448400   -0.0059462100    0.0017138900
  -0.2034068800   -0.0067232800   -0.1354246700
   0.0483958500   -0.0057228300   -0.0072024100
   0.0121933800   -0.0266479500   -0.0072634800
   0.0122908900    0.0151938600   -0.0072485700
   0.0085527700   -0.0058839200    0.0003659700
   0.0085473200   -0.0058845300    0.0002359300
   0.0085492800   -0.0058841200    0.0002358600
   0.0085489900   -0.0058861500    0.0002363500
  -0.0112944100    0.0069882700   -0.0000593400
  -0.0109449700    0.0069842900    0.0000437600
  -0.0111129700    0.0066893100   -0.0000212900
  -0.0111331200    0.0068789700   -0.0003267500
  -0.0101468500    0.0053684200    0.0000740100
  -0.0104984900    0.0053603600   -0.0000799200
  -0.0103126700    0.0056679400   -0.0000182900
  -0.0103635100    0.0054753000   -0.0003253600

17   
 -0.0034554842889698   0.0000013444620359  -0.0093840090857322
  -0.0093175600    0.0060325200   -0.0110993300
  -0.0366420200    0.0067476300   -0.0458987800
  -0.0823303500   -0.0202271500   -0.0463208900
  -0.0824620400    0.0325335700   -0.0454294200
  -0.0135998800    0.0058414400    0.0015342000
  -0.0135996500    0.0058429200    0.0015175800
  -0.0135985000    0.0058435800    0.0015152300
  -0.0136010300    0.0058448700    0.0015180100
   0.0121532900   -0.0073408800   -0.0018687800
   0.0120383500   -0.0074346600   -0.0020263500
   0.0121639200   -0.0073110100   -0.0019406000
   0.0120208800   -0.0073646000   -0.0012180800
   0.0117798300   -0.0062749400   -0.0020474900
   0.0118865500   -0.0064284100   -0.0018649700
   0.0119588300   -0.0064196300   -0.0019494900
   0.0117661200   -0.0063641800   -0.0012111700
   0.2226670100   -0.0065402300    0.1354336700
  -0.0291504800   -0.0055619400    0.0072166000
   0.0069485600    0.0152962900    0.0071548500
   0.0070420000   -0.0265338900    0.0073891300
   0.0129588300   -0.0055030800   -0.0002367500
   0.0129612400   -0.0055010800   -0.0001049000
   0.0129618500   -0.0055038300   -0.0001046700
   0.0129601400   -0.0055025800   -0.0001067600
  -0.0113400300    0.0068852500   -0.0000121600
  -0.0116866300    0.0068886700   -0.0001172100
  -0.0115289800    0.0071855900   -0.0000553900
  -0.0115045400    0.0069941600    0.0002450300
  -0.0111643200    0.0060768400   -0.0001418200
  -0.0108112900    0.0060719900    0.0000135900
  -0.0109897100    0.0057637800   -0.0000484100
  -0.0109403600    0.0059630100    0.0002655100
