32   
4    

1    
  0.0034554842889698  -0.0000013444620359   0.0093840090857322
  -0.2247330300    0.0073001700   -0.1343050600
   0.0273669900    0.0063118700   -0.0049747500
  -0.0093963300   -0.0149252900   -0.0049112100
  -0.0094898800    0.0276673000   -0.0051349100
  -0.0121889000    0.0061544800    0.0020692900
  -0.0121642800    0.0061594400    0.0020965400
  -0.0121781500    0.0061525400    0.0020985200
  -0.0121733400    0.0061620500    0.0021004000
   0.0112460600   -0.0069480800   -0.0021398400
   0.0110596700   -0.0070356600   -0.0022052900
   0.0112272000   -0.0068230100   -0.0021705200
   0.0110524300   -0.0069450700   -0.0014380600
   0.0112094900   -0.0058345600   -0.0022205800
   0.0113701900   -0.0058985500   -0.0021555900
   0.0113467000   -0.0060133200   -0.0021897500
   0.0111829000   -0.0059106300   -0.0013762500
   0.0099390100   -0.0058928000    0.0121791800
   0.0372375900   -0.0066184600    0.0469865500
   0.0829233500    0.0203638700    0.0474092000
   0.0830706100   -0.0324066300    0.0465163400
   0.0114683000   -0.0057878600   -0.0002439100
   0.0114676700   -0.0057886300   -0.0002260300
   0.0114693500   -0.0057841900   -0.0002249100
   0.0114654500   -0.0057887000   -0.0002208400
  -0.0108440900    0.0066421900    0.0007548200
  -0.0103182200    0.0067488000    0.0007852800
  -0.0106747200    0.0062544600    0.0007710500
  -0.0105057400    0.0065450200    0.0000248300
  -0.0101309500    0.0053061200    0.0007972200
  -0.0105652500    0.0054194000    0.0007467200
  -0.0104449100    0.0057266600    0.0007603400
  -0.0102951900    0.0054870500    0.0000412200

1    
 -0.0034554842889698   0.0000013444620359  -0.0093840090857322
   0.2029936400    0.0072648300    0.1342806100
  -0.0490256800    0.0062532000    0.0049726100
  -0.0121964400    0.0275438700    0.0050357700
  -0.0122935500   -0.0150128100    0.0050051100
  -0.0104600000    0.0064802700   -0.0019914100
  -0.0104721000    0.0064838000   -0.0020240200
  -0.0104697100    0.0064865100   -0.0020237500
  -0.0104631900    0.0064777200   -0.0020235600
   0.0109167700   -0.0069923900    0.0021064900
   0.0110915500   -0.0069057200    0.0021718700
   0.0109294000   -0.0071059200    0.0021380700
   0.0111096400   -0.0070025200    0.0013210300
   0.0111848000   -0.0059599700    0.0021772900
   0.0109945500   -0.0058778200    0.0021102400
   0.0110201700   -0.0057433500    0.0021452100
   0.0111902700   -0.0058435500    0.0014064500
   0.0103403800   -0.0059093400   -0.0122092300
  -0.0170054500   -0.0064387800   -0.0470187700
  -0.0630108600   -0.0324553500   -0.0465833100
  -0.0624684400    0.0202842400   -0.0473985300
   0.0097277300   -0.0060260900    0.0002965800
   0.0097211500   -0.0060298100    0.0002787800
   0.0097274300   -0.0060246900    0.0002786900
   0.0097224100   -0.0060307800    0.0002790100
  -0.0102803600    0.0065276000   -0.0007770900
  -0.0107205800    0.0064150700   -0.0008048200
  -0.0104026700    0.0068556300   -0.0007927200
  -0.0105755100    0.0066030500   -0.0000647800
  -0.0104701800    0.0056332500   -0.0007960000
  -0.0099561600    0.0055175500   -0.0007323000
  -0.0101124500    0.0051144300   -0.0007452800
  -0.0102866000    0.0054178900   -0.0000182300

17   
  0.0034554842889698  -0.0000013444620359   0.0093840090857322
  -0.0115716800    0.0069986200    0.0115833800
   0.0157652400    0.0075321100    0.0464000100
   0.0617605000    0.0335293800    0.0459607500
   0.0612307800   -0.0191953900    0.0467778400
  -0.0144618400    0.0070203300   -0.0009368600
  -0.0144508100    0.0070253000   -0.0009189400
  -0.0144607400    0.0070192400   -0.0009198000
  -0.0144535300    0.0070248200   -0.0009139500
   0.0100275900   -0.0061136000    0.0013338500
   0.0101515600   -0.0060205300    0.0014989400
   0.0100121600   -0.0061476900    0.0014115200
   0.0101619400   -0.0060938100    0.0006731800
   0.0100033500   -0.0056049600    0.0014832700
   0.0098914500   -0.0054633300    0.0012956200
   0.0098283800   -0.0054645900    0.0013808100
   0.0100180600   -0.0055117300    0.0006574900
  -0.2031992400   -0.0074771100   -0.1356310300
   0.0485765500   -0.0064772800   -0.0073380000
   0.0123653200   -0.0274115600   -0.0073966500
   0.0124653200    0.0144466700   -0.0073831600
   0.0137059500   -0.0066155100    0.0001839100
   0.0136902000   -0.0066185100    0.0000545100
   0.0136997400   -0.0066132500    0.0000546200
   0.0136935100   -0.0066220900    0.0000565800
  -0.0096442000    0.0057591600    0.0001206000
  -0.0092926200    0.0057504700    0.0002238900
  -0.0094583500    0.0054596500    0.0001584200
  -0.0094830800    0.0056500300   -0.0001473400
  -0.0089585500    0.0049605100    0.0002310500
  -0.0093095800    0.0049551900    0.0000765700
  -0.0091264300    0.0052539300    0.0001386800
  -0.0091769500    0.0050655400   -0.0001697600

17   
 -0.0034554842889698   0.0000013444620359  -0.0093840090857322
  -0.0088893200    0.0058807600   -0.0116061600
  -0.0362182300    0.0065915300   -0.0464056300
  -0.0819049200   -0.0203823900   -0.0468284800
  -0.0820393300    0.0323813600   -0.0459392900
  -0.0140577800    0.0056795000    0.0009614200
  -0.0140590900    0.0056791800    0.0009430900
  -0.0140589600    0.0056830900    0.0009419200
  -0.0140580900    0.0056802400    0.0009471700
   0.0123925000   -0.0073184800   -0.0013117200
   0.0122800100   -0.0074032000   -0.0014667100
   0.0124063100   -0.0072860900   -0.0013820900
   0.0122656500   -0.0073449100   -0.0006607500
   0.0120966200   -0.0066281500   -0.0015338300
   0.0122042400   -0.0067736800   -0.0013438900
   0.0122745800   -0.0067760200   -0.0014320400
   0.0120790000   -0.0067185800   -0.0006938300
   0.2222372600   -0.0063778000    0.1355219400
  -0.0295744800   -0.0054017900    0.0073131400
   0.0065173500    0.0154524000    0.0072529000
   0.0066139300   -0.0263663500    0.0074882100
   0.0134229400   -0.0053451700   -0.0002005600
   0.0134256200   -0.0053449000   -0.0000694300
   0.0134245700   -0.0053436000   -0.0000684000
   0.0134251800   -0.0053445900   -0.0000677400
  -0.0115289500    0.0068477900   -0.0000545400
  -0.0118726400    0.0068561200   -0.0001589500
  -0.0117106900    0.0071573400   -0.0000966400
  -0.0116912300    0.0069604100    0.0002026100
  -0.0115355000    0.0064276100   -0.0002252800
  -0.0111850800    0.0064290000   -0.0000702300
  -0.0113630800    0.0061249300   -0.0001344200
  -0.0113183800    0.0063244700    0.0001782000
