mesh: [     9,     9,     4 ]
nqpoint: 50     
reciprocal_lattice:
- [   0.40553429,   0.23434576,   0.00000000 ] # a*
- [   0.00018224,   0.46837588,   0.00000000 ] # b*
- [   0.00000000,   0.00000000,   0.14929678 ] # c*
natom:   4      
lattice:
- [     2.466437248995937,    -0.000959642981403,     0.000000000000000 ] # a
- [    -1.234049699648306,     2.135517492938035,     0.000000000000000 ] # b
- [     0.000000000000000,     0.000000000000000,     6.698068235427160 ] # c
points:
- symbol: C  # 1
  coordinates: [  0.999346608899160,  0.000653437440448,  0.250000000000000 ]
  mass: 12.010700
- symbol: C  # 2
  coordinates: [  0.000653437440448,  0.999346608899160,  0.750000000000000 ]
  mass: 12.010700
- symbol: C  # 3
  coordinates: [  0.332584924946424,  0.667415057713967,  0.250000000000000 ]
  mass: 12.010700
- symbol: C  # 4
  coordinates: [  0.667415057713967,  0.332584924946424,  0.750000000000000 ]
  mass: 12.010700
phonon:
- q-position: [    0.0000000,    0.0000000,    0.1250000 ]
  weight: 2    
  band:
  - # 1
    frequency:    -1.4054480440
  - # 2
    frequency:    -1.3811607139
  - # 3
    frequency:    -1.3019149896
  - # 4
    frequency:    -0.5172143016
  - # 5
    frequency:     0.9207333869
  - # 6
    frequency:     1.0743014718
  - # 7
    frequency:    24.9774272535
  - # 8
    frequency:    26.1123670478
  - # 9
    frequency:    44.0156153717
  - # 10
    frequency:    45.3794891902
  - # 11
    frequency:    45.4706063105
  - # 12
    frequency:    45.4992399322

- q-position: [    0.1111111,    0.0000000,    0.1250000 ]
  weight: 8    
  band:
  - # 1
    frequency:     3.6768564972
  - # 2
    frequency:     4.4294377158
  - # 3
    frequency:     5.8218287088
  - # 4
    frequency:     6.1022105993
  - # 5
    frequency:    11.4242118531
  - # 6
    frequency:    11.5349888588
  - # 7
    frequency:    24.4666001545
  - # 8
    frequency:    25.5161273224
  - # 9
    frequency:    43.8871172914
  - # 10
    frequency:    45.1610792381
  - # 11
    frequency:    45.3798777970
  - # 12
    frequency:    45.5574815811

- q-position: [    0.2222222,    0.0000000,    0.1250000 ]
  weight: 8    
  band:
  - # 1
    frequency:     7.6038728411
  - # 2
    frequency:     8.2579414945
  - # 3
    frequency:    11.3763260120
  - # 4
    frequency:    11.6371752554
  - # 5
    frequency:    22.0600697651
  - # 6
    frequency:    22.1614180945
  - # 7
    frequency:    23.0512214464
  - # 8
    frequency:    23.8631254076
  - # 9
    frequency:    43.3575286155
  - # 10
    frequency:    44.2513327805
  - # 11
    frequency:    45.2924437415
  - # 12
    frequency:    45.5209985872

- q-position: [    0.3333333,    0.0000000,    0.1250000 ]
  weight: 8    
  band:
  - # 1
    frequency:    11.0151548288
  - # 2
    frequency:    11.5692172975
  - # 3
    frequency:    15.8248414138
  - # 4
    frequency:    16.0273222455
  - # 5
    frequency:    21.0637538389
  - # 6
    frequency:    21.5466270599
  - # 7
    frequency:    31.0228351787
  - # 8
    frequency:    31.1029624742
  - # 9
    frequency:    42.5311291698
  - # 10
    frequency:    43.0421063544
  - # 11
    frequency:    44.5228443208
  - # 12
    frequency:    44.6984902873

- q-position: [    0.4444444,    0.0000000,    0.1250000 ]
  weight: 8    
  band:
  - # 1
    frequency:    13.6279819404
  - # 2
    frequency:    13.9802848803
  - # 3
    frequency:    18.4424720607
  - # 4
    frequency:    18.5189284119
  - # 5
    frequency:    19.1487437979
  - # 6
    frequency:    19.3313627499
  - # 7
    frequency:    37.8009872496
  - # 8
    frequency:    37.8582421251
  - # 9
    frequency:    41.9051272748
  - # 10
    frequency:    42.0733422969
  - # 11
    frequency:    42.2516165261
  - # 12
    frequency:    42.3449664251

- q-position: [    0.1111111,    0.1111111,    0.1250000 ]
  weight: 4    
  band:
  - # 1
    frequency:     7.1442622789
  - # 2
    frequency:     7.2968311138
  - # 3
    frequency:    10.3621249346
  - # 4
    frequency:    11.0218786316
  - # 5
    frequency:    19.0051556540
  - # 6
    frequency:    19.1276894338
  - # 7
    frequency:    23.4303770667
  - # 8
    frequency:    24.2967900538
  - # 9
    frequency:    43.4926173067
  - # 10
    frequency:    44.6548295928
  - # 11
    frequency:    45.4107531230
  - # 12
    frequency:    45.4793663351

- q-position: [    0.2222222,    0.1111111,    0.1250000 ]
  weight: 8    
  band:
  - # 1
    frequency:    10.3278733441
  - # 2
    frequency:    10.6876237286
  - # 3
    frequency:    15.6145506800
  - # 4
    frequency:    16.2398664739
  - # 5
    frequency:    21.6580428290
  - # 6
    frequency:    22.2204434089
  - # 7
    frequency:    27.2778495615
  - # 8
    frequency:    27.4138184820
  - # 9
    frequency:    43.0349581379
  - # 10
    frequency:    43.7795173239
  - # 11
    frequency:    44.7871731842
  - # 12
    frequency:    44.9043191377

- q-position: [    0.3333333,    0.1111111,    0.1250000 ]
  weight: 8    
  band:
  - # 1
    frequency:    13.1199767889
  - # 2
    frequency:    13.4701221604
  - # 3
    frequency:    19.4967105176
  - # 4
    frequency:    19.6049134596
  - # 5
    frequency:    19.8305241623
  - # 6
    frequency:    19.9586210083
  - # 7
    frequency:    34.3436752120
  - # 8
    frequency:    34.4647113282
  - # 9
    frequency:    42.3720353819
  - # 10
    frequency:    42.5680474267
  - # 11
    frequency:    43.2464333064
  - # 12
    frequency:    43.5089748328

- q-position: [   -0.5555556,    0.1111111,    0.1250000 ]
  weight: 8    
  band:
  - # 1
    frequency:    14.3656655885
  - # 2
    frequency:    14.6749054683
  - # 3
    frequency:    18.5089824673
  - # 4
    frequency:    18.6086531211
  - # 5
    frequency:    21.0052855769
  - # 6
    frequency:    21.2875534606
  - # 7
    frequency:    39.4205939075
  - # 8
    frequency:    39.4590727321
  - # 9
    frequency:    39.7184807489
  - # 10
    frequency:    39.7466447531
  - # 11
    frequency:    42.6211656063
  - # 12
    frequency:    42.6845033734

- q-position: [   -0.4444444,    0.1111111,    0.1250000 ]
  weight: 8    
  band:
  - # 1
    frequency:    12.4069206640
  - # 2
    frequency:    13.0016801810
  - # 3
    frequency:    19.6712296530
  - # 4
    frequency:    19.8216353918
  - # 5
    frequency:    19.9402566658
  - # 6
    frequency:    20.2727337876
  - # 7
    frequency:    34.3749410841
  - # 8
    frequency:    34.4593434307
  - # 9
    frequency:    42.2298100609
  - # 10
    frequency:    42.5486252908
  - # 11
    frequency:    43.3997771952
  - # 12
    frequency:    43.4621722823

- q-position: [   -0.3333333,    0.1111111,    0.1250000 ]
  weight: 8    
  band:
  - # 1
    frequency:     9.3297274999
  - # 2
    frequency:    10.1910851296
  - # 3
    frequency:    15.8954827206
  - # 4
    frequency:    15.9896390835
  - # 5
    frequency:    21.9588594474
  - # 6
    frequency:    22.6100727491
  - # 7
    frequency:    27.3260632102
  - # 8
    frequency:    27.4303608890
  - # 9
    frequency:    43.1816878624
  - # 10
    frequency:    43.7137327066
  - # 11
    frequency:    44.6336775011
  - # 12
    frequency:    44.9099578772

- q-position: [   -0.2222222,    0.1111111,    0.1250000 ]
  weight: 8    
  band:
  - # 1
    frequency:     5.8186634696
  - # 2
    frequency:     7.0289576779
  - # 3
    frequency:    10.6358435912
  - # 4
    frequency:    10.7284801067
  - # 5
    frequency:    19.0438070063
  - # 6
    frequency:    19.1891588811
  - # 7
    frequency:    23.6246138609
  - # 8
    frequency:    24.5508529909
  - # 9
    frequency:    43.9652798012
  - # 10
    frequency:    44.5886841178
  - # 11
    frequency:    44.9364925098
  - # 12
    frequency:    45.5064400167

- q-position: [   -0.1111111,    0.1111111,    0.1250000 ]
  weight: 4    
  band:
  - # 1
    frequency:     2.6137107989
  - # 2
    frequency:     4.3308168823
  - # 3
    frequency:     5.8479988366
  - # 4
    frequency:     5.9563903819
  - # 5
    frequency:    11.4626212461
  - # 6
    frequency:    11.6084916112
  - # 7
    frequency:    24.5332802078
  - # 8
    frequency:    25.6040260691
  - # 9
    frequency:    44.2259684637
  - # 10
    frequency:    45.0443010718
  - # 11
    frequency:    45.1313637538
  - # 12
    frequency:    45.5722808640

- q-position: [    0.2222222,    0.2222222,    0.1250000 ]
  weight: 4    
  band:
  - # 1
    frequency:    12.9444000664
  - # 2
    frequency:    13.2817251674
  - # 3
    frequency:    19.7682604560
  - # 4
    frequency:    20.0059698608
  - # 5
    frequency:    21.3384049273
  - # 6
    frequency:    21.9879913607
  - # 7
    frequency:    31.9752995299
  - # 8
    frequency:    32.1479542154
  - # 9
    frequency:    43.0249783829
  - # 10
    frequency:    43.0374867768
  - # 11
    frequency:    43.1742573962
  - # 12
    frequency:    43.6091736632

- q-position: [    0.3333333,    0.2222222,    0.1250000 ]
  weight: 8    
  band:
  - # 1
    frequency:    15.0300665387
  - # 2
    frequency:    15.2971488220
  - # 3
    frequency:    17.9104744588
  - # 4
    frequency:    17.9651745435
  - # 5
    frequency:    25.2790877080
  - # 6
    frequency:    25.7357401855
  - # 7
    frequency:    36.0698148291
  - # 8
    frequency:    36.1948402007
  - # 9
    frequency:    40.0075808570
  - # 10
    frequency:    40.0397812481
  - # 11
    frequency:    43.4076352725
  - # 12
    frequency:    43.5855448853

- q-position: [   -0.5555556,    0.2222222,    0.1250000 ]
  weight: 8    
  band:
  - # 1
    frequency:    14.2746706511
  - # 2
    frequency:    14.7314602801
  - # 3
    frequency:    18.3966173748
  - # 4
    frequency:    18.5637486674
  - # 5
    frequency:    25.3902227926
  - # 6
    frequency:    25.6346452780
  - # 7
    frequency:    36.0797243605
  - # 8
    frequency:    36.1986446153
  - # 9
    frequency:    39.9794635908
  - # 10
    frequency:    40.0246228605
  - # 11
    frequency:    43.4785964940
  - # 12
    frequency:    43.5231475652

- q-position: [   -0.4444444,    0.2222222,    0.1250000 ]
  weight: 8    
  band:
  - # 1
    frequency:    11.7987569709
  - # 2
    frequency:    12.5111883654
  - # 3
    frequency:    20.2972314388
  - # 4
    frequency:    20.6944312876
  - # 5
    frequency:    21.5993399598
  - # 6
    frequency:    21.7134559175
  - # 7
    frequency:    32.0159557639
  - # 8
    frequency:    32.2193291392
  - # 9
    frequency:    42.7645578986
  - # 10
    frequency:    43.0771093505
  - # 11
    frequency:    43.3985275291
  - # 12
    frequency:    43.4921729249

- q-position: [   -0.3333333,    0.2222222,    0.1250000 ]
  weight: 8    
  band:
  - # 1
    frequency:     9.0232063087
  - # 2
    frequency:    10.0303689312
  - # 3
    frequency:    15.8693175404
  - # 4
    frequency:    15.9267917929
  - # 5
    frequency:    22.0471040851
  - # 6
    frequency:    22.7318269108
  - # 7
    frequency:    27.2946728797
  - # 8
    frequency:    27.5581486819
  - # 9
    frequency:    43.5742072586
  - # 10
    frequency:    43.6818380266
  - # 11
    frequency:    44.2411280548
  - # 12
    frequency:    44.9031589976

- q-position: [   -0.2222222,    0.2222222,    0.1250000 ]
  weight: 4    
  band:
  - # 1
    frequency:     6.5373385441
  - # 2
    frequency:     7.8455358967
  - # 3
    frequency:    11.4230488683
  - # 4
    frequency:    11.4616366393
  - # 5
    frequency:    22.0479027508
  - # 6
    frequency:    22.3285788543
  - # 7
    frequency:    23.2547312583
  - # 8
    frequency:    24.1347860480
  - # 9
    frequency:    44.1241377232
  - # 10
    frequency:    44.1988675392
  - # 11
    frequency:    44.5281526087
  - # 12
    frequency:    45.5194705662

- q-position: [   -0.6666667,    0.3333333,    0.1250000 ]
  weight: 4    
  band:
  - # 1
    frequency:    16.0191016874
  - # 2
    frequency:    16.2075683319
  - # 3
    frequency:    16.8221847735
  - # 4
    frequency:    17.0467493401
  - # 5
    frequency:    28.8863756957
  - # 6
    frequency:    29.0993432618
  - # 7
    frequency:    37.0782758503
  - # 8
    frequency:    37.1193831495
  - # 9
    frequency:    37.1561313005
  - # 10
    frequency:    37.3097808885
  - # 11
    frequency:    43.8088358537
  - # 12
    frequency:    43.8718957597

- q-position: [   -0.5555556,    0.3333333,    0.1250000 ]
  weight: 8    
  band:
  - # 1
    frequency:    14.2873867164
  - # 2
    frequency:    14.6890775070
  - # 3
    frequency:    18.4457317025
  - # 4
    frequency:    18.5549992418
  - # 5
    frequency:    25.4677832099
  - # 6
    frequency:    25.5088081557
  - # 7
    frequency:    36.0579933440
  - # 8
    frequency:    36.2632676905
  - # 9
    frequency:    39.9674859677
  - # 10
    frequency:    40.0328980962
  - # 11
    frequency:    43.4730166508
  - # 12
    frequency:    43.5019816295

- q-position: [   -0.4444444,    0.3333333,    0.1250000 ]
  weight: 8    
  band:
  - # 1
    frequency:    12.3128786620
  - # 2
    frequency:    12.9172756208
  - # 3
    frequency:    19.7009631444
  - # 4
    frequency:    19.7176030897
  - # 5
    frequency:    20.0042087876
  - # 6
    frequency:    20.3487430050
  - # 7
    frequency:    34.3403516335
  - # 8
    frequency:    34.5914751179
  - # 9
    frequency:    42.4242855594
  - # 10
    frequency:    42.5200915982
  - # 11
    frequency:    43.1854327522
  - # 12
    frequency:    43.4272206459

- q-position: [   -0.3333333,    0.3333333,    0.1250000 ]
  weight: 4    
  band:
  - # 1
    frequency:    10.3023805428
  - # 2
    frequency:    11.1576358501
  - # 3
    frequency:    15.8774184751
  - # 4
    frequency:    15.8900268095
  - # 5
    frequency:    21.3201718436
  - # 6
    frequency:    21.8923669779
  - # 7
    frequency:    30.9850096072
  - # 8
    frequency:    31.2845977437
  - # 9
    frequency:    42.9165338382
  - # 10
    frequency:    42.9700807805
  - # 11
    frequency:    44.1258490676
  - # 12
    frequency:    44.6731557198

- q-position: [   -0.5555556,    0.4444444,    0.1250000 ]
  weight: 4    
  band:
  - # 1
    frequency:    14.3016233420
  - # 2
    frequency:    14.5870193696
  - # 3
    frequency:    18.6091277483
  - # 4
    frequency:    18.6680016036
  - # 5
    frequency:    21.1314326144
  - # 6
    frequency:    21.1351207227
  - # 7
    frequency:    39.4169633378
  - # 8
    frequency:    39.4878855767
  - # 9
    frequency:    39.6829784969
  - # 10
    frequency:    39.7469866889
  - # 11
    frequency:    42.6335003076
  - # 12
    frequency:    42.6357793292

- q-position: [   -0.4444444,    0.4444444,    0.1250000 ]
  weight: 4    
  band:
  - # 1
    frequency:    13.4895839481
  - # 2
    frequency:    13.8749965219
  - # 3
    frequency:    18.4715162614
  - # 4
    frequency:    18.4736715745
  - # 5
    frequency:    19.2512795203
  - # 6
    frequency:    19.4468700358
  - # 7
    frequency:    37.7729255145
  - # 8
    frequency:    37.9396610492
  - # 9
    frequency:    42.0009923232
  - # 10
    frequency:    42.0261542235
  - # 11
    frequency:    42.1460921587
  - # 12
    frequency:    42.2933125632

- q-position: [    0.0000000,    0.0000000,    0.3750000 ]
  weight: 2    
  band:
  - # 1
    frequency:    -1.5017057167
  - # 2
    frequency:    -1.2914585786
  - # 3
    frequency:    -0.8618601736
  - # 4
    frequency:    -0.3664397821
  - # 5
    frequency:     2.4092470785
  - # 6
    frequency:     2.5606189434
  - # 7
    frequency:    25.6976749136
  - # 8
    frequency:    26.1708256470
  - # 9
    frequency:    44.3543948205
  - # 10
    frequency:    44.6388624419
  - # 11
    frequency:    44.6772075686
  - # 12
    frequency:    44.9763867773

- q-position: [    0.1111111,    0.0000000,    0.3750000 ]
  weight: 8    
  band:
  - # 1
    frequency:     4.5871688498
  - # 2
    frequency:     4.8451302952
  - # 3
    frequency:     5.9216323038
  - # 4
    frequency:     6.0075422844
  - # 5
    frequency:    11.4276709963
  - # 6
    frequency:    11.4754263071
  - # 7
    frequency:    25.1270755625
  - # 8
    frequency:    25.5643709742
  - # 9
    frequency:    44.1620868899
  - # 10
    frequency:    44.5828615106
  - # 11
    frequency:    44.7662691139
  - # 12
    frequency:    44.9537718482

- q-position: [    0.2222222,    0.0000000,    0.3750000 ]
  weight: 8    
  band:
  - # 1
    frequency:     8.0209479588
  - # 2
    frequency:     8.2855867766
  - # 3
    frequency:    11.4695969390
  - # 4
    frequency:    11.5682451926
  - # 5
    frequency:    22.0903557592
  - # 6
    frequency:    22.1327303215
  - # 7
    frequency:    23.5478667809
  - # 8
    frequency:    23.8855195270
  - # 9
    frequency:    43.5097500542
  - # 10
    frequency:    43.8492897917
  - # 11
    frequency:    44.9507386658
  - # 12
    frequency:    45.0803506910

- q-position: [    0.3333333,    0.0000000,    0.3750000 ]
  weight: 8    
  band:
  - # 1
    frequency:    11.2311561075
  - # 2
    frequency:    11.4592182975
  - # 3
    frequency:    15.8953336019
  - # 4
    frequency:    15.9770613258
  - # 5
    frequency:    21.3388788632
  - # 6
    frequency:    21.5391273975
  - # 7
    frequency:    31.0685561406
  - # 8
    frequency:    31.1020607315
  - # 9
    frequency:    42.6222957320
  - # 10
    frequency:    42.8265706459
  - # 11
    frequency:    44.3899697196
  - # 12
    frequency:    44.4715528895

- q-position: [    0.4444444,    0.0000000,    0.3750000 ]
  weight: 8    
  band:
  - # 1
    frequency:    13.7381666074
  - # 2
    frequency:    13.8839373772
  - # 3
    frequency:    18.4665490487
  - # 4
    frequency:    18.4981335447
  - # 5
    frequency:    19.2261763878
  - # 6
    frequency:    19.3018993208
  - # 7
    frequency:    37.8373781326
  - # 8
    frequency:    37.8612258404
  - # 9
    frequency:    41.9518127586
  - # 10
    frequency:    42.0194275680
  - # 11
    frequency:    42.2347069903
  - # 12
    frequency:    42.2755316025

- q-position: [    0.1111111,    0.1111111,    0.3750000 ]
  weight: 4    
  band:
  - # 1
    frequency:     7.4807610562
  - # 2
    frequency:     7.5604336175
  - # 3
    frequency:    10.5498476007
  - # 4
    frequency:    10.8052546677
  - # 5
    frequency:    19.0208396387
  - # 6
    frequency:    19.0725192899
  - # 7
    frequency:    23.9676995944
  - # 8
    frequency:    24.3282699326
  - # 9
    frequency:    43.7692247709
  - # 10
    frequency:    44.2549658107
  - # 11
    frequency:    44.9181439243
  - # 12
    frequency:    44.9465114999

- q-position: [    0.2222222,    0.1111111,    0.3750000 ]
  weight: 8    
  band:
  - # 1
    frequency:    10.5426692034
  - # 2
    frequency:    10.6935406886
  - # 3
    frequency:    15.7882033305
  - # 4
    frequency:    16.0416030449
  - # 5
    frequency:    21.9911969786
  - # 6
    frequency:    22.2245960220
  - # 7
    frequency:    27.3135362076
  - # 8
    frequency:    27.3705171010
  - # 9
    frequency:    43.2074609574
  - # 10
    frequency:    43.5096565325
  - # 11
    frequency:    44.5564244336
  - # 12
    frequency:    44.6142093012

- q-position: [    0.3333333,    0.1111111,    0.3750000 ]
  weight: 8    
  band:
  - # 1
    frequency:    13.2462355664
  - # 2
    frequency:    13.3908948527
  - # 3
    frequency:    19.6276137676
  - # 4
    frequency:    19.7176460066
  - # 5
    frequency:    19.8084616392
  - # 6
    frequency:    19.8207084463
  - # 7
    frequency:    34.3839353596
  - # 8
    frequency:    34.4342648051
  - # 9
    frequency:    42.3971193484
  - # 10
    frequency:    42.4732417065
  - # 11
    frequency:    43.2795509398
  - # 12
    frequency:    43.3933207385

- q-position: [   -0.5555556,    0.1111111,    0.3750000 ]
  weight: 8    
  band:
  - # 1
    frequency:    14.4504904190
  - # 2
    frequency:    14.5794063362
  - # 3
    frequency:    18.5306618240
  - # 4
    frequency:    18.5726550693
  - # 5
    frequency:    21.1012358677
  - # 6
    frequency:    21.2182397500
  - # 7
    frequency:    39.4367071920
  - # 8
    frequency:    39.4522996384
  - # 9
    frequency:    39.7479000813
  - # 10
    frequency:    39.7622872286
  - # 11
    frequency:    42.6335886415
  - # 12
    frequency:    42.6597506979

- q-position: [   -0.4444444,    0.1111111,    0.3750000 ]
  weight: 8    
  band:
  - # 1
    frequency:    12.5635734378
  - # 2
    frequency:    12.8093882699
  - # 3
    frequency:    19.7658486320
  - # 4
    frequency:    19.8284368053
  - # 5
    frequency:    20.1113504825
  - # 6
    frequency:    20.2491320305
  - # 7
    frequency:    34.4421894093
  - # 8
    frequency:    34.4769454707
  - # 9
    frequency:    42.3117289461
  - # 10
    frequency:    42.4437842388
  - # 11
    frequency:    43.2978988829
  - # 12
    frequency:    43.3242120867

- q-position: [   -0.3333333,    0.1111111,    0.3750000 ]
  weight: 8    
  band:
  - # 1
    frequency:     9.6554777184
  - # 2
    frequency:    10.0081216309
  - # 3
    frequency:    16.0072896630
  - # 4
    frequency:    16.0481149208
  - # 5
    frequency:    22.3394350389
  - # 6
    frequency:    22.6098269568
  - # 7
    frequency:    27.3682743661
  - # 8
    frequency:    27.4122974061
  - # 9
    frequency:    43.2214926239
  - # 10
    frequency:    43.4150933822
  - # 11
    frequency:    44.4715054434
  - # 12
    frequency:    44.6146734801

- q-position: [   -0.2222222,    0.1111111,    0.3750000 ]
  weight: 8    
  band:
  - # 1
    frequency:     6.4893518052
  - # 2
    frequency:     6.9636796827
  - # 3
    frequency:    10.7398447444
  - # 4
    frequency:    10.7811735291
  - # 5
    frequency:    19.0828767059
  - # 6
    frequency:    19.1474225565
  - # 7
    frequency:    24.1926749015
  - # 8
    frequency:    24.5781307157
  - # 9
    frequency:    43.9022785041
  - # 10
    frequency:    44.0511681625
  - # 11
    frequency:    44.7332851736
  - # 12
    frequency:    45.0833975738

- q-position: [   -0.1111111,    0.1111111,    0.3750000 ]
  weight: 4    
  band:
  - # 1
    frequency:     3.9753737856
  - # 2
    frequency:     4.5412140800
  - # 3
    frequency:     5.8887546779
  - # 4
    frequency:     5.9330964786
  - # 5
    frequency:    11.5106688894
  - # 6
    frequency:    11.5834821043
  - # 7
    frequency:    25.2044085645
  - # 8
    frequency:    25.6505233538
  - # 9
    frequency:    44.3768697959
  - # 10
    frequency:    44.4134764245
  - # 11
    frequency:    44.5339068790
  - # 12
    frequency:    45.0977592769

- q-position: [    0.2222222,    0.2222222,    0.3750000 ]
  weight: 4    
  band:
  - # 1
    frequency:    13.0743369049
  - # 2
    frequency:    13.2137999371
  - # 3
    frequency:    19.8924407338
  - # 4
    frequency:    19.9906840493
  - # 5
    frequency:    21.5267805236
  - # 6
    frequency:    21.7944666133
  - # 7
    frequency:    32.0223968876
  - # 8
    frequency:    32.0941851059
  - # 9
    frequency:    42.9694274060
  - # 10
    frequency:    42.9757491226
  - # 11
    frequency:    43.2663397472
  - # 12
    frequency:    43.4585240498

- q-position: [    0.3333333,    0.2222222,    0.3750000 ]
  weight: 8    
  band:
  - # 1
    frequency:    15.1036494912
  - # 2
    frequency:    15.2162669251
  - # 3
    frequency:    17.8906251256
  - # 4
    frequency:    17.9118488959
  - # 5
    frequency:    25.4296256413
  - # 6
    frequency:    25.6193485811
  - # 7
    frequency:    36.1067053219
  - # 8
    frequency:    36.1583529232
  - # 9
    frequency:    40.0691472243
  - # 10
    frequency:    40.0823432223
  - # 11
    frequency:    43.4618682773
  - # 12
    frequency:    43.5352930802

- q-position: [   -0.5555556,    0.2222222,    0.3750000 ]
  weight: 8    
  band:
  - # 1
    frequency:    14.3509624845
  - # 2
    frequency:    14.5421782316
  - # 3
    frequency:    18.4526136402
  - # 4
    frequency:    18.5212292939
  - # 5
    frequency:    25.5321777263
  - # 6
    frequency:    25.6341366196
  - # 7
    frequency:    36.1675579810
  - # 8
    frequency:    36.2158875027
  - # 9
    frequency:    39.9836983804
  - # 10
    frequency:    40.0024982042
  - # 11
    frequency:    43.4740158867
  - # 12
    frequency:    43.4925218132

- q-position: [   -0.4444444,    0.2222222,    0.3750000 ]
  weight: 8    
  band:
  - # 1
    frequency:    11.9730035934
  - # 2
    frequency:    12.2684589850
  - # 3
    frequency:    20.5090911566
  - # 4
    frequency:    20.6734405205
  - # 5
    frequency:    21.7587053962
  - # 6
    frequency:    21.8062436112
  - # 7
    frequency:    32.0758318028
  - # 8
    frequency:    32.1596686485
  - # 9
    frequency:    42.8247840104
  - # 10
    frequency:    42.9454291083
  - # 11
    frequency:    43.3002590655
  - # 12
    frequency:    43.3486671410

- q-position: [   -0.3333333,    0.2222222,    0.3750000 ]
  weight: 8    
  band:
  - # 1
    frequency:     9.3788575012
  - # 2
    frequency:     9.7920459470
  - # 3
    frequency:    16.0009784098
  - # 4
    frequency:    16.0246293391
  - # 5
    frequency:    22.4442849489
  - # 6
    frequency:    22.7285246602
  - # 7
    frequency:    27.3705649893
  - # 8
    frequency:    27.4817767798
  - # 9
    frequency:    43.3081820664
  - # 10
    frequency:    43.3447717575
  - # 11
    frequency:    44.3653485647
  - # 12
    frequency:    44.6507610816

- q-position: [   -0.2222222,    0.2222222,    0.3750000 ]
  weight: 4    
  band:
  - # 1
    frequency:     7.1397803968
  - # 2
    frequency:     7.6623326945
  - # 3
    frequency:    11.5224912232
  - # 4
    frequency:    11.5380034359
  - # 5
    frequency:    22.1408850348
  - # 6
    frequency:    22.2626452803
  - # 7
    frequency:    23.7858461502
  - # 8
    frequency:    24.1518240877
  - # 9
    frequency:    43.6545549869
  - # 10
    frequency:    43.6858835624
  - # 11
    frequency:    44.7558693916
  - # 12
    frequency:    45.1699153074

- q-position: [   -0.6666667,    0.3333333,    0.3750000 ]
  weight: 4    
  band:
  - # 1
    frequency:    16.0186385108
  - # 2
    frequency:    16.1116591875
  - # 3
    frequency:    16.8537619385
  - # 4
    frequency:    16.9330040486
  - # 5
    frequency:    29.0234523444
  - # 6
    frequency:    29.1131119638
  - # 7
    frequency:    37.1677842011
  - # 8
    frequency:    37.1695186455
  - # 9
    frequency:    37.1897775916
  - # 10
    frequency:    37.2677533056
  - # 11
    frequency:    43.8332213782
  - # 12
    frequency:    43.8590009694

- q-position: [   -0.5555556,    0.3333333,    0.3750000 ]
  weight: 8    
  band:
  - # 1
    frequency:    14.3482000348
  - # 2
    frequency:    14.5169838136
  - # 3
    frequency:    18.4841408933
  - # 4
    frequency:    18.5280985884
  - # 5
    frequency:    25.5945569571
  - # 6
    frequency:    25.6116479763
  - # 7
    frequency:    36.1217016705
  - # 8
    frequency:    36.2065426425
  - # 9
    frequency:    39.9842703680
  - # 10
    frequency:    40.0113844419
  - # 11
    frequency:    43.4721493804
  - # 12
    frequency:    43.4842915856

- q-position: [   -0.4444444,    0.3333333,    0.3750000 ]
  weight: 8    
  band:
  - # 1
    frequency:    12.4642648615
  - # 2
    frequency:    12.7158302231
  - # 3
    frequency:    19.7849149528
  - # 4
    frequency:    19.7916755544
  - # 5
    frequency:    20.1835852044
  - # 6
    frequency:    20.3257158982
  - # 7
    frequency:    34.4145526742
  - # 8
    frequency:    34.5186934793
  - # 9
    frequency:    42.3753161843
  - # 10
    frequency:    42.4120827401
  - # 11
    frequency:    43.2195098481
  - # 12
    frequency:    43.3231426567

- q-position: [   -0.3333333,    0.3333333,    0.3750000 ]
  weight: 4    
  band:
  - # 1
    frequency:    10.5703421719
  - # 2
    frequency:    10.9240300296
  - # 3
    frequency:    15.9494775861
  - # 4
    frequency:    15.9545045738
  - # 5
    frequency:    21.6413775069
  - # 6
    frequency:    21.8785399835
  - # 7
    frequency:    31.0854372515
  - # 8
    frequency:    31.2107764793
  - # 9
    frequency:    42.7020485819
  - # 10
    frequency:    42.7243719983
  - # 11
    frequency:    44.2519213638
  - # 12
    frequency:    44.4797084378

- q-position: [   -0.5555556,    0.4444444,    0.3750000 ]
  weight: 4    
  band:
  - # 1
    frequency:    14.3740245352
  - # 2
    frequency:    14.4930212921
  - # 3
    frequency:    18.6232987317
  - # 4
    frequency:    18.6482267330
  - # 5
    frequency:    21.1782416825
  - # 6
    frequency:    21.1797676125
  - # 7
    frequency:    39.4375176814
  - # 8
    frequency:    39.4676787700
  - # 9
    frequency:    39.7024392927
  - # 10
    frequency:    39.7296956046
  - # 11
    frequency:    42.6347058892
  - # 12
    frequency:    42.6356837493

- q-position: [   -0.4444444,    0.4444444,    0.3750000 ]
  weight: 4    
  band:
  - # 1
    frequency:    13.5985223382
  - # 2
    frequency:    13.7591042287
  - # 3
    frequency:    18.4833256462
  - # 4
    frequency:    18.4841974064
  - # 5
    frequency:    19.3406409854
  - # 6
    frequency:    19.4208038122
  - # 7
    frequency:    37.8277110894
  - # 8
    frequency:    37.8968796320
  - # 9
    frequency:    41.9780238231
  - # 10
    frequency:    41.9884514248
  - # 11
    frequency:    42.1792693165
  - # 12
    frequency:    42.2403723652

