mesh: [     9,     9,     4 ]
nqpoint: 50     
reciprocal_lattice:
- [   0.40553429,   0.23434576,   0.00000000 ] # a*
- [   0.00018224,   0.46837588,   0.00000000 ] # b*
- [   0.00000000,   0.00000000,   0.14929678 ] # c*
natom:   4      
lattice:
- [     2.466437248995937,    -0.000959642981403,     0.000000000000000 ] # a
- [    -1.234049699648306,     2.135517492938035,     0.000000000000000 ] # b
- [     0.000000000000000,     0.000000000000000,     6.698068235427160 ] # c
points:
- symbol: C  # 1
  coordinates: [  0.999346608899160,  0.000653437440448,  0.250000000000000 ]
  mass: 12.010700
- symbol: C  # 2
  coordinates: [  0.000653437440448,  0.999346608899160,  0.750000000000000 ]
  mass: 12.010700
- symbol: C  # 3
  coordinates: [  0.332584924946424,  0.667415057713967,  0.250000000000000 ]
  mass: 12.010700
- symbol: C  # 4
  coordinates: [  0.667415057713967,  0.332584924946424,  0.750000000000000 ]
  mass: 12.010700
phonon:
- q-position: [    0.0000000,    0.0000000,    0.1250000 ]
  weight: 2    
  band:
  - # 1
    frequency:    -1.2788126897
  - # 2
    frequency:    -0.5221330768
  - # 3
    frequency:    -0.4323752166
  - # 4
    frequency:     0.8337331680
  - # 5
    frequency:     1.1201820508
  - # 6
    frequency:     3.0642924239
  - # 7
    frequency:    24.7033456744
  - # 8
    frequency:    26.1225977846
  - # 9
    frequency:    45.1812755400
  - # 10
    frequency:    45.5859143538
  - # 11
    frequency:    45.6243360543
  - # 12
    frequency:    45.6730821016

- q-position: [    0.1111111,    0.0000000,    0.1250000 ]
  weight: 8    
  band:
  - # 1
    frequency:     3.9856395979
  - # 2
    frequency:     5.1968320519
  - # 3
    frequency:     5.9209456593
  - # 4
    frequency:     6.0771132816
  - # 5
    frequency:    11.4622020414
  - # 6
    frequency:    11.5157320993
  - # 7
    frequency:    24.2152241670
  - # 8
    frequency:    25.5261546043
  - # 9
    frequency:    44.9143803976
  - # 10
    frequency:    45.2785976419
  - # 11
    frequency:    45.5909414596
  - # 12
    frequency:    45.7147458285

- q-position: [    0.2222222,    0.0000000,    0.1250000 ]
  weight: 8    
  band:
  - # 1
    frequency:     7.6865635521
  - # 2
    frequency:     8.5945016770
  - # 3
    frequency:    11.4324983967
  - # 4
    frequency:    11.5489119860
  - # 5
    frequency:    22.0787295103
  - # 6
    frequency:    22.1360051089
  - # 7
    frequency:    22.8621516676
  - # 8
    frequency:    23.8713321612
  - # 9
    frequency:    44.0460805225
  - # 10
    frequency:    44.3011617816
  - # 11
    frequency:    45.4957793652
  - # 12
    frequency:    45.6172598585

- q-position: [    0.3333333,    0.0000000,    0.1250000 ]
  weight: 8    
  band:
  - # 1
    frequency:    11.0285374176
  - # 2
    frequency:    11.7101779770
  - # 3
    frequency:    15.8736144116
  - # 4
    frequency:    15.9384339591
  - # 5
    frequency:    20.9613523781
  - # 6
    frequency:    21.5484469542
  - # 7
    frequency:    31.0176109856
  - # 8
    frequency:    31.0808327774
  - # 9
    frequency:    42.8782649296
  - # 10
    frequency:    43.0193780784
  - # 11
    frequency:    44.6410965140
  - # 12
    frequency:    44.7352991599

- q-position: [    0.4444444,    0.0000000,    0.1250000 ]
  weight: 8    
  band:
  - # 1
    frequency:    13.6256628855
  - # 2
    frequency:    14.0049598018
  - # 3
    frequency:    18.4693947985
  - # 4
    frequency:    18.4853610667
  - # 5
    frequency:    19.1334971570
  - # 6
    frequency:    19.3253474046
  - # 7
    frequency:    37.7858443309
  - # 8
    frequency:    37.8495265352
  - # 9
    frequency:    41.9933869901
  - # 10
    frequency:    42.0366120278
  - # 11
    frequency:    42.2735238942
  - # 12
    frequency:    42.3488542115

- q-position: [    0.1111111,    0.1111111,    0.1250000 ]
  weight: 4    
  band:
  - # 1
    frequency:     7.1357077412
  - # 2
    frequency:     7.7912257245
  - # 3
    frequency:    10.6628709823
  - # 4
    frequency:    10.8105976118
  - # 5
    frequency:    19.0357834404
  - # 6
    frequency:    19.1285335679
  - # 7
    frequency:    23.2285680399
  - # 8
    frequency:    24.3078420573
  - # 9
    frequency:    44.3395621160
  - # 10
    frequency:    44.6846111146
  - # 11
    frequency:    45.5477829445
  - # 12
    frequency:    45.6137708798

- q-position: [    0.2222222,    0.1111111,    0.1250000 ]
  weight: 8    
  band:
  - # 1
    frequency:    10.3405923422
  - # 2
    frequency:    10.8606574664
  - # 3
    frequency:    15.8873365368
  - # 4
    frequency:    16.0040487503
  - # 5
    frequency:    21.5344635690
  - # 6
    frequency:    22.2309447374
  - # 7
    frequency:    27.3172939576
  - # 8
    frequency:    27.4039997751
  - # 9
    frequency:    43.5237398314
  - # 10
    frequency:    43.7409256299
  - # 11
    frequency:    44.8879971936
  - # 12
    frequency:    44.9600827539

- q-position: [    0.3333333,    0.1111111,    0.1250000 ]
  weight: 8    
  band:
  - # 1
    frequency:    13.1297331135
  - # 2
    frequency:    13.4956502760
  - # 3
    frequency:    19.5670971968
  - # 4
    frequency:    19.7000783843
  - # 5
    frequency:    19.7739665871
  - # 6
    frequency:    19.8366688501
  - # 7
    frequency:    34.3722720004
  - # 8
    frequency:    34.4404461397
  - # 9
    frequency:    42.4741758376
  - # 10
    frequency:    42.5415680936
  - # 11
    frequency:    43.3540261976
  - # 12
    frequency:    43.4602495626

- q-position: [   -0.5555556,    0.1111111,    0.1250000 ]
  weight: 8    
  band:
  - # 1
    frequency:    14.3543629910
  - # 2
    frequency:    14.6890532737
  - # 3
    frequency:    18.5158418495
  - # 4
    frequency:    18.5975967959
  - # 5
    frequency:    21.0964662210
  - # 6
    frequency:    21.1735939781
  - # 7
    frequency:    39.4188376365
  - # 8
    frequency:    39.4475545972
  - # 9
    frequency:    39.7055826507
  - # 10
    frequency:    39.7588101320
  - # 11
    frequency:    42.6239733156
  - # 12
    frequency:    42.6520959447

- q-position: [   -0.4444444,    0.1111111,    0.1250000 ]
  weight: 8    
  band:
  - # 1
    frequency:    12.4059049122
  - # 2
    frequency:    13.1094611252
  - # 3
    frequency:    19.6447405669
  - # 4
    frequency:    19.7411506935
  - # 5
    frequency:    19.8773576039
  - # 6
    frequency:    20.2584232189
  - # 7
    frequency:    34.3503945003
  - # 8
    frequency:    34.4173920381
  - # 9
    frequency:    42.4438567538
  - # 10
    frequency:    42.5235250858
  - # 11
    frequency:    43.4308063471
  - # 12
    frequency:    43.4911801709

- q-position: [   -0.3333333,    0.1111111,    0.1250000 ]
  weight: 8    
  band:
  - # 1
    frequency:     9.3844564968
  - # 2
    frequency:    10.4210466734
  - # 3
    frequency:    15.8124597485
  - # 4
    frequency:    15.9243013476
  - # 5
    frequency:    21.8063419813
  - # 6
    frequency:    22.6108235683
  - # 7
    frequency:    27.2987021610
  - # 8
    frequency:    27.3709786454
  - # 9
    frequency:    43.6129022346
  - # 10
    frequency:    43.7548317104
  - # 11
    frequency:    44.8416618413
  - # 12
    frequency:    44.9699392931

- q-position: [   -0.2222222,    0.1111111,    0.1250000 ]
  weight: 8    
  band:
  - # 1
    frequency:     6.0293859320
  - # 2
    frequency:     7.4503004449
  - # 3
    frequency:    10.5817209707
  - # 4
    frequency:    10.6779090370
  - # 5
    frequency:    19.0120466518
  - # 6
    frequency:    19.1181964667
  - # 7
    frequency:    23.4017957634
  - # 8
    frequency:    24.5578218366
  - # 9
    frequency:    44.5635259893
  - # 10
    frequency:    44.7175086501
  - # 11
    frequency:    45.3539100305
  - # 12
    frequency:    45.6012535430

- q-position: [   -0.1111111,    0.1111111,    0.1250000 ]
  weight: 4    
  band:
  - # 1
    frequency:     3.1984605892
  - # 2
    frequency:     5.0564916093
  - # 3
    frequency:     5.8289175206
  - # 4
    frequency:     5.9396937811
  - # 5
    frequency:    11.4132497574
  - # 6
    frequency:    11.5889847041
  - # 7
    frequency:    24.2742864272
  - # 8
    frequency:    25.6129823520
  - # 9
    frequency:    45.2311942718
  - # 10
    frequency:    45.2858473507
  - # 11
    frequency:    45.3146507605
  - # 12
    frequency:    45.6858055490

- q-position: [    0.2222222,    0.2222222,    0.1250000 ]
  weight: 4    
  band:
  - # 1
    frequency:    12.9591660507
  - # 2
    frequency:    13.3068964007
  - # 3
    frequency:    19.7212202350
  - # 4
    frequency:    20.0175957999
  - # 5
    frequency:    21.6110739885
  - # 6
    frequency:    21.7365002146
  - # 7
    frequency:    32.0280823355
  - # 8
    frequency:    32.1205520535
  - # 9
    frequency:    43.0568292283
  - # 10
    frequency:    43.0842736739
  - # 11
    frequency:    43.3612541939
  - # 12
    frequency:    43.4977217911

- q-position: [    0.3333333,    0.2222222,    0.1250000 ]
  weight: 8    
  band:
  - # 1
    frequency:    15.0352461914
  - # 2
    frequency:    15.2704879078
  - # 3
    frequency:    17.9174358501
  - # 4
    frequency:    17.9769460020
  - # 5
    frequency:    25.4552202907
  - # 6
    frequency:    25.5525791800
  - # 7
    frequency:    36.0918251385
  - # 8
    frequency:    36.1421131396
  - # 9
    frequency:    40.0021174755
  - # 10
    frequency:    40.0180074331
  - # 11
    frequency:    43.4349600609
  - # 12
    frequency:    43.4929572437

- q-position: [   -0.5555556,    0.2222222,    0.1250000 ]
  weight: 8    
  band:
  - # 1
    frequency:    14.2646074269
  - # 2
    frequency:    14.8004441649
  - # 3
    frequency:    18.3919326859
  - # 4
    frequency:    18.5216110023
  - # 5
    frequency:    25.4250302260
  - # 6
    frequency:    25.5091510373
  - # 7
    frequency:    36.0742849765
  - # 8
    frequency:    36.1329760227
  - # 9
    frequency:    40.0100778281
  - # 10
    frequency:    40.0233996318
  - # 11
    frequency:    43.4713706512
  - # 12
    frequency:    43.4943572403

- q-position: [   -0.4444444,    0.2222222,    0.1250000 ]
  weight: 8    
  band:
  - # 1
    frequency:    11.8166095288
  - # 2
    frequency:    12.6504554463
  - # 3
    frequency:    20.2007064943
  - # 4
    frequency:    20.6859129940
  - # 5
    frequency:    21.5587692154
  - # 6
    frequency:    21.6228243627
  - # 7
    frequency:    31.9976815826
  - # 8
    frequency:    32.1015486937
  - # 9
    frequency:    43.0074566748
  - # 10
    frequency:    43.1002853899
  - # 11
    frequency:    43.4662317477
  - # 12
    frequency:    43.5063693581

- q-position: [   -0.3333333,    0.2222222,    0.1250000 ]
  weight: 8    
  band:
  - # 1
    frequency:     9.1106849099
  - # 2
    frequency:    10.2653841921
  - # 3
    frequency:    15.8303120983
  - # 4
    frequency:    15.8709968029
  - # 5
    frequency:    21.8790521890
  - # 6
    frequency:    22.7351415437
  - # 7
    frequency:    27.2513684300
  - # 8
    frequency:    27.3959017119
  - # 9
    frequency:    43.7060057171
  - # 10
    frequency:    43.7681647274
  - # 11
    frequency:    44.7583162579
  - # 12
    frequency:    44.9558535800

- q-position: [   -0.2222222,    0.2222222,    0.1250000 ]
  weight: 4    
  band:
  - # 1
    frequency:     6.7311312595
  - # 2
    frequency:     8.2015811607
  - # 3
    frequency:    11.3920703234
  - # 4
    frequency:    11.4320556118
  - # 5
    frequency:    21.9946132152
  - # 6
    frequency:    22.1665239433
  - # 7
    frequency:    23.0399687006
  - # 8
    frequency:    24.1411775090
  - # 9
    frequency:    44.2577716645
  - # 10
    frequency:    44.3299158184
  - # 11
    frequency:    45.3145058931
  - # 12
    frequency:    45.6028950028

- q-position: [   -0.6666667,    0.3333333,    0.1250000 ]
  weight: 4    
  band:
  - # 1
    frequency:    16.0259744159
  - # 2
    frequency:    16.2381116635
  - # 3
    frequency:    16.8338323406
  - # 4
    frequency:    17.0037060254
  - # 5
    frequency:    28.9469733266
  - # 6
    frequency:    29.0013965189
  - # 7
    frequency:    37.1077854330
  - # 8
    frequency:    37.1172905010
  - # 9
    frequency:    37.1350063475
  - # 10
    frequency:    37.1703829230
  - # 11
    frequency:    43.7840772425
  - # 12
    frequency:    43.8105792121

- q-position: [   -0.5555556,    0.3333333,    0.1250000 ]
  weight: 8    
  band:
  - # 1
    frequency:    14.2893805224
  - # 2
    frequency:    14.7453182457
  - # 3
    frequency:    18.4180937935
  - # 4
    frequency:    18.5367696855
  - # 5
    frequency:    25.4437085262
  - # 6
    frequency:    25.4631682306
  - # 7
    frequency:    36.0695388060
  - # 8
    frequency:    36.1566413158
  - # 9
    frequency:    40.0016937226
  - # 10
    frequency:    40.0243865156
  - # 11
    frequency:    43.4700205014
  - # 12
    frequency:    43.4794610772

- q-position: [   -0.4444444,    0.3333333,    0.1250000 ]
  weight: 8    
  band:
  - # 1
    frequency:    12.3362026378
  - # 2
    frequency:    13.0169773822
  - # 3
    frequency:    19.6785784810
  - # 4
    frequency:    19.6903153235
  - # 5
    frequency:    19.9135610822
  - # 6
    frequency:    20.3528382240
  - # 7
    frequency:    34.3133178206
  - # 8
    frequency:    34.4402086634
  - # 9
    frequency:    42.4928119474
  - # 10
    frequency:    42.5449313228
  - # 11
    frequency:    43.3822616037
  - # 12
    frequency:    43.4459563515

- q-position: [   -0.3333333,    0.3333333,    0.1250000 ]
  weight: 4    
  band:
  - # 1
    frequency:    10.3684154107
  - # 2
    frequency:    11.3274910011
  - # 3
    frequency:    15.8561136739
  - # 4
    frequency:    15.8695975742
  - # 5
    frequency:    21.1764334697
  - # 6
    frequency:    21.8987749750
  - # 7
    frequency:    30.9419977250
  - # 8
    frequency:    31.0957084196
  - # 9
    frequency:    42.9800281038
  - # 10
    frequency:    43.0327646402
  - # 11
    frequency:    44.5689598127
  - # 12
    frequency:    44.7188783965

- q-position: [   -0.5555556,    0.4444444,    0.1250000 ]
  weight: 4    
  band:
  - # 1
    frequency:    14.3019915172
  - # 2
    frequency:    14.5975095814
  - # 3
    frequency:    18.5981854537
  - # 4
    frequency:    18.6688016949
  - # 5
    frequency:    21.1199631871
  - # 6
    frequency:    21.1228446198
  - # 7
    frequency:    39.4339365310
  - # 8
    frequency:    39.4697764271
  - # 9
    frequency:    39.6648886147
  - # 10
    frequency:    39.7307749160
  - # 11
    frequency:    42.6290601122
  - # 12
    frequency:    42.6297517467

- q-position: [   -0.4444444,    0.4444444,    0.1250000 ]
  weight: 4    
  band:
  - # 1
    frequency:    13.4973722389
  - # 2
    frequency:    13.9091911777
  - # 3
    frequency:    18.4686256930
  - # 4
    frequency:    18.4710979401
  - # 5
    frequency:    19.2053659653
  - # 6
    frequency:    19.4577426894
  - # 7
    frequency:    37.7499230238
  - # 8
    frequency:    37.8497922394
  - # 9
    frequency:    42.0090184401
  - # 10
    frequency:    42.0366627229
  - # 11
    frequency:    42.2622898943
  - # 12
    frequency:    42.3138415528

- q-position: [    0.0000000,    0.0000000,    0.3750000 ]
  weight: 2    
  band:
  - # 1
    frequency:    -1.3987453609
  - # 2
    frequency:    -1.2399245958
  - # 3
    frequency:    -1.1545319994
  - # 4
    frequency:    -0.9152970639
  - # 5
    frequency:     2.2348436894
  - # 6
    frequency:     3.0106434310
  - # 7
    frequency:    25.6198731745
  - # 8
    frequency:    26.2054449918
  - # 9
    frequency:    44.1036022771
  - # 10
    frequency:    44.1412089643
  - # 11
    frequency:    44.1414088817
  - # 12
    frequency:    44.3290147113

- q-position: [    0.1111111,    0.0000000,    0.3750000 ]
  weight: 8    
  band:
  - # 1
    frequency:     4.5344086352
  - # 2
    frequency:     5.0476004987
  - # 3
    frequency:     5.9180006444
  - # 4
    frequency:     5.9834281195
  - # 5
    frequency:    11.4404242918
  - # 6
    frequency:    11.4628358674
  - # 7
    frequency:    25.0554250021
  - # 8
    frequency:    25.5963309696
  - # 9
    frequency:    43.9274356220
  - # 10
    frequency:    44.0512487950
  - # 11
    frequency:    44.3459033870
  - # 12
    frequency:    44.4287889492

- q-position: [    0.2222222,    0.0000000,    0.3750000 ]
  weight: 8    
  band:
  - # 1
    frequency:     7.9947427534
  - # 2
    frequency:     8.3752059561
  - # 3
    frequency:    11.5145164754
  - # 4
    frequency:    11.5613321619
  - # 5
    frequency:    22.1063009963
  - # 6
    frequency:    22.1299585068
  - # 7
    frequency:    23.4933334086
  - # 8
    frequency:    23.9097520307
  - # 9
    frequency:    43.3526964393
  - # 10
    frequency:    43.4540105422
  - # 11
    frequency:    44.6816072060
  - # 12
    frequency:    44.7384932187

- q-position: [    0.3333333,    0.0000000,    0.3750000 ]
  weight: 8    
  band:
  - # 1
    frequency:    11.2156068999
  - # 2
    frequency:    11.4978303219
  - # 3
    frequency:    15.9418098301
  - # 4
    frequency:    15.9676602040
  - # 5
    frequency:    21.3089670080
  - # 6
    frequency:    21.5513999187
  - # 7
    frequency:    31.0908984363
  - # 8
    frequency:    31.1168739949
  - # 9
    frequency:    42.5708831616
  - # 10
    frequency:    42.6283487754
  - # 11
    frequency:    44.2654663942
  - # 12
    frequency:    44.3060552876

- q-position: [    0.4444444,    0.0000000,    0.3750000 ]
  weight: 8    
  band:
  - # 1
    frequency:    13.7336618266
  - # 2
    frequency:    13.8907347573
  - # 3
    frequency:    18.4826655591
  - # 4
    frequency:    18.4891739273
  - # 5
    frequency:    19.2216872051
  - # 6
    frequency:    19.3013091268
  - # 7
    frequency:    37.8508962979
  - # 8
    frequency:    37.8771207488
  - # 9
    frequency:    41.9626897033
  - # 10
    frequency:    41.9804167951
  - # 11
    frequency:    42.2046529363
  - # 12
    frequency:    42.2363328079

- q-position: [    0.1111111,    0.1111111,    0.3750000 ]
  weight: 4    
  band:
  - # 1
    frequency:     7.4146869372
  - # 2
    frequency:     7.6991940402
  - # 3
    frequency:    10.6073983231
  - # 4
    frequency:    10.6713474519
  - # 5
    frequency:    19.0187269354
  - # 6
    frequency:    19.0578513161
  - # 7
    frequency:    23.9093530257
  - # 8
    frequency:    24.3547825403
  - # 9
    frequency:    43.6499159024
  - # 10
    frequency:    43.7946559392
  - # 11
    frequency:    44.5624631226
  - # 12
    frequency:    44.5904511187

- q-position: [    0.2222222,    0.1111111,    0.3750000 ]
  weight: 8    
  band:
  - # 1
    frequency:    10.5231074443
  - # 2
    frequency:    10.7408061689
  - # 3
    frequency:    15.8732477031
  - # 4
    frequency:    15.9221589093
  - # 5
    frequency:    21.9543649031
  - # 6
    frequency:    22.2418194113
  - # 7
    frequency:    27.3138995974
  - # 8
    frequency:    27.3500788275
  - # 9
    frequency:    43.1595930454
  - # 10
    frequency:    43.2484602829
  - # 11
    frequency:    44.3811976967
  - # 12
    frequency:    44.4131658303

- q-position: [    0.3333333,    0.1111111,    0.3750000 ]
  weight: 8    
  band:
  - # 1
    frequency:    13.2450619788
  - # 2
    frequency:    13.3963206541
  - # 3
    frequency:    19.6944854077
  - # 4
    frequency:    19.7109111770
  - # 5
    frequency:    19.7312335402
  - # 6
    frequency:    19.8171425969
  - # 7
    frequency:    34.3936151394
  - # 8
    frequency:    34.4218188842
  - # 9
    frequency:    42.3841694075
  - # 10
    frequency:    42.4111259901
  - # 11
    frequency:    43.2711082725
  - # 12
    frequency:    43.3157323216

- q-position: [   -0.5555556,    0.1111111,    0.3750000 ]
  weight: 8    
  band:
  - # 1
    frequency:    14.4447319022
  - # 2
    frequency:    14.5843356750
  - # 3
    frequency:    18.5330073476
  - # 4
    frequency:    18.5679303905
  - # 5
    frequency:    21.1581284507
  - # 6
    frequency:    21.1900323978
  - # 7
    frequency:    39.4414814826
  - # 8
    frequency:    39.4532088833
  - # 9
    frequency:    39.7557800763
  - # 10
    frequency:    39.7782640777
  - # 11
    frequency:    42.6456386223
  - # 12
    frequency:    42.6571403924

- q-position: [   -0.4444444,    0.1111111,    0.3750000 ]
  weight: 8    
  band:
  - # 1
    frequency:    12.5484316483
  - # 2
    frequency:    12.8401990813
  - # 3
    frequency:    19.8365735208
  - # 4
    frequency:    19.8762279433
  - # 5
    frequency:    20.0944553323
  - # 6
    frequency:    20.2521520517
  - # 7
    frequency:    34.4857829733
  - # 8
    frequency:    34.5130287576
  - # 9
    frequency:    42.3006080667
  - # 10
    frequency:    42.3338365528
  - # 11
    frequency:    43.2149631091
  - # 12
    frequency:    43.2399715200

- q-position: [   -0.3333333,    0.1111111,    0.3750000 ]
  weight: 8    
  band:
  - # 1
    frequency:     9.6376299220
  - # 2
    frequency:    10.0694591102
  - # 3
    frequency:    16.0990994149
  - # 4
    frequency:    16.1441800227
  - # 5
    frequency:    22.2958544230
  - # 6
    frequency:    22.6277383696
  - # 7
    frequency:    27.4051709919
  - # 8
    frequency:    27.4344654618
  - # 9
    frequency:    43.0889572917
  - # 10
    frequency:    43.1451450296
  - # 11
    frequency:    44.3072878238
  - # 12
    frequency:    44.3638717985

- q-position: [   -0.2222222,    0.1111111,    0.3750000 ]
  weight: 8    
  band:
  - # 1
    frequency:     6.4771245866
  - # 2
    frequency:     7.0704574792
  - # 3
    frequency:    10.8335111900
  - # 4
    frequency:    10.8712474102
  - # 5
    frequency:    19.1204731024
  - # 6
    frequency:    19.1635171983
  - # 7
    frequency:    24.1291408123
  - # 8
    frequency:    24.6059589093
  - # 9
    frequency:    43.5899866391
  - # 10
    frequency:    43.6451733220
  - # 11
    frequency:    44.5164268948
  - # 12
    frequency:    44.6303626276

- q-position: [   -0.1111111,    0.1111111,    0.3750000 ]
  weight: 4    
  band:
  - # 1
    frequency:     3.9656281643
  - # 2
    frequency:     4.7218493217
  - # 3
    frequency:     5.9671464419
  - # 4
    frequency:     6.0134818458
  - # 5
    frequency:    11.5281465162
  - # 6
    frequency:    11.5997063579
  - # 7
    frequency:    25.1308324827
  - # 8
    frequency:    25.6830644658
  - # 9
    frequency:    43.8944176893
  - # 10
    frequency:    43.9303134596
  - # 11
    frequency:    44.3406713285
  - # 12
    frequency:    44.5096420610

- q-position: [    0.2222222,    0.2222222,    0.3750000 ]
  weight: 4    
  band:
  - # 1
    frequency:    13.0746367835
  - # 2
    frequency:    13.2184375413
  - # 3
    frequency:    19.8767026108
  - # 4
    frequency:    19.9989868950
  - # 5
    frequency:    21.6278359514
  - # 6
    frequency:    21.6799848081
  - # 7
    frequency:    32.0275158616
  - # 8
    frequency:    32.0659312801
  - # 9
    frequency:    42.9139404885
  - # 10
    frequency:    42.9260209668
  - # 11
    frequency:    43.2938792379
  - # 12
    frequency:    43.3510790121

- q-position: [    0.3333333,    0.2222222,    0.3750000 ]
  weight: 8    
  band:
  - # 1
    frequency:    15.1077718428
  - # 2
    frequency:    15.2073198988
  - # 3
    frequency:    17.8902225383
  - # 4
    frequency:    17.9136198352
  - # 5
    frequency:    25.5161778290
  - # 6
    frequency:    25.5564516411
  - # 7
    frequency:    36.1284317734
  - # 8
    frequency:    36.1493288051
  - # 9
    frequency:    40.1078136077
  - # 10
    frequency:    40.1142060386
  - # 11
    frequency:    43.5048875039
  - # 12
    frequency:    43.5288022406

- q-position: [   -0.5555556,    0.2222222,    0.3750000 ]
  weight: 8    
  band:
  - # 1
    frequency:    14.3385175440
  - # 2
    frequency:    14.5626794926
  - # 3
    frequency:    18.4554236348
  - # 4
    frequency:    18.5093574289
  - # 5
    frequency:    25.6300510267
  - # 6
    frequency:    25.6650644573
  - # 7
    frequency:    36.2272315030
  - # 8
    frequency:    36.2506221740
  - # 9
    frequency:    39.9751939898
  - # 10
    frequency:    39.9810234151
  - # 11
    frequency:    43.4784323490
  - # 12
    frequency:    43.4876062275

- q-position: [   -0.4444444,    0.2222222,    0.3750000 ]
  weight: 8    
  band:
  - # 1
    frequency:    11.9584468889
  - # 2
    frequency:    12.3066848675
  - # 3
    frequency:    20.4821602004
  - # 4
    frequency:    20.6820960067
  - # 5
    frequency:    21.8777613406
  - # 6
    frequency:    21.9038762745
  - # 7
    frequency:    32.1324042240
  - # 8
    frequency:    32.1747615498
  - # 9
    frequency:    42.7709407001
  - # 10
    frequency:    42.8095750546
  - # 11
    frequency:    43.2247956527
  - # 12
    frequency:    43.2420386980

- q-position: [   -0.3333333,    0.2222222,    0.3750000 ]
  weight: 8    
  band:
  - # 1
    frequency:     9.3679716019
  - # 2
    frequency:     9.8524852452
  - # 3
    frequency:    16.1022141659
  - # 4
    frequency:    16.1180685362
  - # 5
    frequency:    22.3961322730
  - # 6
    frequency:    22.7489344286
  - # 7
    frequency:    27.4517068714
  - # 8
    frequency:    27.5107794031
  - # 9
    frequency:    43.0911648933
  - # 10
    frequency:    43.1172191522
  - # 11
    frequency:    44.2630039338
  - # 12
    frequency:    44.3456526001

- q-position: [   -0.2222222,    0.2222222,    0.3750000 ]
  weight: 4    
  band:
  - # 1
    frequency:     7.1343040767
  - # 2
    frequency:     7.7511706183
  - # 3
    frequency:    11.6066689742
  - # 4
    frequency:    11.6229196344
  - # 5
    frequency:    22.2315640121
  - # 6
    frequency:    22.3013619935
  - # 7
    frequency:    23.7246408076
  - # 8
    frequency:    24.1785808420
  - # 9
    frequency:    43.3145628171
  - # 10
    frequency:    43.3453098950
  - # 11
    frequency:    44.6133264035
  - # 12
    frequency:    44.7344602123

- q-position: [   -0.6666667,    0.3333333,    0.3750000 ]
  weight: 4    
  band:
  - # 1
    frequency:    16.0148272479
  - # 2
    frequency:    16.1204161301
  - # 3
    frequency:    16.8629401695
  - # 4
    frequency:    16.9169023035
  - # 5
    frequency:    29.1079305249
  - # 6
    frequency:    29.1308750978
  - # 7
    frequency:    37.1845256207
  - # 8
    frequency:    37.1930178651
  - # 9
    frequency:    37.2700825093
  - # 10
    frequency:    37.2892949123
  - # 11
    frequency:    43.8667475784
  - # 12
    frequency:    43.8773164049

- q-position: [   -0.5555556,    0.3333333,    0.3750000 ]
  weight: 8    
  band:
  - # 1
    frequency:    14.3406817374
  - # 2
    frequency:    14.5324118357
  - # 3
    frequency:    18.4776660347
  - # 4
    frequency:    18.5257385725
  - # 5
    frequency:    25.6811328802
  - # 6
    frequency:    25.6892040317
  - # 7
    frequency:    36.1738845432
  - # 8
    frequency:    36.2094295397
  - # 9
    frequency:    39.9834111506
  - # 10
    frequency:    39.9926763827
  - # 11
    frequency:    43.4776492210
  - # 12
    frequency:    43.4814989891

- q-position: [   -0.4444444,    0.3333333,    0.3750000 ]
  weight: 8    
  band:
  - # 1
    frequency:    12.4563822991
  - # 2
    frequency:    12.7420972898
  - # 3
    frequency:    19.8445278546
  - # 4
    frequency:    19.8491349063
  - # 5
    frequency:    20.1567759494
  - # 6
    frequency:    20.3371012544
  - # 7
    frequency:    34.4896408692
  - # 8
    frequency:    34.5417108795
  - # 9
    frequency:    42.3156803709
  - # 10
    frequency:    42.3378154414
  - # 11
    frequency:    43.1747887076
  - # 12
    frequency:    43.2008714137

- q-position: [   -0.3333333,    0.3333333,    0.3750000 ]
  weight: 4    
  band:
  - # 1
    frequency:    10.5635347173
  - # 2
    frequency:    10.9670555817
  - # 3
    frequency:    16.0028844682
  - # 4
    frequency:    16.0082480781
  - # 5
    frequency:    21.5995281008
  - # 6
    frequency:    21.8969181051
  - # 7
    frequency:    31.1873733494
  - # 8
    frequency:    31.2502974415
  - # 9
    frequency:    42.5450927951
  - # 10
    frequency:    42.5672407572
  - # 11
    frequency:    44.1718934742
  - # 12
    frequency:    44.2343950688

- q-position: [   -0.5555556,    0.4444444,    0.3750000 ]
  weight: 4    
  band:
  - # 1
    frequency:    14.3721300725
  - # 2
    frequency:    14.4953570978
  - # 3
    frequency:    18.6192648293
  - # 4
    frequency:    18.6490443662
  - # 5
    frequency:    21.2104298341
  - # 6
    frequency:    21.2116243741
  - # 7
    frequency:    39.4454024894
  - # 8
    frequency:    39.4597876914
  - # 9
    frequency:    39.7106662027
  - # 10
    frequency:    39.7372829380
  - # 11
    frequency:    42.6386053681
  - # 12
    frequency:    42.6387025169

- q-position: [   -0.4444444,    0.4444444,    0.3750000 ]
  weight: 4    
  band:
  - # 1
    frequency:    13.5952845080
  - # 2
    frequency:    13.7678852428
  - # 3
    frequency:    18.4919302699
  - # 4
    frequency:    18.4929297391
  - # 5
    frequency:    19.3255245671
  - # 6
    frequency:    19.4286207629
  - # 7
    frequency:    37.8750047761
  - # 8
    frequency:    37.9161844780
  - # 9
    frequency:    41.9587299147
  - # 10
    frequency:    41.9701884007
  - # 11
    frequency:    42.1515620942
  - # 12
    frequency:    42.1729947387

