  32  32   0   0
  0.8381369E+01  0.4932875E-09  0.4932875E-09  0.1273296E-08  0.5000000E-15
  1.000000000000000E-004
  CAR 
 graphite                                
     16.75272292    -16.54605027  301      5.13500641      1.00000000
    -16.546  0.0000E+00  0.0000E+00
    -16.435  0.0000E+00  0.0000E+00
    -16.324  0.0000E+00  0.0000E+00
    -16.213  0.0000E+00  0.0000E+00
    -16.102  0.0000E+00  0.0000E+00
    -15.991  0.0000E+00  0.0000E+00
    -15.880  0.0000E+00  0.0000E+00
    -15.769  0.0000E+00  0.0000E+00
    -15.658  0.0000E+00  0.0000E+00
    -15.547  0.0000E+00  0.0000E+00
    -15.436  0.0000E+00  0.0000E+00
    -15.325  0.0000E+00  0.0000E+00
    -15.214  0.0000E+00  0.0000E+00
    -15.103  0.0000E+00  0.0000E+00
    -14.992  0.0000E+00  0.0000E+00
    -14.881  0.0000E+00  0.0000E+00
    -14.770  0.0000E+00  0.0000E+00
    -14.659  0.0000E+00  0.0000E+00
    -14.548  0.0000E+00  0.0000E+00
    -14.437  0.1147E+01  0.4848E-01
    -14.326  0.2173E+01  0.2569E+00
    -14.215  0.2916E+01  0.5370E+00
    -14.104  0.4013E+01  0.9153E+00
    -13.993  0.5234E+01  0.1443E+01
    -13.882  0.4814E+01  0.1995E+01
    -13.771  0.4913E+01  0.2535E+01
    -13.660  0.4998E+01  0.3085E+01
    -13.549  0.4966E+01  0.3639E+01
    -13.438  0.5121E+01  0.4195E+01
    -13.327  0.6567E+01  0.4830E+01
    -13.216  0.7091E+01  0.5594E+01
    -13.105  0.6417E+01  0.6353E+01
    -12.994  0.6142E+01  0.7063E+01
    -12.883  0.2511E+01  0.7548E+01
    -12.772  0.1861E+01  0.7783E+01
    -12.661  0.1855E+01  0.7984E+01
    -12.550  0.2379E+01  0.8217E+01
    -12.439  0.6012E+01  0.8590E+01
    -12.328  0.6143E+01  0.9484E+01
    -12.217  0.6919E+01  0.1019E+02
    -12.106  0.6788E+01  0.1098E+02
    -11.995  0.4089E+01  0.1158E+02
    -11.884  0.4231E+01  0.1204E+02
    -11.773  0.4422E+01  0.1252E+02
    -11.662  0.4619E+01  0.1302E+02
    -11.551  0.4800E+01  0.1354E+02
    -11.440  0.5009E+01  0.1409E+02
    -11.329  0.5196E+01  0.1465E+02
    -11.218  0.5380E+01  0.1524E+02
    -11.107  0.5819E+01  0.1586E+02
    -10.996  0.5971E+01  0.1653E+02
    -10.885  0.5735E+01  0.1718E+02
    -10.774  0.5662E+01  0.1781E+02
    -10.663  0.5839E+01  0.1845E+02
    -10.552  0.6017E+01  0.1910E+02
    -10.441  0.5844E+01  0.1977E+02
    -10.330  0.5794E+01  0.2041E+02
    -10.219  0.5768E+01  0.2105E+02
    -10.108  0.5111E+01  0.2167E+02
     -9.997  0.3886E+01  0.2216E+02
     -9.886  0.3821E+01  0.2258E+02
     -9.775  0.4619E+01  0.2305E+02
     -9.664  0.4930E+01  0.2358E+02
     -9.553  0.6162E+01  0.2419E+02
     -9.442  0.7610E+01  0.2494E+02
     -9.331  0.1082E+02  0.2592E+02
     -9.220  0.8941E+01  0.2705E+02
     -9.109  0.6556E+01  0.2791E+02
     -8.998  0.4939E+01  0.2853E+02
     -8.887  0.4398E+01  0.2905E+02
     -8.776  0.3856E+01  0.2950E+02
     -8.665  0.4686E+01  0.3015E+02
     -8.554  0.4644E+01  0.3065E+02
     -8.443  0.1955E+01  0.3102E+02
     -8.332  0.1737E+01  0.3123E+02
     -8.221  0.1520E+01  0.3141E+02
     -8.110  0.1303E+01  0.3156E+02
     -7.999  0.1448E+01  0.3171E+02
     -7.888  0.1939E+01  0.3190E+02
     -7.777  0.2446E+01  0.3214E+02
     -7.666  0.3088E+01  0.3244E+02
     -7.555  0.7653E+01  0.3299E+02
     -7.444  0.7700E+01  0.3402E+02
     -7.333  0.5099E+01  0.3466E+02
     -7.222  0.5498E+01  0.3524E+02
     -7.111  0.6748E+01  0.3592E+02
     -7.000  0.7998E+01  0.3674E+02
     -6.889  0.9249E+01  0.3770E+02
     -6.778  0.8062E+01  0.3869E+02
     -6.667  0.6259E+01  0.3951E+02
     -6.556  0.5581E+01  0.4013E+02
     -6.445  0.5516E+01  0.4075E+02
     -6.334  0.5444E+01  0.4136E+02
     -6.223  0.5265E+01  0.4195E+02
     -6.112  0.5080E+01  0.4253E+02
     -6.001  0.4957E+01  0.4308E+02
     -5.890  0.4838E+01  0.4363E+02
     -5.779  0.4719E+01  0.4416E+02
     -5.668  0.4600E+01  0.4467E+02
     -5.557  0.4481E+01  0.4518E+02
     -5.446  0.4358E+01  0.4567E+02
     -5.335  0.4459E+01  0.4615E+02
     -5.224  0.5149E+01  0.4669E+02
     -5.113  0.5770E+01  0.4729E+02
     -5.002  0.6391E+01  0.4797E+02
     -4.891  0.7012E+01  0.4871E+02
     -4.780  0.7632E+01  0.4952E+02
     -4.669  0.8253E+01  0.5041E+02
     -4.558  0.8874E+01  0.5136E+02
     -4.447  0.6120E+01  0.5219E+02
     -4.337  0.5190E+01  0.5276E+02
     -4.226  0.6823E+01  0.5343E+02
     -4.115  0.5901E+01  0.5417E+02
     -4.004  0.4326E+01  0.5474E+02
     -3.893  0.2751E+01  0.5513E+02
     -3.782  0.1204E+01  0.5535E+02
     -3.671  0.1847E+01  0.5549E+02
     -3.560  0.3540E+01  0.5579E+02
     -3.449  0.5638E+01  0.5629E+02
     -3.338  0.9107E+01  0.5709E+02
     -3.227  0.1246E+02  0.5827E+02
     -3.116  0.1285E+02  0.5971E+02
     -3.005  0.1123E+02  0.6110E+02
     -2.894  0.5777E+01  0.6205E+02
     -2.783  0.5137E+01  0.6263E+02
     -2.672  0.6256E+01  0.6326E+02
     -2.561  0.7357E+01  0.6401E+02
     -2.450  0.1233E+02  0.6506E+02
     -2.339  0.1851E+02  0.6677E+02
     -2.228  0.1418E+02  0.6893E+02
     -2.117  0.7409E+01  0.6991E+02
     -2.006  0.7294E+01  0.7073E+02
     -1.895  0.7304E+01  0.7154E+02
     -1.784  0.8026E+01  0.7238E+02
     -1.673  0.1194E+02  0.7340E+02
     -1.562  0.1389E+02  0.7504E+02
     -1.451  0.1058E+02  0.7640E+02
     -1.340  0.1073E+02  0.7744E+02
     -1.229  0.2107E+02  0.7979E+02
     -1.118  0.2056E+02  0.8216E+02
     -1.007  0.1735E+02  0.8439E+02
     -0.896  0.1492E+02  0.8611E+02
     -0.785  0.1479E+02  0.8775E+02
     -0.674  0.1046E+02  0.8918E+02
     -0.563  0.8301E+01  0.9021E+02
     -0.452  0.6928E+01  0.9105E+02
     -0.341  0.7709E+01  0.9186E+02
     -0.230  0.8665E+01  0.9276E+02
     -0.119  0.9983E+01  0.9379E+02
     -0.008  0.1091E+02  0.9496E+02
      0.103  0.1290E+02  0.9623E+02
      0.214  0.1262E+02  0.9820E+02
      0.325  0.1220E+02  0.9955E+02
      0.436  0.1209E+02  0.1009E+03
      0.547  0.9410E+01  0.1021E+03
      0.658  0.8891E+01  0.1031E+03
      0.769  0.8969E+01  0.1041E+03
      0.880  0.8695E+01  0.1051E+03
      0.991  0.8626E+01  0.1060E+03
      1.102  0.1127E+02  0.1071E+03
      1.213  0.9785E+01  0.1082E+03
      1.324  0.9867E+01  0.1093E+03
      1.435  0.9837E+01  0.1104E+03
      1.546  0.1045E+02  0.1115E+03
      1.657  0.9780E+01  0.1127E+03
      1.768  0.8813E+01  0.1137E+03
      1.879  0.1033E+02  0.1147E+03
      1.990  0.9561E+01  0.1158E+03
      2.101  0.8216E+01  0.1168E+03
      2.212  0.7406E+01  0.1177E+03
      2.323  0.5577E+01  0.1184E+03
      2.434  0.4665E+01  0.1190E+03
      2.545  0.3277E+01  0.1194E+03
      2.656  0.3071E+01  0.1197E+03
      2.767  0.4233E+01  0.1201E+03
      2.878  0.5306E+01  0.1206E+03
      2.989  0.7926E+01  0.1214E+03
      3.100  0.8170E+01  0.1223E+03
      3.211  0.7166E+01  0.1231E+03
      3.322  0.6887E+01  0.1239E+03
      3.433  0.6419E+01  0.1246E+03
      3.544  0.4824E+01  0.1253E+03
      3.655  0.3837E+01  0.1257E+03
      3.766  0.3286E+01  0.1261E+03
      3.877  0.2836E+01  0.1265E+03
      3.988  0.2419E+01  0.1268E+03
      4.099  0.2073E+01  0.1270E+03
      4.210  0.1779E+01  0.1272E+03
      4.321  0.1526E+01  0.1274E+03
      4.432  0.1332E+01  0.1276E+03
      4.543  0.1093E+01  0.1277E+03
      4.654  0.8658E+00  0.1278E+03
      4.765  0.6477E+00  0.1279E+03
      4.876  0.4384E+00  0.1279E+03
      4.987  0.2368E+00  0.1280E+03
      5.098  0.4285E-01  0.1280E+03
      5.209  0.6535E-01  0.1280E+03
      5.320  0.1959E+00  0.1280E+03
      5.431  0.3352E+00  0.1280E+03
      5.542  0.4836E+00  0.1281E+03
      5.653  0.6436E+00  0.1282E+03
      5.764  0.8157E+00  0.1282E+03
      5.875  0.1002E+01  0.1283E+03
      5.986  0.1211E+01  0.1285E+03
      6.097  0.1452E+01  0.1286E+03
      6.208  0.2115E+01  0.1288E+03
      6.319  0.2700E+01  0.1291E+03
      6.430  0.3232E+01  0.1294E+03
      6.541  0.3629E+01  0.1298E+03
      6.652  0.5256E+01  0.1302E+03
      6.763  0.1181E+02  0.1311E+03
      6.874  0.1136E+02  0.1325E+03
      6.985  0.8749E+01  0.1337E+03
      7.096  0.6708E+01  0.1345E+03
      7.207  0.5720E+01  0.1352E+03
      7.318  0.4987E+01  0.1358E+03
      7.429  0.4663E+01  0.1363E+03
      7.540  0.4236E+01  0.1368E+03
      7.651  0.3781E+01  0.1373E+03
      7.762  0.3567E+01  0.1377E+03
      7.873  0.3708E+01  0.1381E+03
      7.984  0.4090E+01  0.1385E+03
      8.095  0.4467E+01  0.1390E+03
      8.206  0.4726E+01  0.1395E+03
      8.317  0.4891E+01  0.1400E+03
      8.428  0.4712E+01  0.1406E+03
      8.539  0.4537E+01  0.1411E+03
      8.650  0.4435E+01  0.1416E+03
      8.761  0.4341E+01  0.1421E+03
      8.872  0.4239E+01  0.1425E+03
      8.983  0.4147E+01  0.1430E+03
      9.094  0.4059E+01  0.1435E+03
      9.205  0.3755E+01  0.1439E+03
      9.316  0.3497E+01  0.1443E+03
      9.427  0.3356E+01  0.1447E+03
      9.538  0.3295E+01  0.1450E+03
      9.649  0.3217E+01  0.1454E+03
      9.760  0.3131E+01  0.1458E+03
      9.871  0.3072E+01  0.1461E+03
      9.982  0.3031E+01  0.1464E+03
     10.093  0.3133E+01  0.1468E+03
     10.204  0.3342E+01  0.1471E+03
     10.315  0.3385E+01  0.1475E+03
     10.426  0.3367E+01  0.1479E+03
     10.537  0.3413E+01  0.1483E+03
     10.648  0.3591E+01  0.1486E+03
     10.759  0.4352E+01  0.1491E+03
     10.870  0.4599E+01  0.1496E+03
     10.981  0.4682E+01  0.1501E+03
     11.092  0.4625E+01  0.1506E+03
     11.203  0.4437E+01  0.1511E+03
     11.314  0.4259E+01  0.1516E+03
     11.425  0.4986E+01  0.1521E+03
     11.536  0.7467E+01  0.1527E+03
     11.647  0.3527E+01  0.1534E+03
     11.758  0.2635E+01  0.1537E+03
     11.869  0.2395E+01  0.1540E+03
     11.980  0.2303E+01  0.1543E+03
     12.091  0.2277E+01  0.1545E+03
     12.202  0.2572E+01  0.1548E+03
     12.313  0.3345E+01  0.1551E+03
     12.424  0.5887E+01  0.1556E+03
     12.535  0.6500E+01  0.1563E+03
     12.646  0.7266E+01  0.1571E+03
     12.757  0.9156E+01  0.1580E+03
     12.868  0.1167E+02  0.1591E+03
     12.979  0.1487E+02  0.1606E+03
     13.090  0.1427E+02  0.1623E+03
     13.201  0.1317E+02  0.1638E+03
     13.312  0.1008E+02  0.1651E+03
     13.423  0.1012E+02  0.1662E+03
     13.534  0.9113E+01  0.1674E+03
     13.645  0.1389E+01  0.1678E+03
     13.756  0.5271E+00  0.1679E+03
     13.867  0.2352E+00  0.1679E+03
     13.978  0.1726E+00  0.1680E+03
     14.089  0.1267E+00  0.1680E+03
     14.200  0.8786E-01  0.1680E+03
     14.311  0.5612E-01  0.1680E+03
     14.422  0.3147E-01  0.1680E+03
     14.533  0.1390E-01  0.1680E+03
     14.644  0.3410E-02  0.1680E+03
     14.755  0.0000E+00  0.1680E+03
     14.866  0.0000E+00  0.1680E+03
     14.977  0.0000E+00  0.1680E+03
     15.088  0.0000E+00  0.1680E+03
     15.199  0.0000E+00  0.1680E+03
     15.310  0.0000E+00  0.1680E+03
     15.421  0.0000E+00  0.1680E+03
     15.532  0.0000E+00  0.1680E+03
     15.643  0.0000E+00  0.1680E+03
     15.754  0.0000E+00  0.1680E+03
     15.865  0.0000E+00  0.1680E+03
     15.976  0.0000E+00  0.1680E+03
     16.087  0.0000E+00  0.1680E+03
     16.198  0.0000E+00  0.1680E+03
     16.309  0.0000E+00  0.1680E+03
     16.420  0.0000E+00  0.1680E+03
     16.531  0.0000E+00  0.1680E+03
     16.642  0.0000E+00  0.1680E+03
     16.753  0.0000E+00  0.1680E+03
