 running on    6 total cores
 distrk:  each k-point on    6 cores,    1 groups
 distr:  one band on    1 cores,    6 groups
 using from now: INCAR     
 vasp.5.3.5 31Mar14 (build Nov 02 2014 15:17:37) complex                        
  
 POSCAR found :  1 types and      32 ions
 scaLAPACK will be used

 ----------------------------------------------------------------------------- 
|                                                                             |
|           W    W    AA    RRRRR   N    N  II  N    N   GGGG   !!!           |
|           W    W   A  A   R    R  NN   N  II  NN   N  G    G  !!!           |
|           W    W  A    A  R    R  N N  N  II  N N  N  G       !!!           |
|           W WW W  AAAAAA  RRRRR   N  N N  II  N  N N  G  GGG   !            |
|           WW  WW  A    A  R   R   N   NN  II  N   NN  G    G                |
|           W    W  A    A  R    R  N    N  II  N    N   GGGG   !!!           |
|                                                                             |
|      For optimal performance we recommend to set                            |
|        NCORE= 4 - approx SQRT( number of cores)                             |
|      NCORE specifies how many cores store one orbital (NPAR=cpu/NCORE).     |
|      This setting can  greatly improve the performance of VASP for DFT.     |
|      The default, NPAR=number of cores might be grossly inefficient         |
|      on modern multi-core architectures or massively parallel machines.     |
|      Do your own testing !!!!                                               |
|      Unfortunately you need to use the default for GW and RPA calculations. |
|      (for HF NCORE is supported but not extensively tested yet)             |
|                                                                             |
 ----------------------------------------------------------------------------- 


 ----------------------------------------------------------------------------- 
|                                                                             |
|  ADVICE TO THIS USER RUNNING 'VASP/VAMP'   (HEAR YOUR MASTER'S VOICE ...):  |
|                                                                             |
|      You have a (more or less) 'large supercell' and for larger cells       |
|      it might be more efficient to use real space projection operators      |
|      So try LREAL= Auto  in the INCAR   file.                               |
|      Mind: If you want to do a very accurate calculations keep the          |
|      reciprocal projection scheme          (i.e. LREAL=.FALSE.)             |
|                                                                             |
 ----------------------------------------------------------------------------- 

 LDA part: xc-table for Pade appr. of Perdew
 POSCAR, INCAR and KPOINTS ok, starting setup
 FFT: planning ...
 WAVECAR not read
 WARNING: random wavefunctions but no delay for mixing, default for NELMDL
 entering main loop
       N       E                     dE             d eps       ncg     rms          rms(c)
DAV:   1     0.685312675287E+03    0.68531E+03   -0.84990E+04 12768   0.202E+03
DAV:   2    -0.256837225641E+03   -0.94215E+03   -0.90708E+03 15864   0.341E+02
DAV:   3    -0.311879796521E+03   -0.55043E+02   -0.54447E+02 15492   0.806E+01
DAV:   4    -0.312937711547E+03   -0.10579E+01   -0.10557E+01 15948   0.120E+01
DAV:   5    -0.312967709675E+03   -0.29998E-01   -0.29986E-01 16020   0.191E+00    0.221E+01
DAV:   6    -0.298797076902E+03    0.14171E+02   -0.14615E+01 14592   0.107E+01    0.116E+01
DAV:   7    -0.294355220939E+03    0.44419E+01   -0.15103E+01 14568   0.109E+01    0.192E+00
DAV:   8    -0.294412718754E+03   -0.57498E-01   -0.57082E-01 14736   0.205E+00    0.712E-01
DAV:   9    -0.294408588561E+03    0.41302E-02   -0.51327E-02 15024   0.757E-01    0.235E-01
DAV:  10    -0.294407851318E+03    0.73724E-03   -0.11065E-02 15552   0.322E-01    0.165E-01
DAV:  11    -0.294407363247E+03    0.48807E-03   -0.37410E-03 14616   0.214E-01    0.907E-02
DAV:  12    -0.294408496903E+03   -0.11337E-02   -0.13391E-02 18876   0.227E-01    0.116E-01
DAV:  13    -0.294408126494E+03    0.37041E-03   -0.75545E-04 14772   0.110E-01    0.985E-02
DAV:  14    -0.294407828777E+03    0.29772E-03   -0.22569E-03 20940   0.116E-01    0.491E-02
DAV:  15    -0.294408130972E+03   -0.30220E-03   -0.11908E-03 16536   0.908E-02    0.871E-02
DAV:  16    -0.294407910056E+03    0.22092E-03   -0.31055E-03 17256   0.113E-01    0.532E-02
DAV:  17    -0.294407852215E+03    0.57841E-04   -0.56092E-04 15144   0.421E-02    0.337E-02
DAV:  18    -0.294407865318E+03   -0.13103E-04   -0.47388E-04 15720   0.224E-02    0.403E-02
DAV:  19    -0.294407864226E+03    0.10927E-05   -0.66155E-06 14568   0.776E-03    0.398E-02
DAV:  20    -0.294407848825E+03    0.15401E-04   -0.16116E-04 19608   0.157E-02    0.275E-02
DAV:  21    -0.294407847290E+03    0.15350E-05   -0.12085E-05 15000   0.738E-03    0.220E-02
DAV:  22    -0.294407845660E+03    0.16296E-05   -0.75457E-06 14928   0.333E-03    0.893E-03
DAV:  23    -0.294407845613E+03    0.46641E-07   -0.47962E-06 15204   0.177E-03    0.636E-03
DAV:  24    -0.294407845908E+03   -0.29446E-06   -0.23966E-06 15612   0.250E-03    0.123E-02
DAV:  25    -0.294407848269E+03   -0.23609E-05   -0.12962E-05 19932   0.385E-03    0.255E-02
DAV:  26    -0.294407845367E+03    0.29016E-05   -0.23319E-05 17340   0.423E-03    0.206E-03
DAV:  27    -0.294407845551E+03   -0.18398E-06   -0.28163E-06 15336   0.208E-03    0.785E-03
DAV:  28    -0.294407845464E+03    0.87206E-07   -0.15942E-07 14232   0.812E-04    0.623E-03
DAV:  29    -0.294407845691E+03   -0.22730E-06   -0.63522E-07 11832   0.715E-04    0.106E-02
DAV:  30    -0.294407845357E+03    0.33399E-06   -0.17090E-06  9144   0.857E-04    0.295E-03
DAV:  31    -0.294407845353E+03    0.45766E-08   -0.10214E-06 12072   0.804E-04    0.321E-03
DAV:  32    -0.294407845320E+03    0.33089E-07   -0.16957E-07  9072   0.412E-04    0.721E-04
DAV:  33    -0.294407845314E+03    0.57280E-08   -0.74381E-08  9000   0.246E-04
   1 F= -.29972901E+03 E0= -.29972901E+03  d E =0.000000E+00
