   4   4   0   0
  0.5317807E+01  0.2467155E-09  0.2467155E-09  0.4035445E-09  0.5000000E-15
  1.000000000000000E-004
  CAR 
 graphite                                
     26.71697363    -13.76553840  301     11.67482606      1.00000000
    -13.766  0.0000E+00  0.0000E+00
    -13.631  0.0000E+00  0.0000E+00
    -13.496  0.0000E+00  0.0000E+00
    -13.361  0.0000E+00  0.0000E+00
    -13.226  0.0000E+00  0.0000E+00
    -13.091  0.0000E+00  0.0000E+00
    -12.956  0.0000E+00  0.0000E+00
    -12.821  0.0000E+00  0.0000E+00
    -12.686  0.0000E+00  0.0000E+00
    -12.551  0.0000E+00  0.0000E+00
    -12.416  0.0000E+00  0.0000E+00
    -12.281  0.0000E+00  0.0000E+00
    -12.146  0.0000E+00  0.0000E+00
    -12.011  0.0000E+00  0.0000E+00
    -11.876  0.0000E+00  0.0000E+00
    -11.741  0.1945E-04  0.1564E-06
    -11.606  0.3878E-03  0.3019E-04
    -11.472  0.5434E-03  0.9203E-04
    -11.337  0.6636E-03  0.1728E-03
    -11.202  0.7898E-03  0.2718E-03
    -11.067  0.8608E-03  0.3833E-03
    -10.932  0.9526E-03  0.5053E-03
    -10.797  0.1052E-02  0.6407E-03
    -10.662  0.1115E-02  0.7874E-03
    -10.527  0.1181E-02  0.9423E-03
    -10.392  0.1250E-02  0.1106E-02
    -10.257  0.1321E-02  0.1280E-02
    -10.122  0.1379E-02  0.1462E-02
     -9.987  0.1444E-02  0.1652E-02
     -9.852  0.1500E-02  0.1851E-02
     -9.717  0.1558E-02  0.2057E-02
     -9.582  0.1615E-02  0.2272E-02
     -9.447  0.1664E-02  0.2493E-02
     -9.312  0.1716E-02  0.2721E-02
     -9.178  0.1772E-02  0.2956E-02
     -9.043  0.1831E-02  0.3199E-02
     -8.908  0.1887E-02  0.3450E-02
     -8.773  0.1932E-02  0.3708E-02
     -8.638  0.1979E-02  0.3972E-02
     -8.503  0.2029E-02  0.4242E-02
     -8.368  0.2080E-02  0.4519E-02
     -8.233  0.2134E-02  0.4804E-02
     -8.098  0.2189E-02  0.5095E-02
     -7.963  0.2239E-02  0.5394E-02
     -7.828  0.2291E-02  0.5700E-02
     -7.693  0.2345E-02  0.6013E-02
     -7.558  0.2401E-02  0.6333E-02
     -7.423  0.2459E-02  0.6661E-02
     -7.288  0.2518E-02  0.6996E-02
     -7.153  0.2580E-02  0.7340E-02
     -7.018  0.2642E-02  0.7693E-02
     -6.884  0.2706E-02  0.8054E-02
     -6.749  0.2798E-02  0.8424E-02
     -6.614  0.2926E-02  0.8810E-02
     -6.479  0.3071E-02  0.9215E-02
     -6.344  0.3228E-02  0.9639E-02
     -6.209  0.3543E-02  0.1010E-01
     -6.074  0.3451E-02  0.1057E-01
     -5.939  0.3376E-02  0.1103E-01
     -5.804  0.3452E-02  0.1150E-01
     -5.669  0.3235E-02  0.1195E-01
     -5.534  0.3150E-02  0.1238E-01
     -5.399  0.3031E-02  0.1280E-01
     -5.264  0.2930E-02  0.1320E-01
     -5.129  0.2994E-02  0.1359E-01
     -4.994  0.2870E-02  0.1399E-01
     -4.859  0.2873E-02  0.1438E-01
     -4.724  0.3142E-02  0.1478E-01
     -4.590  0.3144E-02  0.1521E-01
     -4.455  0.3298E-02  0.1564E-01
     -4.320  0.3559E-02  0.1610E-01
     -4.185  0.3866E-02  0.1662E-01
     -4.050  0.3376E-02  0.1710E-01
     -3.915  0.3167E-02  0.1754E-01
     -3.780  0.3089E-02  0.1796E-01
     -3.645  0.2884E-02  0.1837E-01
     -3.510  0.2631E-02  0.1874E-01
     -3.375  0.2592E-02  0.1909E-01
     -3.240  0.2529E-02  0.1944E-01
     -3.105  0.2559E-02  0.1979E-01
     -2.970  0.2319E-02  0.2011E-01
     -2.835  0.2289E-02  0.2042E-01
     -2.700  0.2296E-02  0.2073E-01
     -2.565  0.2659E-02  0.2106E-01
     -2.430  0.3777E-02  0.2148E-01
     -2.295  0.4549E-02  0.2202E-01
     -2.161  0.4341E-02  0.2266E-01
     -2.026  0.4080E-02  0.2323E-01
     -1.891  0.4040E-02  0.2378E-01
     -1.756  0.3524E-02  0.2428E-01
     -1.621  0.3398E-02  0.2475E-01
     -1.486  0.3383E-02  0.2521E-01
     -1.351  0.3227E-02  0.2565E-01
     -1.216  0.3068E-02  0.2607E-01
     -1.081  0.3124E-02  0.2649E-01
     -0.946  0.3360E-02  0.2692E-01
     -0.811  0.3774E-02  0.2740E-01
     -0.676  0.4002E-02  0.2793E-01
     -0.541  0.3989E-02  0.2847E-01
     -0.406  0.3601E-02  0.2899E-01
     -0.271  0.3680E-02  0.2948E-01
     -0.136  0.3620E-02  0.2997E-01
     -0.001  0.3760E-02  0.3047E-01
      0.133  0.3952E-02  0.3099E-01
      0.268  0.4073E-02  0.3153E-01
      0.403  0.4184E-02  0.3209E-01
      0.538  0.4327E-02  0.3266E-01
      0.673  0.4468E-02  0.3326E-01
      0.808  0.4358E-02  0.3385E-01
      0.943  0.4276E-02  0.3443E-01
      1.078  0.4435E-02  0.3502E-01
      1.213  0.4654E-02  0.3563E-01
      1.348  0.5268E-02  0.3628E-01
      1.483  0.5180E-02  0.3701E-01
      1.618  0.5132E-02  0.3771E-01
      1.753  0.4732E-02  0.3837E-01
      1.888  0.4537E-02  0.3899E-01
      2.023  0.4694E-02  0.3961E-01
      2.158  0.5182E-02  0.4027E-01
      2.293  0.5811E-02  0.4102E-01
      2.427  0.5433E-02  0.4179E-01
      2.562  0.5194E-02  0.4251E-01
      2.697  0.5492E-02  0.4322E-01
      2.832  0.6014E-02  0.4400E-01
      2.967  0.6444E-02  0.4484E-01
      3.102  0.6394E-02  0.4571E-01
      3.237  0.6483E-02  0.4658E-01
      3.372  0.6496E-02  0.4746E-01
      3.507  0.6505E-02  0.4833E-01
      3.642  0.6509E-02  0.4921E-01
      3.777  0.6678E-02  0.5009E-01
      3.912  0.6662E-02  0.5100E-01
      4.047  0.6579E-02  0.5189E-01
      4.182  0.6466E-02  0.5277E-01
      4.317  0.6478E-02  0.5365E-01
      4.452  0.6733E-02  0.5453E-01
      4.587  0.6965E-02  0.5546E-01
      4.721  0.6247E-02  0.5636E-01
      4.856  0.5616E-02  0.5715E-01
      4.991  0.5760E-02  0.5791E-01
      5.126  0.6377E-02  0.5874E-01
      5.261  0.5875E-02  0.5958E-01
      5.396  0.5694E-02  0.6036E-01
      5.531  0.5376E-02  0.6110E-01
      5.666  0.5184E-02  0.6182E-01
      5.801  0.4727E-02  0.6249E-01
      5.936  0.4512E-02  0.6311E-01
      6.071  0.4702E-02  0.6373E-01
      6.206  0.4514E-02  0.6436E-01
      6.341  0.4245E-02  0.6495E-01
      6.476  0.4048E-02  0.6551E-01
      6.611  0.3885E-02  0.6604E-01
      6.746  0.3697E-02  0.6656E-01
      6.881  0.3348E-02  0.6703E-01
      7.015  0.3208E-02  0.6747E-01
      7.150  0.3123E-02  0.6790E-01
      7.285  0.3157E-02  0.6832E-01
      7.420  0.2870E-02  0.6872E-01
      7.555  0.2649E-02  0.6909E-01
      7.690  0.2540E-02  0.6945E-01
      7.825  0.2125E-02  0.6976E-01
      7.960  0.1776E-02  0.7000E-01
      8.095  0.1882E-02  0.7025E-01
      8.230  0.1958E-02  0.7051E-01
      8.365  0.2024E-02  0.7078E-01
      8.500  0.2099E-02  0.7106E-01
      8.635  0.2203E-02  0.7135E-01
      8.770  0.2319E-02  0.7165E-01
      8.905  0.2477E-02  0.7197E-01
      9.040  0.2652E-02  0.7232E-01
      9.175  0.2800E-02  0.7269E-01
      9.309  0.2929E-02  0.7307E-01
      9.444  0.3224E-02  0.7349E-01
      9.579  0.3423E-02  0.7394E-01
      9.714  0.3444E-02  0.7440E-01
      9.849  0.3567E-02  0.7487E-01
      9.984  0.3463E-02  0.7535E-01
     10.119  0.3306E-02  0.7581E-01
     10.254  0.3213E-02  0.7625E-01
     10.389  0.3024E-02  0.7667E-01
     10.524  0.2987E-02  0.7708E-01
     10.659  0.2921E-02  0.7747E-01
     10.794  0.2910E-02  0.7788E-01
     10.929  0.2618E-02  0.7825E-01
     11.064  0.2283E-02  0.7858E-01
     11.199  0.2174E-02  0.7888E-01
     11.334  0.2229E-02  0.7917E-01
     11.469  0.2357E-02  0.7948E-01
     11.604  0.2534E-02  0.7981E-01
     11.738  0.2881E-02  0.8018E-01
     11.873  0.2865E-02  0.8057E-01
     12.008  0.2306E-02  0.8092E-01
     12.143  0.1675E-02  0.8119E-01
     12.278  0.1486E-02  0.8140E-01
     12.413  0.1709E-02  0.8161E-01
     12.548  0.2785E-02  0.8189E-01
     12.683  0.3631E-02  0.8233E-01
     12.818  0.3680E-02  0.8284E-01
     12.953  0.3391E-02  0.8331E-01
     13.088  0.3447E-02  0.8377E-01
     13.223  0.3691E-02  0.8425E-01
     13.358  0.3410E-02  0.8472E-01
     13.493  0.3361E-02  0.8518E-01
     13.628  0.3397E-02  0.8563E-01
     13.763  0.3401E-02  0.8609E-01
     13.898  0.3454E-02  0.8655E-01
     14.032  0.3371E-02  0.8701E-01
     14.167  0.3269E-02  0.8746E-01
     14.302  0.3007E-02  0.8789E-01
     14.437  0.2843E-02  0.8828E-01
     14.572  0.2743E-02  0.8866E-01
     14.707  0.2581E-02  0.8901E-01
     14.842  0.2491E-02  0.8935E-01
     14.977  0.2895E-02  0.8972E-01
     15.112  0.3105E-02  0.9012E-01
     15.247  0.3175E-02  0.9055E-01
     15.382  0.3109E-02  0.9097E-01
     15.517  0.3148E-02  0.9139E-01
     15.652  0.3160E-02  0.9182E-01
     15.787  0.3151E-02  0.9225E-01
     15.922  0.3170E-02  0.9267E-01
     16.057  0.3171E-02  0.9310E-01
     16.192  0.3158E-02  0.9353E-01
     16.326  0.3133E-02  0.9395E-01
     16.461  0.3117E-02  0.9437E-01
     16.596  0.3086E-02  0.9479E-01
     16.731  0.3145E-02  0.9521E-01
     16.866  0.3370E-02  0.9565E-01
     17.001  0.3566E-02  0.9612E-01
     17.136  0.3779E-02  0.9661E-01
     17.271  0.4089E-02  0.9714E-01
     17.406  0.4411E-02  0.9771E-01
     17.541  0.4753E-02  0.9833E-01
     17.676  0.4950E-02  0.9898E-01
     17.811  0.5462E-02  0.9968E-01
     17.946  0.5330E-02  0.1004E+00
     18.081  0.4326E-02  0.1011E+00
     18.216  0.3956E-02  0.1016E+00
     18.351  0.4577E-02  0.1022E+00
     18.486  0.2790E-02  0.1027E+00
     18.620  0.2878E-02  0.1031E+00
     18.755  0.3377E-02  0.1035E+00
     18.890  0.4475E-02  0.1040E+00
     19.025  0.5935E-02  0.1048E+00
     19.160  0.5640E-02  0.1056E+00
     19.295  0.5074E-02  0.1063E+00
     19.430  0.5273E-02  0.1070E+00
     19.565  0.4537E-02  0.1076E+00
     19.700  0.4099E-02  0.1082E+00
     19.835  0.3823E-02  0.1088E+00
     19.970  0.3804E-02  0.1093E+00
     20.105  0.3730E-02  0.1098E+00
     20.240  0.3560E-02  0.1103E+00
     20.375  0.3568E-02  0.1107E+00
     20.510  0.3684E-02  0.1112E+00
     20.645  0.3967E-02  0.1117E+00
     20.780  0.4522E-02  0.1123E+00
     20.914  0.5822E-02  0.1130E+00
     21.049  0.6371E-02  0.1138E+00
     21.184  0.5580E-02  0.1147E+00
     21.319  0.4625E-02  0.1153E+00
     21.454  0.3441E-02  0.1159E+00
     21.589  0.3083E-02  0.1163E+00
     21.724  0.3103E-02  0.1168E+00
     21.859  0.2540E-02  0.1171E+00
     21.994  0.2374E-02  0.1175E+00
     22.129  0.2217E-02  0.1178E+00
     22.264  0.2081E-02  0.1181E+00
     22.399  0.2014E-02  0.1183E+00
     22.534  0.2394E-02  0.1186E+00
     22.669  0.1412E-02  0.1189E+00
     22.804  0.1181E-02  0.1190E+00
     22.939  0.1008E-02  0.1192E+00
     23.074  0.8880E-03  0.1193E+00
     23.208  0.8203E-03  0.1194E+00
     23.343  0.7807E-03  0.1195E+00
     23.478  0.7860E-03  0.1196E+00
     23.613  0.1207E-02  0.1198E+00
     23.748  0.3973E-03  0.1199E+00
     23.883  0.2995E-03  0.1199E+00
     24.018  0.2141E-03  0.1199E+00
     24.153  0.1424E-03  0.1200E+00
     24.288  0.8432E-04  0.1200E+00
     24.423  0.3986E-04  0.1200E+00
     24.558  0.1086E-04  0.1200E+00
     24.693  0.1058E-06  0.1200E+00
     24.828  0.0000E+00  0.1200E+00
     24.963  0.0000E+00  0.1200E+00
     25.098  0.0000E+00  0.1200E+00
     25.233  0.0000E+00  0.1200E+00
     25.368  0.0000E+00  0.1200E+00
     25.502  0.0000E+00  0.1200E+00
     25.637  0.0000E+00  0.1200E+00
     25.772  0.0000E+00  0.1200E+00
     25.907  0.0000E+00  0.1200E+00
     26.042  0.0000E+00  0.1200E+00
     26.177  0.0000E+00  0.1200E+00
     26.312  0.0000E+00  0.1200E+00
     26.447  0.0000E+00  0.1200E+00
     26.582  0.0000E+00  0.1200E+00
     26.717  0.0000E+00  0.1200E+00
