    4    4  200    1
  0.7090409E+01  0.2467155E-09  0.2467155E-09  0.5380594E-09  0.5000000E-15
  1.000000000000000E-004
  CAR 
 graphite                                
     16    455     12
 
  0.0000000E+00  0.0000000E+00  0.0000000E+00  0.3858025E-03
    1      -13.281475
    2      -11.936292
    3       -2.929947
    4        2.313788
    5        3.829419
    6        3.833970
    7        3.972498
    8        3.976957
    9       14.268413
   10       15.077790
   11       15.080746
   12       15.363837
 
  0.5555556E-01 -0.3469447E-17  0.0000000E+00  0.1543210E-02
    1      -13.206239
    2      -11.865601
    3       -2.839238
    4        2.391103
    5        3.511082
    6        3.658027
    7        3.698132
    8        3.833141
    9       14.330504
   10       15.092553
   11       15.392926
   12       15.436097
 
  0.1111111E+00 -0.6938894E-17  0.0000000E+00  0.1543210E-02
    1      -12.980849
    2      -11.653898
    3       -2.567806
    4        2.621308
    5        2.640820
    6        2.923765
    7        3.213542
    8        3.445883
    9       14.516113
   10       15.051729
   11       15.586815
   12       16.277623
 
  0.1666667E+00 -0.2775558E-16  0.0000000E+00  0.1543210E-02
    1      -12.606540
    2      -11.302146
    3       -2.117711
    4        1.405450
    5        1.799992
    6        2.630084
    7        2.910364
    8        2.998010
    9       14.698666
   10       14.988065
   11       15.423182
   12       15.716388
 
  0.2222222E+00 -0.2775558E-16  0.0000000E+00  0.1543210E-02
    1      -12.085110
    2      -10.812315
    3       -1.493085
    4       -0.030214
    5        0.478040
    6        2.018465
    7        2.333042
    8        3.508222
    9       13.899698
   10       14.473355
   11       15.241679
   12       15.684903
 
  0.2777778E+00  0.0000000E+00  0.0000000E+00  0.1543210E-02
    1      -11.419548
    2      -10.187601
    3       -1.547650
    4       -0.932060
    5       -0.701379
    6        1.453346
    7        1.791224
    8        4.124524
    9       12.238933
   10       14.152593
   11       14.423301
   12       15.322476
 
  0.3333333E+00 -0.5551115E-16  0.0000000E+00  0.1543210E-02
    1      -10.615080
    2       -9.433183
    3       -3.068537
    4       -2.354429
    5        0.243636
    6        0.980600
    7        1.333712
    8        4.779250
    9       10.622274
   10       13.127387
   11       13.857995
   12       15.249084
 
  0.3888889E+00 -0.5551115E-16  0.0000000E+00  0.1543210E-02
    1       -9.679882
    2       -8.561562
    3       -4.533723
    4       -3.736341
    5        0.627745
    6        0.990717
    7        1.312308
    8        5.274695
    9        9.330691
   10       11.850217
   11       13.628861
   12       15.154874
 
  0.4444444E+00 -0.5551115E-16  0.0000000E+00  0.1543210E-02
    1       -8.638114
    2       -7.625660
    3       -5.860245
    4       -5.031274
    5        0.410571
    6        0.778921
    7        2.416135
    8        5.173262
    9        8.876302
   10       10.673901
   11       13.484953
   12       15.086373
 
  0.5000000E+00 -0.1110223E-15  0.0000000E+00  0.7716049E-03
    1       -7.766980
    2       -7.306177
    3       -6.300931
    4       -5.998662
    5        0.337581
    6        0.707246
    7        3.088728
    8        4.753560
    9        9.125749
   10        9.957932
   11       13.436043
   12       15.061847
 
  0.5555556E-01  0.5555556E-01  0.0000000E+00  0.7716049E-03
    1      -13.055913
    2      -11.724410
    3       -2.658170
    4        2.544890
    5        2.968068
    6        3.130981
    7        3.385000
    8        3.521216
    9       14.460040
   10       15.176556
   11       15.560382
   12       15.932252
 
  0.1111111E+00  0.5555556E-01  0.0000000E+00  0.1543210E-02
    1      -12.756015
    2      -11.442634
    3       -2.297332
    4        1.973874
    5        2.247852
    6        2.796596
    7        2.848632
    8        3.007830
    9       14.719116
   10       15.206320
   11       15.806837
   12       15.924051
 
  0.1666667E+00  0.5555556E-01  0.0000000E+00  0.1543210E-02
    1      -12.308174
    2      -11.021855
    3       -1.759812
    4        0.672993
    5        1.089486
    6        2.129383
    7        2.418785
    8        3.293148
    9       14.579710
   10       14.885809
   11       15.236806
   12       15.987093
 
  0.2222222E+00  0.5555556E-01  0.0000000E+00  0.1543210E-02
    1      -11.714711
    2      -10.464547
    3       -1.051049
    4       -0.782459
    5       -0.239626
    6        1.501120
    7        1.838681
    8        3.860111
    9       13.010273
   10       14.633832
   11       14.909512
   12       15.543510
 
  0.2777778E+00  0.5555556E-01  0.0000000E+00  0.1543210E-02
    1      -10.979469
    2       -9.774758
    3       -2.289432
    4       -1.635539
    5       -0.181191
    6        0.960758
    7        1.327193
    8        4.508366
    9       11.375678
   10       13.646225
   11       14.330530
   12       15.596918
 
  0.3333333E+00  0.5555556E-01  0.0000000E+00  0.1543210E-02
    1      -10.109099
    2       -8.960625
    3       -3.777099
    4       -3.026983
    5        0.536462
    6        0.830307
    7        0.920514
    8        5.126206
    9        9.887023
   10       12.377302
   11       14.068338
   12       15.521899
 
  0.3888889E+00  0.5555556E-01  0.0000000E+00  0.1543210E-02
    1       -9.117101
    2       -8.043790
    3       -5.183240
    4       -4.362205
    5        0.245615
    6        0.639695
    7        1.935333
    8        5.385456
    9        8.950106
   10       11.155868
   11       13.880587
   12       15.441846
 
  0.4444444E+00  0.5555556E-01  0.0000000E+00  0.1543210E-02
    1       -8.060346
    2       -7.229978
    3       -6.268758
    4       -5.573428
    5        0.097952
    6        0.496754
    7        2.944567
    8        4.968224
    9        8.998056
   10       10.106526
   11       13.783300
   12       15.395335
 
  0.5000000E+00  0.5555556E-01  0.0000000E+00  0.1543210E-02
    1       -8.060538
    2       -7.230047
    3       -6.268676
    4       -5.573213
    5        0.097915
    6        0.496715
    7        2.944493
    8        4.968288
    9        8.998018
   10       10.106519
   11       13.783380
   12       15.395429
 
 -0.4444444E+00  0.5555556E-01  0.0000000E+00  0.1543210E-02
    1       -9.117300
    2       -8.043981
    3       -5.182996
    4       -4.361964
    5        0.245513
    6        0.639585
    7        1.935220
    8        5.385516
    9        8.950048
   10       11.155805
   11       13.880831
   12       15.442136
 
 -0.3888889E+00  0.5555556E-01  0.0000000E+00  0.1543210E-02
    1      -10.109277
    2       -8.960799
    3       -3.776852
    4       -3.026765
    5        0.536328
    6        0.830195
    7        0.920352
    8        5.126215
    9        9.886951
   10       12.377170
   11       14.068758
   12       15.522406
 
 -0.3333333E+00  0.5555556E-01  0.0000000E+00  0.1543210E-02
    1      -10.979621
    2       -9.774908
    3       -2.289227
    4       -1.635409
    5       -0.181293
    6        0.960668
    7        1.327027
    8        4.508347
    9       11.375543
   10       13.646025
   11       14.331145
   12       15.597666
 
 -0.2777778E+00  0.5555556E-01  0.0000000E+00  0.1543210E-02
    1      -11.714835
    2      -10.464670
    3       -1.051137
    4       -0.782378
    5       -0.239731
    6        1.501239
    7        1.838607
    8        3.860082
    9       13.010027
   10       14.634675
   11       14.909264
   12       15.544266
 
 -0.2222222E+00  0.5555556E-01  0.0000000E+00  0.1543210E-02
    1      -12.308271
    2      -11.021951
    3       -1.759883
    4        0.672771
    5        1.088809
    6        2.130082
    7        2.419004
    8        3.293118
    9       14.579330
   10       14.886761
   11       15.237357
   12       15.988179
 
 -0.1666667E+00  0.5555556E-01  0.0000000E+00  0.1543210E-02
    1      -12.756084
    2      -11.442703
    3       -2.297384
    4        1.972906
    5        2.246034
    6        2.798487
    7        2.848608
    8        3.008797
    9       14.719304
   10       15.208132
   11       15.809256
   12       15.923583
 
 -0.1111111E+00  0.5555556E-01  0.0000000E+00  0.1543210E-02
    1      -13.055954
    2      -11.724451
    3       -2.658201
    4        2.544874
    5        2.965294
    6        3.128719
    7        3.387381
    8        3.523992
    9       14.460098
   10       15.179486
   11       15.563181
   12       15.928911
 
 -0.5555556E-01  0.5555556E-01  0.0000000E+00  0.7716049E-03
    1      -13.206252
    2      -11.865614
    3       -2.839248
    4        2.391098
    5        3.507765
    6        3.661394
    7        3.694855
    8        3.836437
    9       14.330513
   10       15.095061
   11       15.390714
   12       15.438891
 
  0.1111111E+00  0.1111111E+00  0.0000000E+00  0.7716049E-03
    1      -12.382712
    2      -11.091839
    3       -1.848941
    4        1.073270
    5        1.314831
    6        2.119996
    7        2.297770
    8        3.220805
    9       14.852350
   10       15.092532
   11       15.603239
   12       16.198904
 
  0.1666667E+00  0.1111111E+00  0.0000000E+00  0.1543210E-02
    1      -11.862710
    2      -10.603546
    3       -1.226816
    4       -0.123381
    5        0.244871
    6        1.326571
    7        1.592858
    8        3.725656
    9       13.517962
   10       15.092712
   11       15.494249
   12       15.771969
 
  0.2222222E+00  0.1111111E+00  0.0000000E+00  0.1543210E-02
    1      -11.199489
    2       -9.981040
    3       -1.512237
    4       -0.976952
    5       -0.438220
    6        0.624334
    7        0.989565
    8        4.337379
    9       12.013201
   10       13.881119
   11       15.366084
   12       16.215950
 
  0.2777778E+00  0.1111111E+00  0.0000000E+00  0.1543210E-02
    1      -10.398140
    2       -9.230425
    3       -2.960154
    4       -2.293246
    5        0.081269
    6        0.502234
    7        0.503170
    8        4.994607
    9       10.491643
   10       12.667585
   11       15.104771
   12       16.421063
 
  0.3333333E+00  0.1111111E+00  0.0000000E+00  0.1543210E-02
    1       -9.468135
    2       -8.363984
    3       -4.382516
    4       -3.616177
    5       -0.305200
    6        0.144858
    7        1.568275
    8        5.510584
    9        9.232113
   10       11.478699
   11       14.882093
   12       16.384968
 
  0.3888889E+00  0.1111111E+00  0.0000000E+00  0.1543210E-02
    1       -8.433611
    2       -7.436152
    3       -5.682652
    4       -4.876913
    5       -0.537480
    6       -0.073280
    7        2.671323
    8        5.426152
    9        8.792969
   10       10.357668
   11       14.738062
   12       16.329783
 
  0.4444444E+00  0.1111111E+00  0.0000000E+00  0.1543210E-02
    1       -7.572882
    2       -7.115237
    3       -6.117014
    4       -5.827908
    5       -0.615076
    6       -0.146485
    7        3.348614
    8        4.995917
    9        9.172777
   10        9.546663
   11       14.688671
   12       16.307927
 
  0.5000000E+00  0.1111111E+00  0.0000000E+00  0.1543210E-02
    1       -8.434020
    2       -7.436507
    3       -5.682231
    4       -4.876453
    5       -0.537584
    6       -0.073403
    7        2.671121
    8        5.426308
    9        8.792827
   10       10.357615
   11       14.738355
   12       16.330153
 
 -0.4444444E+00  0.1111111E+00  0.0000000E+00  0.1543210E-02
    1       -9.468513
    2       -8.364352
    3       -4.382036
    4       -3.615743
    5       -0.305357
    6        0.144642
    7        1.568052
    8        5.510658
    9        9.231932
   10       11.478527
   11       14.882703
   12       16.385762
 
 -0.3888889E+00  0.1111111E+00  0.0000000E+00  0.1543210E-02
    1      -10.398469
    2       -9.230750
    3       -2.959741
    4       -2.292974
    5        0.081196
    6        0.502005
    7        0.502959
    8        4.994599
    9       10.491360
   10       12.667303
   11       15.105758
   12       16.422354
 
 -0.3333333E+00  0.1111111E+00  0.0000000E+00  0.1543210E-02
    1      -11.199765
    2       -9.981314
    3       -1.512063
    4       -0.977129
    5       -0.438408
    6        0.624659
    7        0.989508
    8        4.337333
    9       12.012705
   10       13.880768
   11       15.367570
   12       16.216958
 
 -0.2777778E+00  0.1111111E+00  0.0000000E+00  0.1543210E-02
    1      -11.862932
    2      -10.603765
    3       -1.226972
    4       -0.123855
    5        0.243791
    6        1.327796
    7        1.593409
    8        3.725600
    9       13.517187
   10       15.092356
   11       15.495520
   12       15.773622
 
 -0.2222222E+00  0.1111111E+00  0.0000000E+00  0.1543210E-02
    1      -12.382878
    2      -11.092003
    3       -1.849063
    4        1.071322
    5        1.312958
    6        2.122048
    7        2.299804
    8        3.220753
    9       14.851359
   10       15.092823
   11       15.607560
   12       16.205797
 
 -0.1666667E+00  0.1111111E+00  0.0000000E+00  0.1543210E-02
    1      -12.756126
    2      -11.442744
    3       -2.297414
    4        1.970801
    5        2.245048
    6        2.799615
    7        2.848593
    8        3.011029
    9       14.719351
   10       15.210422
   11       15.810537
   12       15.923074
 
 -0.1111111E+00  0.1111111E+00  0.0000000E+00  0.7716049E-03
    1      -12.980904
    2      -11.653953
    3       -2.567848
    4        2.621288
    5        2.637689
    6        2.920709
    7        3.216778
    8        3.449114
    9       14.516177
   10       15.054818
   11       15.589511
   12       16.276217
 
  0.1666667E+00  0.1666667E+00  0.0000000E+00  0.7716049E-03
    1      -11.272987
    2      -10.050025
    3       -1.033101
    4       -0.723086
    5       -0.524180
    6        0.441160
    7        0.666374
    8        4.279102
    9       12.287769
   10       13.917612
   11       16.208239
   12       16.473183
 
  0.2222222E+00  0.1666667E+00  0.0000000E+00  0.1543210E-02
    1      -10.543439
    2       -9.366149
    3       -2.211933
    4       -1.752590
    5       -0.390775
    6       -0.051170
    7        0.338011
    8        4.919438
    9       10.931366
   10       12.733520
   11       16.481095
   12       17.014246
 
  0.2777778E+00  0.1666667E+00  0.0000000E+00  0.1543210E-02
    1       -9.681396
    2       -8.561073
    3       -3.543251
    4       -2.901454
    5       -0.999864
    6       -0.540502
    7        1.340941
    8        5.556129
    9        9.588662
   10       11.600547
   11       16.285665
   12       17.607151
 
  0.3333333E+00  0.1666667E+00  0.0000000E+00  0.1543210E-02
    1       -8.701525
    2       -7.658039
    3       -4.866597
    4       -4.111500
    5       -1.372456
    6       -0.855541
    7        2.439437
    8        5.877142
    9        8.660716
   10       10.528601
   11       16.103357
   12       17.699739
 
  0.3888889E+00  0.1666667E+00  0.0000000E+00  0.1543210E-02
    1       -7.663755
    2       -6.857662
    3       -5.911000
    4       -5.258547
    5       -1.550260
    6       -1.011611
    7        3.453514
    8        5.456026
    9        8.750426
   10        9.549582
   11       16.003514
   12       17.676939
 
  0.4444444E+00  0.1666667E+00  0.0000000E+00  0.1543210E-02
    1       -7.664322
    2       -6.857872
    3       -5.910768
    4       -5.257939
    5       -1.550298
    6       -1.011676
    7        3.453309
    8        5.456215
    9        8.750216
   10        9.549613
   11       16.003701
   12       17.677215
 
  0.5000000E+00  0.1666667E+00  0.0000000E+00  0.1543210E-02
    1       -8.702119
    2       -7.658604
    3       -4.865934
    4       -4.110897
    5       -1.372511
    6       -0.855705
    7        2.439126
    8        5.877353
    9        8.660344
   10       10.528481
   11       16.103951
   12       17.700665
 
 -0.4444444E+00  0.1666667E+00  0.0000000E+00  0.1543210E-02
    1       -9.681926
    2       -8.561595
    3       -3.542690
    4       -2.901139
    5       -0.999708
    6       -0.540642
    7        1.340627
    8        5.556189
    9        9.588145
   10       11.600313
   11       16.286798
   12       17.608501
 
 -0.3888889E+00  0.1666667E+00  0.0000000E+00  0.1543210E-02
    1      -10.543893
    2       -9.366598
    3       -2.211836
    4       -1.752978
    5       -0.389969
    6       -0.050940
    7        0.337722
    8        4.919408
    9       10.930543
   10       12.733237
   11       16.483090
   12       17.014913
 
 -0.3333333E+00  0.1666667E+00  0.0000000E+00  0.1543210E-02
    1      -11.273360
    2      -10.050394
    3       -1.034243
    4       -0.724158
    5       -0.524431
    6        0.442613
    7        0.667799
    8        4.279034
    9       12.286556
   10       13.917328
   11       16.208723
   12       16.478371
 
 -0.2777778E+00  0.1666667E+00  0.0000000E+00  0.1543210E-02
    1      -11.863001
    2      -10.603834
    3       -1.227019
    4       -0.125602
    5        0.242960
    6        1.328851
    7        1.595379
    8        3.725582
    9       13.516462
   10       15.092416
   11       15.496572
   12       15.775539
 
 -0.2222222E+00  0.1666667E+00  0.0000000E+00  0.1543210E-02
    1      -12.308381
    2      -11.022061
    3       -1.759962
    4        0.670307
    5        1.086828
    6        2.132433
    7        2.421796
    8        3.293084
    9       14.578166
   10       14.888805
   11       15.238866
   12       15.990386
 
 -0.1666667E+00  0.1666667E+00  0.0000000E+00  0.7716049E-03
    1      -12.606664
    2      -11.302269
    3       -2.117802
    4        1.402591
    5        1.797203
    6        2.633227
    7        2.913511
    8        2.997968
    9       14.700329
   10       14.990296
   11       15.421933
   12       15.719141
 
  0.2222222E+00  0.2222222E+00  0.0000000E+00  0.7716049E-03
    1       -9.752854
    2       -8.627457
    3       -2.991404
    4       -2.621938
    5       -1.302291
    6       -1.033868
    7        1.264116
    8        5.564816
    9        9.763046
   10       11.606632
   11       17.679837
   12       17.690884
 
  0.2777778E+00  0.2222222E+00  0.0000000E+00  0.1543210E-02
    1       -8.839070
    2       -7.779164
    3       -4.060834
    4       -3.522512
    5       -2.047896
    6       -1.638564
    7        2.313324
    8        6.149141
    9        8.619252
   10       10.587245
   11       17.646876
   12       18.613545
 
  0.3333333E+00  0.2222222E+00  0.0000000E+00  0.1543210E-02
    1       -7.828664
    2       -6.875596
    3       -5.217872
    4       -4.533268
    5       -2.472558
    6       -1.936669
    7        3.408460
    8        6.165365
    9        8.067582
   10        9.709548
   11       17.501356
   12       19.226910
 
  0.3888889E+00  0.2222222E+00  0.0000000E+00  0.1543210E-02
    1       -6.996161
    2       -6.550689
    3       -5.605850
    4       -5.414471
    5       -2.599901
    6       -2.029680
    7        4.099660
    8        5.687339
    9        8.240030
   10        9.218363
   11       17.446871
   12       19.305001
 
  0.4444444E+00  0.2222222E+00  0.0000000E+00  0.1543210E-02
    1       -7.829467
    2       -6.876291
    3       -5.217160
    4       -4.532598
    5       -2.472405
    6       -1.936709
    7        3.408126
    8        6.165717
    9        8.067052
   10        9.709505
   11       17.501770
   12       19.227930
 
  0.5000000E+00  0.2222222E+00  0.0000000E+00  0.1543210E-02
    1       -8.839819
    2       -7.779893
    3       -4.060295
    4       -3.522340
    5       -2.047259
    6       -1.638424
    7        2.312942
    8        6.149371
    9        8.618418
   10       10.587120
   11       17.647954
   12       18.613095
 
 -0.4444444E+00  0.2222222E+00  0.0000000E+00  0.1543210E-02
    1       -9.753509
    2       -8.628104
    3       -2.991864
    4       -2.622315
    5       -1.301171
    6       -1.032788
    7        1.263741
    8        5.564859
    9        9.761869
   10       11.606485
   11       17.680740
   12       17.695978
 
 -0.3888889E+00  0.2222222E+00  0.0000000E+00  0.1543210E-02
    1      -10.543990
    2       -9.366694
    3       -2.213383
    4       -1.753697
    5       -0.389003
    6       -0.049119
    7        0.337670
    8        4.919393
    9       10.929785
   10       12.733331
   11       16.486250
   12       17.015587
 
 -0.3333333E+00  0.2222222E+00  0.0000000E+00  0.1543210E-02
    1      -11.199931
    2       -9.981478
    3       -1.514178
    4       -0.978788
    5       -0.438509
    6        0.626816
    7        0.992096
    8        4.337300
    9       12.011345
   10       13.880818
   11       15.370924
   12       16.218320
 
 -0.2777778E+00  0.2222222E+00  0.0000000E+00  0.1543210E-02
    1      -11.715043
    2      -10.464876
    3       -1.051275
    4       -0.784760
    5       -0.241905
    6        1.504045
    7        1.841572
    8        3.860031
    9       13.008336
   10       14.638024
   11       14.909145
   12       15.546349
 
 -0.2222222E+00  0.2222222E+00  0.0000000E+00  0.7716049E-03
    1      -12.085332
    2      -10.812535
    3       -1.493240
    4       -0.032767
    5        0.475547
    6        2.021546
    7        2.336126
    8        3.508159
    9       13.897936
   10       14.476819
   11       15.243708
   12       15.684649
 
  0.2777778E+00  0.2777778E+00  0.0000000E+00  0.7716049E-03
    1       -7.889407
    2       -6.912249
    3       -4.659611
    4       -4.236506
    5       -2.833730
    6       -2.552930
    7        3.379308
    8        6.665099
    9        7.594163
   10        9.768766
   11       18.876735
   12       18.934804
 
  0.3333333E+00  0.2777778E+00  0.0000000E+00  0.1543210E-02
    1       -6.894720
    2       -6.126301
    3       -5.437925
    4       -4.963795
    5       -3.341669
    6       -2.942406
    7        4.379809
    8        6.353567
    9        7.292098
   10        9.259653
   11       18.791241
   12       19.687427
 
  0.3888889E+00  0.2777778E+00  0.0000000E+00  0.1543210E-02
    1       -6.895625
    2       -6.126682
    3       -5.437678
    4       -4.963215
    5       -3.341284
    6       -2.942284
    7        4.379607
    8        6.353769
    9        7.291813
   10        9.259572
   11       18.791356
   12       19.688418
 
  0.4444444E+00  0.2777778E+00  0.0000000E+00  0.1543210E-02
    1       -7.890374
    2       -6.913163
    3       -4.659531
    4       -4.236349
    5       -2.832813
    6       -2.552054
    7        3.378950
    8        6.665622
    9        7.593058
   10        9.768624
   11       18.878017
   12       18.938886
 
  0.5000000E+00  0.2777778E+00  0.0000000E+00  0.1543210E-02
    1       -8.839944
    2       -7.780023
    3       -4.061628
    4       -3.522948
    5       -2.046427
    6       -1.636794
    7        2.312920
    8        6.149306
    9        8.617847
   10       10.587122
   11       17.652127
   12       18.613237
 
 -0.4444444E+00  0.2777778E+00  0.0000000E+00  0.1543210E-02
    1       -9.682148
    2       -8.561818
    3       -3.544508
    4       -2.902571
    5       -0.997752
    6       -0.538303
    7        1.340541
    8        5.556148
    9        9.586867
   10       11.600341
   11       16.290888
   12       17.610807
 
 -0.3888889E+00  0.2777778E+00  0.0000000E+00  0.1543210E-02
    1      -10.398759
    2       -9.231040
    3       -2.961775
    4       -2.294815
    5        0.083805
    6        0.502809
    7        0.504775
    8        4.994555
    9       10.489602
   10       12.667190
   11       15.109635
   12       16.425664
 
 -0.3333333E+00  0.2777778E+00  0.0000000E+00  0.1543210E-02
    1      -10.979952
    2       -9.775238
    3       -2.291384
    4       -1.637460
    5       -0.181491
    6        0.963624
    7        1.330041
    8        4.508288
    9       11.373535
   10       13.645709
   11       14.334896
   12       15.601064
 
 -0.2777778E+00  0.2777778E+00  0.0000000E+00  0.7716049E-03
    1      -11.419893
    2      -10.187944
    3       -1.549888
    4       -0.934246
    5       -0.701603
    6        1.456395
    7        1.794271
    8        4.124450
    9       12.236862
   10       14.156444
   11       14.422880
   12       15.325938
 
  0.3333333E+00  0.3333333E+00  0.0000000E+00  0.7716049E-03
    1       -6.194651
    2       -5.741382
    3       -5.740867
    4       -5.207907
    5       -3.556684
    6       -3.556306
    7        4.931263
    8        6.596094
    9        6.597581
   10        9.143540
   11       19.440877
   12       19.785340
 
  0.3888889E+00  0.3333333E+00  0.0000000E+00  0.1543210E-02
    1       -6.895814
    2       -6.127159
    3       -5.438259
    4       -4.963751
    5       -3.340667
    6       -2.940955
    7        4.379761
    8        6.352742
    9        7.292384
   10        9.259343
   11       18.795475
   12       19.667779
 
  0.4444444E+00  0.3333333E+00  0.0000000E+00  0.1543210E-02
    1       -7.829752
    2       -6.876634
    3       -5.218584
    4       -4.533775
    5       -2.470738
    6       -1.934713
    7        3.408198
    8        6.165061
    9        8.066696
   10        9.709255
   11       17.506311
   12       19.231288
 
  0.5000000E+00  0.3333333E+00  0.0000000E+00  0.1543210E-02
    1       -8.702494
    2       -7.658997
    3       -4.867616
    4       -4.112435
    5       -1.370196
    6       -0.853251
    7        2.439076
    8        5.877039
    9        8.659016
   10       10.528272
   11       16.108357
   12       17.704786
 
 -0.4444444E+00  0.3333333E+00  0.0000000E+00  0.1543210E-02
    1       -9.468956
    2       -8.364800
    3       -4.383846
    4       -3.617462
    5       -0.302614
    6        0.147446
    7        1.567896
    8        5.510521
    9        9.230047
   10       11.478150
   11       14.886860
   12       16.389750
 
 -0.3888889E+00  0.3333333E+00  0.0000000E+00  0.1543210E-02
    1      -10.109760
    2       -8.961283
    3       -3.778737
    4       -3.028586
    5        0.539325
    6        0.829961
    7        0.923368
    8        5.126137
    9        9.884807
   10       12.376598
   11       14.072747
   12       15.526264
 
 -0.3333333E+00  0.3333333E+00  0.0000000E+00  0.7716049E-03
    1      -10.615577
    2       -9.433677
    3       -3.070466
    4       -2.356313
    5        0.243354
    6        0.983637
    7        1.336743
    8        4.779178
    9       10.620055
   10       13.126749
   11       13.862038
   12       15.253008
 
  0.3888889E+00  0.3888889E+00  0.0000000E+00  0.7716049E-03
    1       -6.996981
    2       -6.551608
    3       -5.606833
    4       -5.415183
    5       -2.598011
    6       -2.027648
    7        4.099935
    8        5.686120
    9        8.240041
   10        9.217737
   11       17.451611
   12       19.309333
 
  0.4444444E+00  0.3888889E+00  0.0000000E+00  0.1543210E-02
    1       -7.664907
    2       -6.858699
    3       -5.911980
    4       -5.259288
    5       -1.547914
    6       -1.009235
    7        3.453510
    8        5.455125
    9        8.749419
   10        9.549032
   11       16.008320
   12       17.681780
 
  0.5000000E+00  0.3888889E+00  0.0000000E+00  0.1543210E-02
    1       -8.434647
    2       -7.437183
    3       -5.683741
    4       -4.877939
    5       -0.534831
    6       -0.070627
    7        2.671101
    8        5.425612
    9        8.791338
   10       10.356919
   11       14.742711
   12       16.334440
 
 -0.4444444E+00  0.3888889E+00  0.0000000E+00  0.1543210E-02
    1       -9.117963
    2       -8.044656
    3       -5.184594
    4       -4.363521
    5        0.248506
    6        0.642579
    7        1.935035
    8        5.385173
    9        8.948093
   10       11.154950
   11       13.884987
   12       15.446222
 
 -0.3888889E+00  0.3888889E+00  0.0000000E+00  0.7716049E-03
    1       -9.680557
    2       -8.562239
    3       -4.535354
    4       -3.737934
    5        0.630780
    6        0.993743
    7        1.312017
    8        5.274553
    9        9.328497
   10       11.849345
   11       13.633017
   12       15.158971
 
  0.4444444E+00  0.4444444E+00  0.0000000E+00  0.7716049E-03
    1       -7.573881
    2       -7.116318
    3       -6.118165
    4       -5.828882
    5       -0.612364
    6       -0.143765
    7        3.348875
    8        4.994633
    9        9.171776
   10        9.545592
   11       14.693187
   12       16.312417
 
  0.5000000E+00  0.4444444E+00  0.0000000E+00  0.1543210E-02
    1       -8.061414
    2       -7.231061
    3       -6.269892
    4       -5.574479
    5        0.100881
    6        0.499676
    7        2.944605
    8        4.967200
    9        8.996703
   10       10.105290
   11       13.787654
   12       15.399658
 
 -0.4444444E+00  0.4444444E+00  0.0000000E+00  0.7716049E-03
    1       -8.638991
    2       -7.626564
    3       -5.861586
    4       -5.032586
    5        0.413607
    6        0.781946
    7        2.415996
    8        5.172603
    9        8.874586
   10       10.672747
   11       13.489170
   12       15.090547
 
  0.5000000E+00  0.5000000E+00  0.0000000E+00  0.3858025E-03
    1       -7.768036
    2       -7.307309
    3       -6.302120
    4       -5.999671
    5        0.340619
    6        0.710271
    7        3.088971
    8        4.752250
    9        9.124637
   10        9.956387
   11       13.440280
   12       15.066045
 