    4    4  200    1
  0.5317807E+01  0.2467155E-09  0.2467155E-09  0.4035445E-09  0.5000000E-15
  1.000000000000000E-004
  CAR 
 graphite                                
     16    455     12
 
  0.0000000E+00  0.0000000E+00  0.0000000E+00  0.3858025E-03
    1      -11.765538
    2       -6.259432
    3       -1.841132
    4        6.828818
    5        6.833885
    6        7.873733
    7        7.878099
    8       11.631107
    9       18.031472
   10       18.033966
   11       19.336561
   12       19.474588
 
  0.5555556E-01 -0.6938894E-17  0.0000000E+00  0.1543210E-02
    1      -11.687398
    2       -6.193913
    3       -1.750398
    4        6.420370
    5        6.596304
    6        7.685097
    7        7.811889
    8       11.675876
    9       17.936341
   10       18.303117
   11       19.040866
   12       19.474471
 
  0.1111111E+00 -0.1387779E-16  0.0000000E+00  0.1543210E-02
    1      -11.453247
    2       -5.997742
    3       -1.478846
    4        5.361505
    5        6.037730
    6        7.093869
    7        7.571213
    8       11.802220
    9       17.557498
   10       18.210357
   11       19.105529
   12       19.715602
 
  0.1666667E+00  0.1387779E-16  0.0000000E+00  0.1543210E-02
    1      -11.064135
    2       -5.672293
    3       -1.028869
    4        3.930588
    5        5.355607
    6        6.170046
    7        7.161204
    8       11.978253
    9       16.986990
   10       16.987176
   11       20.130234
   12       20.378432
 
  0.2222222E+00 -0.4163336E-16  0.0000000E+00  0.1543210E-02
    1      -10.521512
    2       -5.219533
    3       -0.404560
    4        2.322861
    5        4.673149
    6        5.035751
    7        6.670766
    8       12.103187
    9       15.600526
   10       16.391044
   11       20.495134
   12       20.949707
 
  0.2777778E+00  0.0000000E+00  0.0000000E+00  0.1543210E-02
    1       -9.828264
    2       -4.644407
    3        0.385562
    4        0.662644
    5        3.794325
    6        4.059604
    7        6.185413
    8       11.834239
    9       14.520098
   10       15.854276
   11       20.010492
   12       20.729937
 
  0.3333333E+00  0.2775558E-16  0.0000000E+00  0.1543210E-02
    1       -8.989112
    2       -3.960311
    3       -0.965259
    4        1.325029
    5        2.519427
    6        3.554602
    7        5.763956
    8       10.749501
    9       14.268804
   10       15.415983
   11       19.182339
   12       20.854210
 
  0.3888889E+00  0.0000000E+00  0.0000000E+00  0.1543210E-02
    1       -8.012073
    2       -3.300478
    3       -2.381780
    4        1.262885
    5        2.374691
    6        3.181256
    7        5.442810
    8        9.273857
    9       14.492913
   10       15.094803
   11       18.494116
   12       20.910689
 
  0.4444444E+00 -0.8326673E-16  0.0000000E+00  0.1543210E-02
    1       -6.924529
    2       -4.137827
    3       -2.069718
    4        0.060458
    5        2.952796
    6        3.410655
    7        5.242965
    8        7.907913
    9       14.780103
   10       14.899448
   11       18.001331
   12       20.932292
 
  0.5000000E+00 -0.1110223E-15  0.0000000E+00  0.7716049E-03
    1       -6.067599
    2       -5.090695
    3       -1.142707
    4       -0.987348
    5        2.875937
    6        3.958290
    7        5.175480
    8        7.241716
    9       14.833948
   10       14.909501
   11       17.812197
   12       20.937556
 
  0.5555556E-01  0.5555556E-01  0.0000000E+00  0.7716049E-03
    1      -11.531229
    2       -6.063065
    3       -1.569255
    4        5.764524
    5        6.105563
    6        7.371645
    7        7.595395
    8       11.761780
    9       17.913071
   10       18.477722
   11       18.480535
   12       19.793961
 
  0.1111111E+00  0.5555556E-01  0.0000000E+00  0.1543210E-02
    1      -11.219536
    2       -5.802217
    3       -1.208409
    4        4.606866
    5        5.367916
    6        6.702601
    7        7.207004
    8       11.916798
    9       17.462393
   10       17.605860
   11       19.006780
   12       20.457337
 
  0.1666667E+00  0.5555556E-01  0.0000000E+00  0.1543210E-02
    1      -10.753699
    2       -5.413064
    3       -0.671096
    4        3.124672
    5        4.614800
    6        5.726534
    7        6.730623
    8       12.088549
    9       16.150454
   10       17.050950
   11       19.980237
   12       21.140777
 
  0.2222222E+00  0.5555556E-01  0.0000000E+00  0.1543210E-02
    1      -10.135769
    2       -4.898885
    3        0.036718
    4        1.507843
    5        3.876187
    6        4.619604
    7        6.229253
    8       12.097192
    9       14.839277
   10       16.494410
   11       20.274047
   12       20.746891
 
  0.2777778E+00  0.5555556E-01  0.0000000E+00  0.1543210E-02
    1       -9.369288
    2       -4.267193
    3       -0.129620
    4        0.903306
    5        3.007234
    6        3.665973
    7        5.768642
    8       11.439694
    9       14.139041
   10       16.012152
   11       19.412749
   12       21.054839
 
  0.3333333E+00  0.5555556E-01  0.0000000E+00  0.1543210E-02
    1       -8.460537
    2       -3.550492
    3       -1.692578
    4        1.863930
    5        1.903934
    6        3.101679
    7        5.393810
    8       10.079230
    9       14.169427
   10       15.635377
   11       18.702080
   12       21.171660
 
  0.3888889E+00  0.5555556E-01  0.0000000E+00  0.1543210E-02
    1       -7.423202
    2       -3.473118
    3       -2.414307
    4        0.667503
    5        2.767088
    6        2.971443
    7        5.131664
    8        8.608664
    9       14.409597
   10       15.378663
   11       18.170030
   12       21.215208
 
  0.4444444E+00  0.5555556E-01  0.0000000E+00  0.1543210E-02
    1       -6.331985
    2       -4.696216
    3       -1.552221
    4       -0.480687
    5        2.603806
    6        3.859964
    7        4.997224
    8        7.489505
    9       14.593228
   10       15.248941
   11       17.871303
   12       21.228763
 
  0.5000000E+00  0.5555556E-01  0.0000000E+00  0.1543210E-02
    1       -6.332162
    2       -4.696023
    3       -1.552421
    4       -0.480500
    5        2.603801
    6        3.859910
    7        4.997187
    8        7.489560
    9       14.593187
   10       15.249020
   11       17.871266
   12       21.228865
 
 -0.4444444E+00  0.5555556E-01  0.0000000E+00  0.1543210E-02
    1       -7.423397
    2       -3.472931
    3       -2.414444
    4        0.667611
    5        2.767120
    6        2.971342
    7        5.131558
    8        8.608768
    9       14.409473
   10       15.378901
   11       18.169922
   12       21.215543
 
 -0.3888889E+00  0.5555556E-01  0.0000000E+00  0.1543210E-02
    1       -8.460711
    2       -3.550639
    3       -1.692361
    4        1.863751
    5        1.903828
    6        3.101954
    7        5.393646
    8       10.079356
    9       14.169200
   10       15.635770
   11       18.701909
   12       21.172339
 
 -0.3333333E+00  0.5555556E-01  0.0000000E+00  0.1543210E-02
    1       -9.369437
    2       -4.267336
    3       -0.129413
    4        0.903208
    5        3.006106
    6        3.667173
    7        5.768450
    8       11.439875
    9       14.138651
   10       16.012693
   11       19.412542
   12       21.056195
 
 -0.2777778E+00  0.5555556E-01  0.0000000E+00  0.1543210E-02
    1      -10.135893
    2       -4.899005
    3        0.036633
    4        1.507965
    5        3.874495
    6        4.621381
    7        6.229090
    8       12.097375
    9       14.838750
   10       16.495088
   11       20.273849
   12       20.749979
 
 -0.2222222E+00  0.5555556E-01  0.0000000E+00  0.1543210E-02
    1      -10.753776
    2       -5.413150
    3       -0.671164
    4        3.124588
    5        4.613450
    6        5.728058
    7        6.730776
    8       12.088653
    9       16.149867
   10       17.051759
   11       19.985211
   12       21.144771
 
 -0.1666667E+00  0.5555556E-01  0.0000000E+00  0.1543210E-02
    1      -11.219605
    2       -5.802285
    3       -1.208459
    4        4.606067
    5        5.367393
    6        6.703487
    7        7.207558
    8       11.916851
    9       17.461778
   10       17.606908
   11       19.010527
   12       20.456785
 
 -0.1111111E+00  0.5555556E-01  0.0000000E+00  0.1543210E-02
    1      -11.531271
    2       -6.063106
    3       -1.569285
    4        5.761658
    5        6.107608
    6        7.370126
    7        7.597900
    8       11.761806
    9       17.915493
   10       18.478195
   11       18.480030
   12       19.795257
 
 -0.5555556E-01  0.5555556E-01  0.0000000E+00  0.7716049E-03
    1      -11.687412
    2       -6.193926
    3       -1.750408
    4        6.416696
    5        6.599951
    6        7.681898
    7        7.815202
    8       11.675884
    9       17.938825
   10       18.301167
   11       19.040662
   12       19.476576
 
  0.1111111E+00  0.1111111E+00  0.0000000E+00  0.7716049E-03
    1      -10.831237
    2       -5.477662
    3       -0.760135
    4        3.623188
    5        4.335772
    6        6.151894
    7        6.572818
    8       12.080429
    9       16.359991
   10       18.046293
   11       18.746365
   12       21.337922
 
  0.1666667E+00  0.1111111E+00  0.0000000E+00  0.1543210E-02
    1      -10.289927
    2       -5.026901
    3       -0.138751
    4        2.285142
    5        3.435031
    6        5.245551
    7        5.972653
    8       12.219421
    9       15.054577
   10       17.773042
   11       19.606355
   12       20.295421
 
  0.2222222E+00  0.1111111E+00  0.0000000E+00  0.1543210E-02
    1       -9.598634
    2       -4.454747
    3        0.647364
    4        0.742514
    5        2.703228
    6        4.142945
    7        5.458785
    8       12.035091
    9       13.916820
   10       17.295111
   11       19.405625
   12       20.912382
 
  0.2777778E+00  0.1111111E+00  0.0000000E+00  0.1543210E-02
    1       -8.762135
    2       -3.775294
    3       -0.825371
    4        1.581202
    5        2.019980
    6        3.067763
    7        5.029136
    8       10.972193
    9       13.581751
   10       16.881057
   11       18.718765
   12       21.809203
 
  0.3333333E+00  0.1111111E+00  0.0000000E+00  0.1543210E-02
    1       -7.789584
    2       -3.119945
    3       -2.210934
    4        1.174694
    5        2.302665
    6        2.623105
    7        4.706053
    8        9.495989
    9       13.668039
   10       16.571419
   11       18.245902
   12       22.010045
 
  0.3888889E+00  0.1111111E+00  0.0000000E+00  0.1543210E-02
    1       -6.709102
    2       -3.939120
    3       -1.909194
    4        0.128801
    5        1.937888
    6        3.647698
    7        4.506102
    8        8.143421
    9       13.783164
   10       16.381312
   11       17.974088
   12       22.052121
 
  0.4444444E+00  0.1111111E+00  0.0000000E+00  0.1543210E-02
    1       -5.863300
    2       -4.876436
    3       -0.978067
    4       -0.891062
    5        1.831039
    6        4.186477
    7        4.438490
    8        7.487961
    9       13.828624
   10       16.317406
   11       17.886122
   12       22.059909
 
  0.5000000E+00  0.1111111E+00  0.0000000E+00  0.1543210E-02
    1       -6.709495
    2       -3.938683
    3       -1.909568
    4        0.129009
    5        1.938031
    6        3.647532
    7        4.505979
    8        8.143573
    9       13.783025
   10       16.381594
   11       17.973980
   12       22.052546
 
 -0.4444444E+00  0.1111111E+00  0.0000000E+00  0.1543210E-02
    1       -7.789953
    2       -3.120079
    3       -2.210695
    4        1.174345
    5        2.303316
    6        2.622900
    7        4.705827
    8        9.496179
    9       13.667735
   10       16.571985
   11       18.245706
   12       22.011178
 
 -0.3888889E+00  0.1111111E+00  0.0000000E+00  0.1543210E-02
    1       -8.762458
    2       -3.775593
    3       -0.824981
    4        1.581002
    5        2.018819
    6        3.069190
    7        5.028857
    8       10.972454
    9       13.581175
   10       16.881913
   11       18.718531
   12       21.812489
 
 -0.3333333E+00  0.1111111E+00  0.0000000E+00  0.1543210E-02
    1       -9.598907
    2       -4.455011
    3        0.647185
    4        0.742720
    5        2.701908
    6        4.144553
    7        5.458580
    8       12.035521
    9       13.915817
   10       17.296280
   11       19.405426
   12       20.918514
 
 -0.2777778E+00  0.1111111E+00  0.0000000E+00  0.1543210E-02
    1      -10.290146
    2       -5.027115
    3       -0.138901
    4        2.284737
    5        3.434112
    6        5.246888
    7        5.972907
    8       12.219698
    9       15.053436
   10       17.774670
   11       19.611663
   12       20.295331
 
 -0.2222222E+00  0.1111111E+00  0.0000000E+00  0.1543210E-02
    1      -10.831402
    2       -5.477824
    3       -0.760252
    4        3.621117
    5        4.336388
    6        6.151747
    7        6.574747
    8       12.080570
    9       16.358767
   10       18.050049
   11       18.748768
   12       21.325365
 
 -0.1666667E+00  0.1111111E+00  0.0000000E+00  0.1543210E-02
    1      -11.219646
    2       -5.802325
    3       -1.208488
    4        4.603565
    5        5.370098
    6        6.700921
    7        7.210209
    8       11.916868
    9       17.461254
   10       17.609937
   11       19.007759
   12       20.458654
 
 -0.1111111E+00  0.1111111E+00  0.0000000E+00  0.7716049E-03
    1      -11.453302
    2       -5.997796
    3       -1.478886
    4        5.358057
    5        6.041186
    6        7.090829
    7        7.574570
    8       11.802250
    9       17.560810
   10       18.209635
   11       19.103440
   12       19.717919
 
  0.1666667E+00  0.1666667E+00  0.0000000E+00  0.7716049E-03
    1       -9.675249
    2       -4.517810
    3        0.561507
    4        1.322024
    5        2.242282
    6        4.594388
    7        5.105283
    8       12.304010
    9       13.783518
   10       18.773546
   11       19.354454
   12       19.366503
 
  0.2222222E+00  0.1666667E+00  0.0000000E+00  0.1543210E-02
    1       -8.913679
    2       -3.894256
    3        0.025920
    4        1.404955
    5        1.417586
    6        3.614093
    7        4.487283
    8       11.883099
    9       12.823136
   10       18.589469
   11       18.668100
   12       20.618251
 
  0.2777778E+00  0.1666667E+00  0.0000000E+00  0.1543210E-02
    1       -8.012193
    2       -3.189339
    3       -1.404444
    4        0.832388
    5        2.403297
    6        2.508459
    7        4.077295
    8       10.496258
    9       12.718421
   10       18.245710
   11       18.249523
   12       22.251789
 
  0.3333333E+00  0.1666667E+00  0.0000000E+00  0.1543210E-02
    1       -6.986161
    2       -3.097846
    3       -2.101030
    4        0.322964
    5        1.530297
    6        3.448797
    7        3.805228
    8        9.049913
    9       12.716450
   10       18.005836
   11       18.042682
   12       23.260743
 
  0.3888889E+00  0.1666667E+00  0.0000000E+00  0.1543210E-02
    1       -5.914375
    2       -4.283892
    3       -1.293624
    4       -0.384225
    5        0.995147
    6        3.668304
    7        4.308979
    8        7.969379
    9       12.713506
   10       17.880732
   11       17.971625
   12       23.302728
 
  0.4444444E+00  0.1666667E+00  0.0000000E+00  0.1543210E-02
    1       -5.914887
    2       -4.283348
    3       -1.294120
    4       -0.384064
    5        0.995486
    6        3.668233
    7        4.308841
    8        7.969478
    9       12.713446
   10       17.880912
   11       17.971564
   12       23.302999
 
  0.5000000E+00  0.1666667E+00  0.0000000E+00  0.1543210E-02
    1       -6.986734
    2       -3.097325
    3       -2.101450
    4        0.322419
    5        1.531409
    6        3.448529
    7        3.805038
    8        9.050062
    9       12.716258
   10       18.006385
   11       18.042521
   12       23.262495
 
 -0.4444444E+00  0.1666667E+00  0.0000000E+00  0.1543210E-02
    1       -8.012710
    2       -3.189767
    3       -1.403995
    4        0.831555
    5        2.403009
    6        2.509879
    7        4.077070
    8       10.496389
    9       12.718009
   10       18.245518
   11       18.250480
   12       22.258507
 
 -0.3888889E+00  0.1666667E+00  0.0000000E+00  0.1543210E-02
    1       -8.914125
    2       -3.894678
    3        0.025946
    4        1.404324
    5        1.417313
    6        3.615392
    7        4.487336
    8       11.883624
    9       12.821979
   10       18.590996
   11       18.667986
   12       20.624238
 
 -0.3333333E+00  0.1666667E+00  0.0000000E+00  0.1543210E-02
    1       -9.675616
    2       -4.518167
    3        0.561268
    4        1.320636
    5        2.242757
    6        4.594480
    7        5.106797
    8       12.304492
    9       13.781976
   10       18.778182
   11       19.357146
   12       19.366570
 
 -0.2777778E+00  0.1666667E+00  0.0000000E+00  0.1543210E-02
    1      -10.290214
    2       -5.027182
    3       -0.138945
    4        2.282623
    5        3.436313
    6        5.244799
    7        5.975359
    8       12.219641
    9       15.052920
   10       17.778263
   11       19.608337
   12       20.295693
 
 -0.2222222E+00  0.1666667E+00  0.0000000E+00  0.1543210E-02
    1      -10.753905
    2       -5.413266
    3       -0.671239
    4        3.121743
    5        4.616558
    6        5.725358
    7        6.733745
    8       12.088664
    9       16.148775
   10       17.055373
   11       19.983200
   12       21.143146
 
 -0.1666667E+00  0.1666667E+00  0.0000000E+00  0.7716049E-03
    1      -11.064259
    2       -5.672414
    3       -1.028956
    4        3.927450
    5        5.358918
    6        6.167250
    7        7.164516
    8       11.978310
    9       16.985658
   10       16.990924
   11       20.133170
   12       20.376173
 
  0.2222222E+00  0.2222222E+00  0.0000000E+00  0.7716049E-03
    1       -8.086742
    2       -3.234696
    3       -0.790207
    4        0.261333
    5        2.328420
    6        3.010614
    7        3.544421
    8       11.332193
    9       11.892818
   10       18.236098
   11       20.064949
   12       20.375205
 
  0.2777778E+00  0.2222222E+00  0.0000000E+00  0.1543210E-02
    1       -7.128861
    2       -2.586625
    3       -1.870962
    4       -0.366839
    5        2.063009
    6        3.035369
    7        3.335608
    8       10.028303
    9       11.639896
   10       18.070663
   11       19.921640
   12       21.977971
 
  0.3333333E+00  0.2222222E+00  0.0000000E+00  0.1543210E-02
    1       -6.072761
    2       -3.362624
    3       -1.660728
    4       -0.587096
    5        1.049773
    6        2.801358
    7        4.308290
    8        8.799052
    9       11.506140
   10       18.043553
   11       19.739028
   12       23.725714
 
  0.3888889E+00  0.2222222E+00  0.0000000E+00  0.1543210E-02
    1       -5.268221
    2       -4.241688
    3       -1.338634
    4       -0.493423
    5        0.450383
    6        2.726811
    7        4.803839
    8        8.209678
    9       11.459917
   10       18.047731
   11       19.676354
   12       24.699133
 
  0.4444444E+00  0.2222222E+00  0.0000000E+00  0.1543210E-02
    1       -6.073514
    2       -3.361874
    3       -1.661240
    4       -0.587728
    5        1.051012
    6        2.801274
    7        4.308045
    8        8.798978
    9       11.506240
   10       18.043439
   11       19.739425
   12       23.731220
 
  0.5000000E+00  0.2222222E+00  0.0000000E+00  0.1543210E-02
    1       -7.129582
    2       -2.586891
    3       -1.870942
    4       -0.367159
    5        2.064292
    6        3.035405
    7        3.335277
    8       10.027828
    9       11.640220
   10       18.070493
   11       19.922522
   12       21.983982
 
 -0.4444444E+00  0.2222222E+00  0.0000000E+00  0.1543210E-02
    1       -8.087379
    2       -3.235268
    3       -0.791018
    4        0.261961
    5        2.328077
    6        3.010808
    7        3.545711
    8       11.330568
    9       11.893941
   10       18.235993
   11       20.069712
   12       20.377676
 
 -0.3888889E+00  0.2222222E+00  0.0000000E+00  0.1543210E-02
    1       -8.914218
    2       -3.894771
    3        0.024104
    4        1.406224
    5        1.417268
    6        3.613560
    7        4.489627
    8       11.882361
    9       12.822871
   10       18.595261
   11       18.668215
   12       20.620061
 
 -0.3333333E+00  0.2222222E+00  0.0000000E+00  0.1543210E-02
    1       -9.599069
    2       -4.455171
    3        0.647091
    4        0.740290
    5        2.704316
    6        4.142619
    7        5.461503
    8       12.034866
    9       13.915524
   10       17.300319
   11       19.406022
   12       20.916031
 
 -0.2777778E+00  0.2222222E+00  0.0000000E+00  0.1543210E-02
    1      -10.136097
    2       -4.899206
    3        0.036504
    4        1.505304
    5        3.877032
    6        4.619532
    7        6.232289
    8       12.097139
    9       14.837520
   10       16.498989
   11       20.274652
   12       20.751701
 
 -0.2222222E+00  0.2222222E+00  0.0000000E+00  0.7716049E-03
    1      -10.521731
    2       -5.219748
    3       -0.404707
    4        2.320057
    5        4.676377
    6        5.033230
    7        6.674016
    8       12.103191
    9       15.598821
   10       16.395056
   11       20.498684
   12       20.950409
 
  0.2777778E+00  0.2777778E+00  0.0000000E+00  0.7716049E-03
    1       -6.134230
    2       -2.548681
    3       -2.209147
    4       -0.898697
    5        1.617916
    6        2.118256
    7        4.295112
    8        9.468762
    9       10.712789
   10       18.069687
   11       21.700967
   12       21.771049
 
  0.3333333E+00  0.2777778E+00  0.0000000E+00  0.1543210E-02
    1       -5.125720
    2       -3.506351
    3       -2.298739
    4       -0.363797
    5        0.821488
    6        1.795626
    7        5.035842
    8        8.846676
    9       10.297501
   10       18.106414
   11       21.602803
   12       23.525729
 
  0.3888889E+00  0.2777778E+00  0.0000000E+00  0.1543210E-02
    1       -5.126448
    2       -3.505797
    3       -2.298687
    4       -0.364758
    5        0.822535
    6        1.795717
    7        5.035741
    8        8.846106
    9       10.298065
   10       18.106355
   11       21.602949
   12       23.530929
 
  0.4444444E+00  0.2777778E+00  0.0000000E+00  0.1543210E-02
    1       -6.135129
    2       -2.549099
    3       -2.208749
    4       -0.899119
    5        1.618237
    6        2.119442
    7        4.294849
    8        9.466971
    9       10.714496
   10       18.069538
   11       21.702920
   12       21.775456
 
  0.5000000E+00  0.2777778E+00  0.0000000E+00  0.1543210E-02
    1       -7.129694
    2       -2.587251
    3       -1.872174
    4       -0.365623
    5        2.062646
    6        3.037487
    7        3.335266
    8       10.026308
    9       11.641568
   10       18.070514
   11       19.927440
   12       21.979055
 
 -0.4444444E+00  0.2777778E+00  0.0000000E+00  0.1543210E-02
    1       -8.012919
    2       -3.190002
    3       -1.406059
    4        0.833573
    5        2.402940
    6        2.508321
    7        4.079719
    8       10.494591
    9       12.719318
   10       18.245723
   11       18.255075
   12       22.254606
 
 -0.3888889E+00  0.2777778E+00  0.0000000E+00  0.1543210E-02
    1       -8.762738
    2       -3.775874
    3       -0.827268
    4        1.580870
    5        2.020252
    6        3.068538
    7        5.031852
    8       10.970860
    9       13.581733
   10       16.886202
   11       18.719086
   12       21.814912
 
 -0.3333333E+00  0.2777778E+00  0.0000000E+00  0.1543210E-02
    1       -9.369761
    2       -4.267656
    3       -0.131809
    4        0.903027
    5        3.005954
    6        3.668287
    7        5.771640
    8       11.438734
    9       14.138212
   10       16.016810
   11       19.413356
   12       21.059645
 
 -0.2777778E+00  0.2777778E+00  0.0000000E+00  0.7716049E-03
    1       -9.828604
    2       -4.644741
    3        0.385353
    4        0.660174
    5        3.792098
    6        4.062786
    7        6.188614
    8       11.833681
    9       14.518796
   10       15.858476
   11       20.011293
   12       20.733879
 
  0.3333333E+00  0.3333333E+00  0.0000000E+00  0.7716049E-03
    1       -4.575190
    2       -3.226811
    3       -3.225093
    4        0.100756
    5        0.978559
    6        0.979968
    7        5.339922
    8        9.340831
    9        9.343604
   10       18.137425
   11       23.091629
   12       23.682558
 
  0.3888889E+00  0.3333333E+00  0.0000000E+00  0.1543210E-02
    1       -5.126560
    2       -3.507329
    3       -2.297245
    4       -0.364850
    5        0.821164
    6        1.797546
    7        5.035817
    8        8.844322
    9       10.299664
   10       18.106308
   11       21.608154
   12       23.526253
 
  0.4444444E+00  0.3333333E+00  0.0000000E+00  0.1543210E-02
    1       -6.073738
    2       -3.363576
    3       -1.661081
    4       -0.586551
    5        1.049740
    6        2.803573
    7        4.308120
    8        8.796934
    9       11.507946
   10       18.043381
   11       19.744549
   12       23.726361
 
  0.5000000E+00  0.3333333E+00  0.0000000E+00  0.1543210E-02
    1       -6.987069
    2       -3.098859
    3       -2.102216
    4        0.323452
    5        1.531119
    6        3.448512
    7        3.807711
    8        9.047992
    9       12.717792
   10       18.011198
   11       18.042553
   12       23.266512
 
 -0.4444444E+00  0.3333333E+00  0.0000000E+00  0.1543210E-02
    1       -7.790367
    2       -3.120714
    3       -2.212538
    4        1.173814
    5        2.304893
    6        2.622781
    7        4.708803
    8        9.494205
    9       13.668757
   10       16.576478
   11       18.245994
   12       22.015195
 
 -0.3888889E+00  0.3333333E+00  0.0000000E+00  0.1543210E-02
    1       -8.461175
    2       -3.551113
    3       -1.694466
    4        1.862267
    5        1.903626
    6        3.104665
    7        5.396807
    8       10.077579
    9       14.169505
   10       15.640062
   11       18.702487
   12       21.176304
 
 -0.3333333E+00  0.3333333E+00  0.0000000E+00  0.7716049E-03
    1       -8.989595
    2       -3.960786
    3       -0.967416
    4        1.324773
    5        2.517483
    6        3.557771
    7        5.767126
    8       10.748044
    9       14.268477
   10       15.420317
   11       19.183014
   12       20.858356
 
  0.3888889E+00  0.3888889E+00  0.0000000E+00  0.7716049E-03
    1       -5.268719
    2       -4.243161
    3       -1.337728
    4       -0.494225
    5        0.450468
    6        2.729090
    7        4.803981
    8        8.207361
    9       11.461744
   10       18.047593
   11       19.681667
   12       24.716974
 
  0.4444444E+00  0.3888889E+00  0.0000000E+00  0.1543210E-02
    1       -5.915309
    2       -4.285053
    3       -1.294676
    4       -0.384673
    5        0.997010
    6        3.670858
    7        4.309001
    8        7.967120
    9       12.715088
   10       17.885917
   11       17.971430
   12       23.307501
 
  0.5000000E+00  0.3888889E+00  0.0000000E+00  0.1543210E-02
    1       -6.710025
    2       -3.940345
    3       -1.910319
    4        0.127758
    5        1.940561
    6        3.647556
    7        4.509114
    8        8.141319
    9       13.784338
   10       16.386262
   11       17.973947
   12       22.056922
 
 -0.4444444E+00  0.3888889E+00  0.0000000E+00  0.1543210E-02
    1       -7.424007
    2       -3.474401
    3       -2.415465
    4        0.666084
    5        2.770122
    6        2.971213
    7        5.134683
    8        8.606680
    9       14.410261
   10       15.383335
   11       18.170110
   12       21.219734
 
 -0.3888889E+00  0.3888889E+00  0.0000000E+00  0.7716049E-03
    1       -8.012715
    2       -3.301238
    3       -2.383536
    4        1.261217
    5        2.374450
    6        3.184422
    7        5.445964
    8        9.271966
    9       14.493232
   10       15.099227
   11       18.494480
   12       20.914936
 
  0.4444444E+00  0.4444444E+00  0.0000000E+00  0.7716049E-03
    1       -5.863943
    2       -4.878012
    3       -0.979009
    4       -0.892252
    5        1.833757
    6        4.186659
    7        4.441357
    8        7.485506
    9       13.830005
   10       16.322226
   11       17.885914
   12       22.064455
 
  0.5000000E+00  0.4444444E+00  0.0000000E+00  0.1543210E-02
    1       -6.332847
    2       -4.697623
    3       -1.553353
    4       -0.481867
    5        2.606856
    6        3.860028
    7        5.000274
    8        7.487146
    9       14.594280
   10       15.253564
   11       17.871110
   12       21.233191
 
 -0.4444444E+00  0.4444444E+00  0.0000000E+00  0.7716049E-03
    1       -6.925309
    2       -4.139323
    3       -2.070712
    4        0.059046
    5        2.955963
    6        3.410584
    7        5.246111
    8        7.905704
    9       14.780893
   10       14.903924
   11       18.001307
   12       20.936585
 
  0.5000000E+00  0.5000000E+00  0.0000000E+00  0.3858025E-03
    1       -6.068291
    2       -5.092304
    3       -1.143695
    4       -0.988691
    5        2.879104
    6        3.958474
    7        5.178624
    8        7.239216
    9       14.838441
   10       14.910508
   11       17.811970
   12       20.941862
 