32   
4    

1    
  0.0052161162003160  -0.0000002351016128   0.0085318305028597
  -0.2762679300    0.0057781000   -0.0911980100
   0.0227505400    0.0034189500   -0.0081233400
  -0.0222172700   -0.0191189500   -0.0084719300
  -0.0204636700    0.0301253000   -0.0083427500
  -0.0119531900    0.0035279200    0.0032268100
  -0.0095224700    0.0020687300    0.0053606600
  -0.0013890000    0.0073568500    0.0057659700
  -0.0063621400    0.0024420700    0.0059753500
   0.0134003300   -0.0138948400    0.0059915100
  -0.0038432200   -0.0092306300   -0.0058261900
   0.0009658200    0.0080118100   -0.0003165600
   0.0005447500   -0.0038934100   -0.0161881400
  -0.0042586200    0.0015970700   -0.0066092900
   0.0171671600    0.0064853200    0.0058120400
   0.0022424400   -0.0181978000    0.0002589500
  -0.0037303600   -0.0041797600   -0.0145675900
   0.0135712100   -0.0043814700    0.0137847600
   0.0638403900   -0.0056442700   -0.0001441900
   0.1150228900    0.0265630500    0.0008021200
   0.1149870500   -0.0345239300   -0.0009519500
   0.0132503300   -0.0046595400   -0.0001781700
  -0.0004059400   -0.0035914600   -0.0054511200
   0.0093194800    0.0027371100   -0.0057293500
   0.0118694100   -0.0083317000   -0.0046237500
  -0.0235809800    0.0129273400    0.0178023400
   0.0193169200    0.0200968600    0.0278504600
  -0.0066903200   -0.0199966200    0.0228531800
  -0.0077132900    0.0036007600   -0.0034204500
   0.0207251100   -0.0163091500    0.0272224400
  -0.0206672800   -0.0035337200    0.0172823100
  -0.0121450000    0.0279488200    0.0225004600
  -0.0077631600    0.0048012000   -0.0023465800

1    
 -0.0052161162003160   0.0000002351016128  -0.0085318305028597
   0.2639424200    0.0050416900    0.0913536000
  -0.0362242200    0.0017897300    0.0082921400
   0.0092910800    0.0297305400    0.0087420600
   0.0080481800   -0.0207734600    0.0080670300
   0.0007963800    0.0036684500   -0.0032656400
  -0.0043274200    0.0019721700   -0.0052947600
  -0.0064335800    0.0023666400   -0.0060156700
  -0.0121604400    0.0065964900   -0.0052880600
  -0.0042731100    0.0067944100   -0.0058778100
   0.0177031700    0.0012545600    0.0063084200
   0.0106442500   -0.0173003000   -0.0003535700
   0.0161478000   -0.0033678800    0.0142701900
   0.0167312300   -0.0086977000    0.0058131400
  -0.0009124100   -0.0124403900   -0.0060707300
   0.0121171900    0.0076783000    0.0001798300
   0.0136646500   -0.0035713100    0.0163637600
   0.0000180800   -0.0040344400   -0.0137631300
  -0.0510173300   -0.0050695100   -0.0000497400
  -0.1023618500   -0.0342620600    0.0008670200
  -0.1028492100    0.0266712500   -0.0009472700
   0.0001671300   -0.0045479800   -0.0000125000
   0.0138213800   -0.0041794200    0.0054382700
   0.0014888800   -0.0088069500    0.0046510100
   0.0019419300    0.0029678500    0.0056250700
   0.0074970900   -0.0030381000   -0.0170342000
  -0.0341591100   -0.0159277500   -0.0274012000
  -0.0017339400    0.0279780500   -0.0225231400
  -0.0044802700    0.0045299200    0.0023413100
  -0.0330423300    0.0200612400   -0.0277792100
   0.0097798500    0.0129253000   -0.0175150600
  -0.0051201400   -0.0199533100   -0.0226438600
  -0.0047053500    0.0039439500    0.0035227100

17   
  0.0052161162003160  -0.0000002351016128   0.0085318305028597
  -0.0005241000    0.0007880100    0.0150116600
   0.0523429100    0.0072741100    0.0019834900
   0.1044164500    0.0339872300    0.0002195200
   0.1045152200   -0.0243869200    0.0024798700
   0.0001289500    0.0061594000    0.0019846100
  -0.0118467200    0.0035789900   -0.0042420300
  -0.0042816800    0.0083897200   -0.0033960300
   0.0014515100   -0.0047981400   -0.0035430800
   0.0068741600   -0.0052189800    0.0080115300
   0.0205092100    0.0035778100    0.0350527000
   0.0033697100   -0.0088200200    0.0211811000
   0.0057563600   -0.0040840700   -0.0040409600
   0.0221979900   -0.0127807300    0.0333202900
   0.0024386100   -0.0024505700    0.0075071800
   0.0056661400    0.0040603600    0.0209624900
   0.0034978300   -0.0051956500   -0.0052442200
  -0.2866570700   -0.0058351300   -0.2019477300
   0.0308106500   -0.0001182800    0.0023601700
  -0.0084322400   -0.0284249700    0.0021914100
  -0.0074915000    0.0173697900    0.0026456100
  -0.0048117100   -0.0024407500    0.0035821000
   0.0089042100   -0.0048617500   -0.0012730900
   0.0030083600   -0.0052010200   -0.0008664700
   0.0073852100    0.0006245200   -0.0011543400
   0.0054493600   -0.0023951200    0.0182720800
  -0.0109300900    0.0006759100    0.0059348100
  -0.0082613400    0.0131945200    0.0124139400
  -0.0167571200    0.0015030200   -0.0019767000
  -0.0117015000    0.0066399000    0.0057700900
   0.0044569300    0.0100725100    0.0178571400
  -0.0057087500   -0.0059981700    0.0115874100
  -0.0157759300    0.0051144400   -0.0026445500

17   
 -0.0052161162003160   0.0000002351016128  -0.0085318305028597
  -0.0115257300    0.0007348700   -0.0146994900
  -0.0642525400    0.0082518300   -0.0014798700
  -0.1168892100   -0.0246280500   -0.0023959900
  -0.1182855700    0.0352348200    0.0002006300
  -0.0132092600    0.0075693700   -0.0017066300
  -0.0015270300    0.0037856000    0.0043699700
  -0.0127462000   -0.0032219700    0.0041567500
  -0.0085575200    0.0083077000    0.0034861000
   0.0096080300   -0.0033908400   -0.0082044500
  -0.0098433700   -0.0121017100   -0.0337333700
   0.0057045800    0.0037080700   -0.0216893800
   0.0094017900   -0.0043267400    0.0049104500
  -0.0074476400    0.0041262300   -0.0348194900
   0.0056135400   -0.0056456700   -0.0083186200
   0.0097270300   -0.0090229500   -0.0210767900
   0.0069103300   -0.0046517900    0.0037967800
   0.2996570600   -0.0060876900    0.2018014700
  -0.0184197000    0.0004180300   -0.0025140400
   0.0204307000    0.0170777600   -0.0026953600
   0.0191576900   -0.0277119300   -0.0026536200
   0.0159854600   -0.0029489400   -0.0038693000
   0.0034543700   -0.0054814900    0.0009076800
   0.0057824300    0.0005807800    0.0010061100
   0.0095533300   -0.0061443200    0.0006422000
  -0.0159095800    0.0091880100   -0.0177010600
  -0.0013166700    0.0065258400   -0.0057214100
  -0.0060166400   -0.0065790500   -0.0114943400
   0.0033566800    0.0046919100    0.0027157700
  -0.0009784800    0.0003361600   -0.0054803000
  -0.0176609000   -0.0025706900   -0.0179538900
  -0.0050994300    0.0133967500   -0.0120818300
   0.0053424500    0.0005801000    0.0022953400
