32   
4    

1    
  0.0041680128735288  -0.0000001878613342   0.0090899762733907
  -0.2627031900    0.0045914300   -0.1366317200
   0.0360462100    0.0030749200    0.0017944800
  -0.0093268300   -0.0230969400    0.0018730700
  -0.0095083300    0.0294027400    0.0017094300
  -0.0051635400    0.0031442000    0.0057753500
  -0.0050852000    0.0031473500    0.0064986900
  -0.0051364400    0.0031137800    0.0064975400
  -0.0051261900    0.0031702600    0.0064990500
   0.0058001100   -0.0035129000   -0.0062287300
   0.0039852300   -0.0037462300   -0.0070479600
   0.0050953600   -0.0020570800   -0.0066385700
   0.0043556200   -0.0031255600   -0.0030109400
   0.0042010100   -0.0024912400   -0.0073359000
   0.0059430600   -0.0026986300   -0.0065220600
   0.0052507200   -0.0041096400   -0.0069294500
   0.0045355300   -0.0031190300   -0.0030483500
   0.0061226500   -0.0015961500    0.0121738700
   0.0403621700   -0.0021801100    0.0384967700
   0.0927226300    0.0285525600    0.0389943100
   0.0939061200   -0.0325910800    0.0379205300
   0.0022395000   -0.0014657100   -0.0013148600
   0.0022669300   -0.0014697300   -0.0011253400
   0.0022449100   -0.0014807200   -0.0011268900
   0.0022426000   -0.0014507600   -0.0011218600
  -0.0045283200    0.0027062000    0.0044743400
   0.0010294900    0.0034939800    0.0051238200
  -0.0024309900   -0.0016990000    0.0048082100
  -0.0015799200    0.0014920000    0.0005669400
   0.0008134700   -0.0004064300    0.0050619200
  -0.0044318700    0.0003728800    0.0044509600
  -0.0024849800    0.0045350500    0.0047362700
  -0.0016575200    0.0014995900    0.0006270800

1    
 -0.0041680128735288   0.0000001878613342  -0.0090899762733907
   0.2518078200    0.0044649400    0.1366148900
  -0.0469499500    0.0030584200   -0.0018096200
  -0.0014075400    0.0293835400   -0.0017328900
  -0.0015609100   -0.0231162100   -0.0018821300
  -0.0057411100    0.0031400800   -0.0057931700
  -0.0058151000    0.0031390000   -0.0065162400
  -0.0057699300    0.0031605700   -0.0065172000
  -0.0057621200    0.0031061500   -0.0065159100
   0.0049532100   -0.0027985200    0.0065909900
   0.0067109200   -0.0025727700    0.0074048800
   0.0056421000   -0.0042043000    0.0069944000
   0.0063637600   -0.0031742300    0.0031137000
   0.0069066300   -0.0038253800    0.0070172000
   0.0051073700   -0.0035988600    0.0062006500
   0.0058138700   -0.0021376700    0.0066132000
   0.0065452600   -0.0031721000    0.0029840000
  -0.0010493300   -0.0012577100   -0.0121879300
  -0.0352884000   -0.0017969800   -0.0385122400
  -0.0887676200   -0.0322206900   -0.0379966700
  -0.0877203800    0.0289273200   -0.0389441000
   0.0028289600   -0.0014482000    0.0012801800
   0.0027977900   -0.0014533100    0.0010914700
   0.0028276300   -0.0014318300    0.0010898800
   0.0028280300   -0.0014646400    0.0010902000
  -0.0006136400    0.0002691600   -0.0044121300
  -0.0058732100   -0.0005019200   -0.0050046800
  -0.0025700100    0.0044244000   -0.0047245300
  -0.0034148000    0.0014021100   -0.0005788400
  -0.0061125800    0.0034243800   -0.0051366600
  -0.0005665700    0.0026362800   -0.0044706000
  -0.0026540700   -0.0017814800   -0.0047804500
  -0.0034960800    0.0014204200   -0.0005696400

17   
  0.0041680128735288  -0.0000001878613342   0.0090899762733907
  -0.0021024600    0.0031462200    0.0071926000
   0.0321318200    0.0037121600    0.0335124600
   0.0855940700    0.0340808900    0.0329472600
   0.0845771400   -0.0270533700    0.0340024800
  -0.0058270900    0.0030928400   -0.0063122400
  -0.0057933100    0.0031004500   -0.0061227700
  -0.0058342500    0.0030754600   -0.0061226900
  -0.0058163900    0.0030982400   -0.0061214800
   0.0056130100   -0.0031398500    0.0086814600
   0.0069992600   -0.0022922000    0.0111834000
   0.0055737700   -0.0038753500    0.0099242500
   0.0064460100   -0.0030918400    0.0057003900
   0.0070408500   -0.0038247000    0.0108280200
   0.0056758000   -0.0030993900    0.0083787600
   0.0057310100   -0.0023230000    0.0096034400
   0.0065424300   -0.0030868200    0.0054676200
  -0.2503108100   -0.0030632200   -0.1477926400
   0.0473318300   -0.0016225600   -0.0042144200
   0.0061162300   -0.0254693800   -0.0042819800
   0.0062789300    0.0220576900   -0.0041608400
   0.0039033000   -0.0007581800    0.0014629000
   0.0038165400   -0.0007628400    0.0007561900
   0.0038493100   -0.0007351300    0.0007566000
   0.0038462900   -0.0007805600    0.0007572900
  -0.0060235500    0.0013488400    0.0012239300
  -0.0060574600    0.0010541900    0.0012167800
  -0.0057850200    0.0012311000    0.0012035200
  -0.0070439300    0.0011979500   -0.0015141400
  -0.0064702300    0.0013820800    0.0011187700
  -0.0064554300    0.0010171900    0.0011337600
  -0.0061468400    0.0011817900    0.0011156600
  -0.0074008300    0.0012012900   -0.0015243600

17   
 -0.0041680128735288   0.0000001878613342  -0.0090899762733907
  -0.0091137400    0.0032144000   -0.0072061000
  -0.0433570000    0.0038020700   -0.0335238200
  -0.0957324100   -0.0269331900   -0.0340592600
  -0.0968529800    0.0341871400   -0.0329287900
  -0.0051816000    0.0031566700    0.0063044700
  -0.0052103400    0.0031619800    0.0061143800
  -0.0051879900    0.0031712700    0.0061135600
  -0.0051792600    0.0031372300    0.0061144100
   0.0054580500   -0.0031704000   -0.0084313500
   0.0041115500   -0.0038912600   -0.0108759200
   0.0054065400   -0.0023757800   -0.0096566900
   0.0045976000   -0.0031428700   -0.0055213100
   0.0041419100   -0.0023243000   -0.0111144300
   0.0055068700   -0.0031887300   -0.0086071200
   0.0055705000   -0.0039245100   -0.0098536900
   0.0046853000   -0.0031400900   -0.0056287100
   0.2609228100   -0.0043105800    0.1478301200
  -0.0366901200   -0.0027598000    0.0042643700
   0.0043576600    0.0209040600    0.0041946800
   0.0045274500   -0.0266075200    0.0043472100
   0.0025074900   -0.0012659600   -0.0015153800
   0.0026020300   -0.0012669800   -0.0008074900
   0.0025674100   -0.0012852000   -0.0008076900
   0.0025649900   -0.0012457200   -0.0008112500
  -0.0022522700    0.0018064000   -0.0011770500
  -0.0022362500    0.0021678900   -0.0011600400
  -0.0025597200    0.0019692800   -0.0011706000
  -0.0013154300    0.0019811600    0.0014764200
  -0.0023392100    0.0018914300   -0.0011610300
  -0.0023682100    0.0021829500   -0.0011613200
  -0.0026084700    0.0020613500   -0.0011535600
  -0.0013431500    0.0020376100    0.0015729600
