mesh: [     9,     9,     4 ]
nqpoint: 50     
reciprocal_lattice:
- [   0.40533564,   0.23404500,   0.00000000 ] # a*
- [   0.00002110,   0.46805346,   0.00000000 ] # b*
- [   0.00000000,   0.00000000,   0.24780412 ] # c*
natom:   4      
lattice:
- [     2.467155442383188,    -0.000111200019553,     0.000000000000000 ] # a
- [    -1.233674023183305,     2.136563688137034,     0.000000000000000 ] # b
- [     0.000000000000000,     0.000000000000000,     4.035445387000000 ] # c
points:
- symbol: C  # 1
  coordinates: [  0.999999697166835,  0.000000349172772,  0.250000000000000 ]
  mass: 12.010700
- symbol: C  # 2
  coordinates: [  0.000000349172772,  0.999999697166835,  0.750000000000000 ]
  mass: 12.010700
- symbol: C  # 3
  coordinates: [  0.333298929956719,  0.666701052703672,  0.250000000000000 ]
  mass: 12.010700
- symbol: C  # 4
  coordinates: [  0.666701052703672,  0.333298929956719,  0.750000000000000 ]
  mass: 12.010700
phonon:
- q-position: [    0.0000000,    0.0000000,    0.1250000 ]
  weight: 2    
  band:
  - # 1
    frequency:   -33.7572200806
  - # 2
    frequency:   -33.7564573186
  - # 3
    frequency:   -27.7571052051
  - # 4
    frequency:   -27.7568698961
  - # 5
    frequency:   -13.4131996379
  - # 6
    frequency:     1.5391247733
  - # 7
    frequency:     1.5397774202
  - # 8
    frequency:     2.6943439370
  - # 9
    frequency:     2.6943577809
  - # 10
    frequency:     5.0673565728
  - # 11
    frequency:    19.2287697390
  - # 12
    frequency:    19.3121278719

- q-position: [    0.1111111,    0.0000000,    0.1250000 ]
  weight: 8    
  band:
  - # 1
    frequency:   -32.1780964593
  - # 2
    frequency:   -31.7200854404
  - # 3
    frequency:   -26.5379776874
  - # 4
    frequency:   -25.9901870660
  - # 5
    frequency:   -11.5370460835
  - # 6
    frequency:     1.3742226399
  - # 7
    frequency:     5.1539877464
  - # 8
    frequency:     6.4020753490
  - # 9
    frequency:     6.6069635940
  - # 10
    frequency:     7.8274560670
  - # 11
    frequency:    18.7404663632
  - # 12
    frequency:    19.0858187014

- q-position: [    0.2222222,    0.0000000,    0.1250000 ]
  weight: 8    
  band:
  - # 1
    frequency:   -27.8235859395
  - # 2
    frequency:   -25.9171669087
  - # 3
    frequency:   -23.1573573830
  - # 4
    frequency:   -20.9601845758
  - # 5
    frequency:    -3.8709604476
  - # 6
    frequency:     7.1294056094
  - # 7
    frequency:     9.0256349350
  - # 8
    frequency:     9.4396776893
  - # 9
    frequency:    11.3262335699
  - # 10
    frequency:    12.4324928270
  - # 11
    frequency:    17.5398980913
  - # 12
    frequency:    18.6144078863

- q-position: [    0.3333333,    0.0000000,    0.1250000 ]
  weight: 8    
  band:
  - # 1
    frequency:   -22.0495719678
  - # 2
    frequency:   -19.6192285929
  - # 3
    frequency:   -16.0581048183
  - # 4
    frequency:   -13.4726184794
  - # 5
    frequency:     9.8816563673
  - # 6
    frequency:    10.9226257961
  - # 7
    frequency:    11.4297637037
  - # 8
    frequency:    12.9329589073
  - # 9
    frequency:    14.9856794358
  - # 10
    frequency:    16.0537527739
  - # 11
    frequency:    16.7214766156
  - # 12
    frequency:    18.2331110330

- q-position: [    0.4444444,    0.0000000,    0.1250000 ]
  weight: 8    
  band:
  - # 1
    frequency:   -17.6492930973
  - # 2
    frequency:   -16.4890709948
  - # 3
    frequency:    -6.3905132878
  - # 4
    frequency:     4.7126596845
  - # 5
    frequency:     9.3659553017
  - # 6
    frequency:    13.9306236227
  - # 7
    frequency:    14.1101665671
  - # 8
    frequency:    14.5027528203
  - # 9
    frequency:    16.7215847100
  - # 10
    frequency:    17.3178375331
  - # 11
    frequency:    18.0264466285
  - # 12
    frequency:    18.2817252094

- q-position: [    0.1111111,    0.1111111,    0.1250000 ]
  weight: 4    
  band:
  - # 1
    frequency:   -28.4609204841
  - # 2
    frequency:   -28.2002466806
  - # 3
    frequency:   -23.4799857183
  - # 4
    frequency:   -23.0616314756
  - # 5
    frequency:    -5.6448375973
  - # 6
    frequency:     5.9375831436
  - # 7
    frequency:     7.2436163759
  - # 8
    frequency:     8.4359928386
  - # 9
    frequency:    10.1488755485
  - # 10
    frequency:    10.3924276004
  - # 11
    frequency:    17.6151760487
  - # 12
    frequency:    18.5094398510

- q-position: [    0.2222222,    0.1111111,    0.1250000 ]
  weight: 8    
  band:
  - # 1
    frequency:   -23.2758586791
  - # 2
    frequency:   -21.4843649606
  - # 3
    frequency:   -18.6847364034
  - # 4
    frequency:   -16.9570806994
  - # 5
    frequency:     9.6197025223
  - # 6
    frequency:     9.9059249392
  - # 7
    frequency:    10.1586634717
  - # 8
    frequency:    11.1962077160
  - # 9
    frequency:    14.0420950958
  - # 10
    frequency:    14.3156438882
  - # 11
    frequency:    16.7388831460
  - # 12
    frequency:    17.9624990398

- q-position: [    0.3333333,    0.1111111,    0.1250000 ]
  weight: 8    
  band:
  - # 1
    frequency:   -18.6754326948
  - # 2
    frequency:   -15.9160969462
  - # 3
    frequency:   -10.3785300050
  - # 4
    frequency:    -8.0171367632
  - # 5
    frequency:     9.3429894598
  - # 6
    frequency:    13.1936661612
  - # 7
    frequency:    13.8342124918
  - # 8
    frequency:    14.5129173872
  - # 9
    frequency:    16.8436632045
  - # 10
    frequency:    17.0869900414
  - # 11
    frequency:    17.3304408302
  - # 12
    frequency:    17.9390808241

- q-position: [   -0.5555556,    0.1111111,    0.1250000 ]
  weight: 8    
  band:
  - # 1
    frequency:   -17.0726627232
  - # 2
    frequency:   -13.9685251029
  - # 3
    frequency:    -3.8247276936
  - # 4
    frequency:     8.6183684604
  - # 5
    frequency:     9.4054648517
  - # 6
    frequency:    14.3829379480
  - # 7
    frequency:    14.4692507884
  - # 8
    frequency:    14.9798798261
  - # 9
    frequency:    16.9567931978
  - # 10
    frequency:    17.9459125135
  - # 11
    frequency:    18.2621478396
  - # 12
    frequency:    18.8796313907

- q-position: [   -0.4444444,    0.1111111,    0.1250000 ]
  weight: 8    
  band:
  - # 1
    frequency:   -19.5125398306
  - # 2
    frequency:   -16.3870603163
  - # 3
    frequency:    -9.2676491931
  - # 4
    frequency:    -6.9162008004
  - # 5
    frequency:    10.3114619799
  - # 6
    frequency:    12.3348134631
  - # 7
    frequency:    13.2508083514
  - # 8
    frequency:    14.1789184053
  - # 9
    frequency:    16.5373746734
  - # 10
    frequency:    16.8955714711
  - # 11
    frequency:    18.3104430511
  - # 12
    frequency:    18.4594409604

- q-position: [   -0.3333333,    0.1111111,    0.1250000 ]
  weight: 8    
  band:
  - # 1
    frequency:   -24.7987181885
  - # 2
    frequency:   -20.7495320980
  - # 3
    frequency:   -20.2640105780
  - # 4
    frequency:   -16.3461008975
  - # 5
    frequency:     5.4776414146
  - # 6
    frequency:    10.3402261978
  - # 7
    frequency:    10.5700679030
  - # 8
    frequency:    12.2985349456
  - # 9
    frequency:    13.9270547380
  - # 10
    frequency:    16.0725789637
  - # 11
    frequency:    17.4494035742
  - # 12
    frequency:    18.7286443821

- q-position: [   -0.2222222,    0.1111111,    0.1250000 ]
  weight: 8    
  band:
  - # 1
    frequency:   -29.7281099062
  - # 2
    frequency:   -28.1782327241
  - # 3
    frequency:   -24.4076013739
  - # 4
    frequency:   -22.7818807036
  - # 5
    frequency:    -9.6056736709
  - # 6
    frequency:     6.8968500759
  - # 7
    frequency:     8.6074279002
  - # 8
    frequency:     8.8417525450
  - # 9
    frequency:    10.7114311829
  - # 10
    frequency:    12.7449125652
  - # 11
    frequency:    18.4705172241
  - # 12
    frequency:    19.2108247279

- q-position: [   -0.1111111,    0.1111111,    0.1250000 ]
  weight: 4    
  band:
  - # 1
    frequency:   -32.3512308368
  - # 2
    frequency:   -32.0823683483
  - # 3
    frequency:   -26.4625710593
  - # 4
    frequency:   -26.2810339689
  - # 5
    frequency:   -12.5319185366
  - # 6
    frequency:     3.0543687059
  - # 7
    frequency:     4.8957175822
  - # 8
    frequency:     6.6168199296
  - # 9
    frequency:     7.6067080503
  - # 10
    frequency:     9.2212397538
  - # 11
    frequency:    18.9888171805
  - # 12
    frequency:    19.4601276805

- q-position: [    0.2222222,    0.2222222,    0.1250000 ]
  weight: 4    
  band:
  - # 1
    frequency:   -19.0280121984
  - # 2
    frequency:   -14.2341654770
  - # 3
    frequency:   -12.6495801668
  - # 4
    frequency:   -10.8552824093
  - # 5
    frequency:     9.3360131030
  - # 6
    frequency:    12.8508854087
  - # 7
    frequency:    13.7165161272
  - # 8
    frequency:    14.4083394981
  - # 9
    frequency:    17.0162217401
  - # 10
    frequency:    17.0826928822
  - # 11
    frequency:    17.1505736346
  - # 12
    frequency:    17.6351756006

- q-position: [    0.3333333,    0.2222222,    0.1250000 ]
  weight: 8    
  band:
  - # 1
    frequency:   -16.4402859084
  - # 2
    frequency:    -9.2524516693
  - # 3
    frequency:    -4.9367520390
  - # 4
    frequency:     5.7206305547
  - # 5
    frequency:     9.4166716626
  - # 6
    frequency:    14.6705927645
  - # 7
    frequency:    14.9072811865
  - # 8
    frequency:    16.0647330770
  - # 9
    frequency:    17.4501633120
  - # 10
    frequency:    17.9555954831
  - # 11
    frequency:    18.6765728383
  - # 12
    frequency:    19.1829569972

- q-position: [   -0.5555556,    0.2222222,    0.1250000 ]
  weight: 8    
  band:
  - # 1
    frequency:   -16.7598865706
  - # 2
    frequency:   -10.2461860609
  - # 3
    frequency:    -3.2505918350
  - # 4
    frequency:     9.7662375601
  - # 5
    frequency:    10.6648402145
  - # 6
    frequency:    13.5494059466
  - # 7
    frequency:    14.5510828785
  - # 8
    frequency:    15.0789610858
  - # 9
    frequency:    17.2407880319
  - # 10
    frequency:    18.0727437121
  - # 11
    frequency:    18.3442669460
  - # 12
    frequency:    19.6106125319

- q-position: [   -0.4444444,    0.2222222,    0.1250000 ]
  weight: 8    
  band:
  - # 1
    frequency:   -20.4921404790
  - # 2
    frequency:   -15.1759150058
  - # 3
    frequency:   -11.8110087053
  - # 4
    frequency:    -8.8133202918
  - # 5
    frequency:     9.3361107336
  - # 6
    frequency:    11.7533522799
  - # 7
    frequency:    13.0100366315
  - # 8
    frequency:    14.2696620169
  - # 9
    frequency:    16.3697737063
  - # 10
    frequency:    17.4561546272
  - # 11
    frequency:    18.4419584897
  - # 12
    frequency:    18.6637307511

- q-position: [   -0.3333333,    0.2222222,    0.1250000 ]
  weight: 8    
  band:
  - # 1
    frequency:   -25.2530450469
  - # 2
    frequency:   -21.6979022555
  - # 3
    frequency:   -19.4717223676
  - # 4
    frequency:   -16.9615116191
  - # 5
    frequency:    -4.9509891448
  - # 6
    frequency:    11.0337831882
  - # 7
    frequency:    11.3691050347
  - # 8
    frequency:    12.5687070461
  - # 9
    frequency:    14.3996543096
  - # 10
    frequency:    16.5022326387
  - # 11
    frequency:    18.1823540236
  - # 12
    frequency:    19.0957851354

- q-position: [   -0.2222222,    0.2222222,    0.1250000 ]
  weight: 4    
  band:
  - # 1
    frequency:   -28.5587666481
  - # 2
    frequency:   -27.1411928449
  - # 3
    frequency:   -22.5388444700
  - # 4
    frequency:   -21.9572111336
  - # 5
    frequency:    -9.8041560761
  - # 6
    frequency:     9.0790783382
  - # 7
    frequency:     9.5752825385
  - # 8
    frequency:     9.9162043634
  - # 9
    frequency:    12.4886566680
  - # 10
    frequency:    14.3472877298
  - # 11
    frequency:    18.6681356127
  - # 12
    frequency:    19.4318809092

- q-position: [   -0.6666667,    0.3333333,    0.1250000 ]
  weight: 4    
  band:
  - # 1
    frequency:   -15.3742404399
  - # 2
    frequency:     1.5602183509
  - # 3
    frequency:     4.6999497397
  - # 4
    frequency:     8.3906295546
  - # 5
    frequency:    10.7898568321
  - # 6
    frequency:    14.0491994998
  - # 7
    frequency:    15.7505039635
  - # 8
    frequency:    16.0612094400
  - # 9
    frequency:    17.5105596218
  - # 10
    frequency:    18.1635817976
  - # 11
    frequency:    18.9336008998
  - # 12
    frequency:    19.5114582884

- q-position: [   -0.5555556,    0.3333333,    0.1250000 ]
  weight: 8    
  band:
  - # 1
    frequency:   -17.1201172321
  - # 2
    frequency:    -4.8483818809
  - # 3
    frequency:    -2.1575774280
  - # 4
    frequency:     9.2229403796
  - # 5
    frequency:    11.4586548048
  - # 6
    frequency:    12.4884625890
  - # 7
    frequency:    13.7514630781
  - # 8
    frequency:    15.3441536225
  - # 9
    frequency:    17.5070151809
  - # 10
    frequency:    17.6924683590
  - # 11
    frequency:    18.3495716834
  - # 12
    frequency:    18.6657765257

- q-position: [   -0.4444444,    0.3333333,    0.1250000 ]
  weight: 8    
  band:
  - # 1
    frequency:   -20.7870725937
  - # 2
    frequency:   -12.3902276116
  - # 3
    frequency:   -10.8524793518
  - # 4
    frequency:    -7.8071388101
  - # 5
    frequency:     6.6227007567
  - # 6
    frequency:    12.9833220490
  - # 7
    frequency:    13.3891165757
  - # 8
    frequency:    14.7887785574
  - # 9
    frequency:    16.1993339235
  - # 10
    frequency:    17.5398470948
  - # 11
    frequency:    17.8913444350
  - # 12
    frequency:    18.7270258564

- q-position: [   -0.3333333,    0.3333333,    0.1250000 ]
  weight: 4    
  band:
  - # 1
    frequency:   -23.8132784956
  - # 2
    frequency:   -19.0282404544
  - # 3
    frequency:   -15.6246031024
  - # 4
    frequency:   -15.0232529857
  - # 5
    frequency:    -4.3589582597
  - # 6
    frequency:    12.1810520361
  - # 7
    frequency:    12.8631409273
  - # 8
    frequency:    13.5451177397
  - # 9
    frequency:    15.3580526162
  - # 10
    frequency:    16.8515557692
  - # 11
    frequency:    18.2888445196
  - # 12
    frequency:    19.1020942139

- q-position: [   -0.5555556,    0.4444444,    0.1250000 ]
  weight: 4    
  band:
  - # 1
    frequency:   -18.8348711540
  - # 2
    frequency:     1.3881631988
  - # 3
    frequency:     6.2884466154
  - # 4
    frequency:     6.6830699576
  - # 5
    frequency:     8.6521926721
  - # 6
    frequency:    13.7423953480
  - # 7
    frequency:    13.9253468215
  - # 8
    frequency:    14.6737268128
  - # 9
    frequency:    16.4179683277
  - # 10
    frequency:    16.5020755417
  - # 11
    frequency:    17.7344201727
  - # 12
    frequency:    18.4598949683

- q-position: [   -0.4444444,    0.4444444,    0.1250000 ]
  weight: 4    
  band:
  - # 1
    frequency:   -20.3745065493
  - # 2
    frequency:    -6.7889003727
  - # 3
    frequency:    -4.8429413744
  - # 4
    frequency:    -3.3501260695
  - # 5
    frequency:     6.2842719267
  - # 6
    frequency:    13.8196574449
  - # 7
    frequency:    14.0552745881
  - # 8
    frequency:    15.2941414816
  - # 9
    frequency:    15.5802170612
  - # 10
    frequency:    15.8180903750
  - # 11
    frequency:    17.9074238224
  - # 12
    frequency:    18.6542077081

- q-position: [    0.0000000,    0.0000000,    0.3750000 ]
  weight: 2    
  band:
  - # 1
    frequency:   -33.0448037537
  - # 2
    frequency:   -33.0441706572
  - # 3
    frequency:   -30.6397925337
  - # 4
    frequency:   -30.6393672954
  - # 5
    frequency:     2.4394675471
  - # 6
    frequency:     2.4397425208
  - # 7
    frequency:     2.8732823062
  - # 8
    frequency:     2.8733416458
  - # 9
    frequency:    11.3474683068
  - # 10
    frequency:    13.2918956045
  - # 11
    frequency:    18.3550390484
  - # 12
    frequency:    19.3775064293

- q-position: [    0.1111111,    0.0000000,    0.3750000 ]
  weight: 8    
  band:
  - # 1
    frequency:   -31.4826475815
  - # 2
    frequency:   -31.0229798335
  - # 3
    frequency:   -29.2017749120
  - # 4
    frequency:   -28.7098724047
  - # 5
    frequency:     3.7575810949
  - # 6
    frequency:     5.1038915177
  - # 7
    frequency:     6.3484152944
  - # 8
    frequency:     7.1623593426
  - # 9
    frequency:    11.5004943418
  - # 10
    frequency:    13.2860708171
  - # 11
    frequency:    18.2038185125
  - # 12
    frequency:    18.9283370862

- q-position: [    0.2222222,    0.0000000,    0.3750000 ]
  weight: 8    
  band:
  - # 1
    frequency:   -27.1191701192
  - # 2
    frequency:   -25.5517012400
  - # 3
    frequency:   -24.8563519141
  - # 4
    frequency:   -23.1932661669
  - # 5
    frequency:     7.7316762081
  - # 6
    frequency:     8.6261030725
  - # 7
    frequency:    11.1941581116
  - # 8
    frequency:    11.6928339981
  - # 9
    frequency:    11.8673056043
  - # 10
    frequency:    12.9080907328
  - # 11
    frequency:    17.7093819633
  - # 12
    frequency:    18.1664870103

- q-position: [    0.3333333,    0.0000000,    0.3750000 ]
  weight: 8    
  band:
  - # 1
    frequency:   -21.1087685247
  - # 2
    frequency:   -19.9767725137
  - # 3
    frequency:   -16.0825450355
  - # 4
    frequency:   -14.9894477471
  - # 5
    frequency:    11.0560635029
  - # 6
    frequency:    11.4886195828
  - # 7
    frequency:    11.7117300962
  - # 8
    frequency:    12.2050271761
  - # 9
    frequency:    14.8393884019
  - # 10
    frequency:    15.3285607514
  - # 11
    frequency:    17.2621573524
  - # 12
    frequency:    17.8903444494

- q-position: [    0.4444444,    0.0000000,    0.3750000 ]
  weight: 8    
  band:
  - # 1
    frequency:   -16.0952681880
  - # 2
    frequency:   -15.5520221827
  - # 3
    frequency:    -7.0041703484
  - # 4
    frequency:    -4.9329931071
  - # 5
    frequency:     9.9241389609
  - # 6
    frequency:    12.0250493122
  - # 7
    frequency:    13.8399045091
  - # 8
    frequency:    14.0347504946
  - # 9
    frequency:    16.8314757166
  - # 10
    frequency:    17.1562142841
  - # 11
    frequency:    17.2574144393
  - # 12
    frequency:    17.8996155146

- q-position: [    0.1111111,    0.1111111,    0.3750000 ]
  weight: 4    
  band:
  - # 1
    frequency:   -27.6766955268
  - # 2
    frequency:   -27.6148067452
  - # 3
    frequency:   -25.6352643818
  - # 4
    frequency:   -25.4291559104
  - # 5
    frequency:     6.1824616087
  - # 6
    frequency:     6.8196733323
  - # 7
    frequency:     9.7279150268
  - # 8
    frequency:     9.8742440809
  - # 9
    frequency:    11.9746487100
  - # 10
    frequency:    13.1027404682
  - # 11
    frequency:    18.0022762192
  - # 12
    frequency:    18.0335700585

- q-position: [    0.2222222,    0.1111111,    0.3750000 ]
  weight: 8    
  band:
  - # 1
    frequency:   -22.2235500046
  - # 2
    frequency:   -21.1241801365
  - # 3
    frequency:   -19.8122032937
  - # 4
    frequency:   -18.7918038989
  - # 5
    frequency:     9.8604081844
  - # 6
    frequency:    10.2737095709
  - # 7
    frequency:    11.9577220120
  - # 8
    frequency:    12.2586991095
  - # 9
    frequency:    13.5906818797
  - # 10
    frequency:    13.7046456878
  - # 11
    frequency:    17.3964668686
  - # 12
    frequency:    17.7875468454

- q-position: [    0.3333333,    0.1111111,    0.3750000 ]
  weight: 8    
  band:
  - # 1
    frequency:   -16.8959908940
  - # 2
    frequency:   -15.3471652317
  - # 3
    frequency:   -11.2657006581
  - # 4
    frequency:   -10.0518107418
  - # 5
    frequency:    10.2277902752
  - # 6
    frequency:    12.1429890451
  - # 7
    frequency:    13.0636872872
  - # 8
    frequency:    13.7207174955
  - # 9
    frequency:    16.4974317074
  - # 10
    frequency:    16.6243476554
  - # 11
    frequency:    17.3289343591
  - # 12
    frequency:    17.7747976750

- q-position: [   -0.5555556,    0.1111111,    0.3750000 ]
  weight: 8    
  band:
  - # 1
    frequency:   -15.0437192405
  - # 2
    frequency:   -13.1688425259
  - # 3
    frequency:    -4.7335051717
  - # 4
    frequency:     5.0773204418
  - # 5
    frequency:     9.5901006503
  - # 6
    frequency:    11.9110982672
  - # 7
    frequency:    14.3785649224
  - # 8
    frequency:    14.7059772065
  - # 9
    frequency:    17.2783641353
  - # 10
    frequency:    17.5350466454
  - # 11
    frequency:    17.7662090468
  - # 12
    frequency:    18.1216148056

- q-position: [   -0.4444444,    0.1111111,    0.3750000 ]
  weight: 8    
  band:
  - # 1
    frequency:   -18.2263468093
  - # 2
    frequency:   -16.7894465626
  - # 3
    frequency:    -8.9689279430
  - # 4
    frequency:    -8.0765722778
  - # 5
    frequency:    10.6242872809
  - # 6
    frequency:    11.5734175611
  - # 7
    frequency:    12.7935546375
  - # 8
    frequency:    13.2221945071
  - # 9
    frequency:    16.6397033930
  - # 10
    frequency:    17.2485122506
  - # 11
    frequency:    17.4427128646
  - # 12
    frequency:    17.9597560340

- q-position: [   -0.3333333,    0.1111111,    0.3750000 ]
  weight: 8    
  band:
  - # 1
    frequency:   -23.9848499264
  - # 2
    frequency:   -22.2977923030
  - # 3
    frequency:   -19.7332212651
  - # 4
    frequency:   -18.0963512762
  - # 5
    frequency:    10.5940509334
  - # 6
    frequency:    11.1354237640
  - # 7
    frequency:    11.6966528851
  - # 8
    frequency:    12.3347082095
  - # 9
    frequency:    14.2460818241
  - # 10
    frequency:    15.1996223095
  - # 11
    frequency:    17.3924323631
  - # 12
    frequency:    18.1510563454

- q-position: [   -0.2222222,    0.1111111,    0.3750000 ]
  weight: 8    
  band:
  - # 1
    frequency:   -28.9905719315
  - # 2
    frequency:   -27.4839215030
  - # 3
    frequency:   -26.8368658162
  - # 4
    frequency:   -25.2927303791
  - # 5
    frequency:     8.2517490852
  - # 6
    frequency:     9.1628135547
  - # 7
    frequency:    10.5439332447
  - # 8
    frequency:    11.1767399839
  - # 9
    frequency:    11.6915555958
  - # 10
    frequency:    13.0555262241
  - # 11
    frequency:    17.8632089759
  - # 12
    frequency:    18.7133434949

- q-position: [   -0.1111111,    0.1111111,    0.3750000 ]
  weight: 4    
  band:
  - # 1
    frequency:   -31.6119547438
  - # 2
    frequency:   -31.3831409447
  - # 3
    frequency:   -29.2496212321
  - # 4
    frequency:   -29.0469958996
  - # 5
    frequency:     5.7189756839
  - # 6
    frequency:     6.0222284129
  - # 7
    frequency:     7.1281758132
  - # 8
    frequency:     8.0558573642
  - # 9
    frequency:    11.1683273906
  - # 10
    frequency:    13.2185267363
  - # 11
    frequency:    18.1793108838
  - # 12
    frequency:    19.1955974880

- q-position: [    0.2222222,    0.2222222,    0.3750000 ]
  weight: 4    
  band:
  - # 1
    frequency:   -16.8824502022
  - # 2
    frequency:   -13.9231292956
  - # 3
    frequency:   -13.0852742073
  - # 4
    frequency:   -13.0198513279
  - # 5
    frequency:    10.3547371763
  - # 6
    frequency:    12.1656923391
  - # 7
    frequency:    12.6942818361
  - # 8
    frequency:    13.5705956618
  - # 9
    frequency:    16.3968939371
  - # 10
    frequency:    16.4844938649
  - # 11
    frequency:    17.4408766926
  - # 12
    frequency:    17.6546616493

- q-position: [    0.3333333,    0.2222222,    0.3750000 ]
  weight: 8    
  band:
  - # 1
    frequency:   -13.5743090178
  - # 2
    frequency:    -9.1535963175
  - # 3
    frequency:    -6.1584701166
  - # 4
    frequency:     1.8689100144
  - # 5
    frequency:     9.3488328226
  - # 6
    frequency:    11.8353880175
  - # 7
    frequency:    14.7248055768
  - # 8
    frequency:    15.5472101790
  - # 9
    frequency:    17.4705573278
  - # 10
    frequency:    17.6534230536
  - # 11
    frequency:    18.2634430746
  - # 12
    frequency:    18.5636353893

- q-position: [   -0.5555556,    0.2222222,    0.3750000 ]
  weight: 8    
  band:
  - # 1
    frequency:   -14.3821573146
  - # 2
    frequency:   -11.1570040263
  - # 3
    frequency:     2.8101462352
  - # 4
    frequency:     7.9842175413
  - # 5
    frequency:     9.9085202855
  - # 6
    frequency:    11.3076178638
  - # 7
    frequency:    14.2523459186
  - # 8
    frequency:    14.3380147617
  - # 9
    frequency:    17.3106112037
  - # 10
    frequency:    17.7438876853
  - # 11
    frequency:    18.2107739056
  - # 12
    frequency:    18.9029909156

- q-position: [   -0.4444444,    0.2222222,    0.3750000 ]
  weight: 8    
  band:
  - # 1
    frequency:   -18.9949187242
  - # 2
    frequency:   -16.7894582209
  - # 3
    frequency:   -11.1352959037
  - # 4
    frequency:    -9.7739179460
  - # 5
    frequency:    10.8270286009
  - # 6
    frequency:    11.2771213102
  - # 7
    frequency:    12.6954949614
  - # 8
    frequency:    13.2793868218
  - # 9
    frequency:    16.6988473938
  - # 10
    frequency:    17.3446039095
  - # 11
    frequency:    17.5866327540
  - # 12
    frequency:    18.1284851986

- q-position: [   -0.3333333,    0.2222222,    0.3750000 ]
  weight: 8    
  band:
  - # 1
    frequency:   -24.1290816195
  - # 2
    frequency:   -21.8643776903
  - # 3
    frequency:   -20.9556498041
  - # 4
    frequency:   -19.0400211093
  - # 5
    frequency:    10.5908416811
  - # 6
    frequency:    11.8381713100
  - # 7
    frequency:    12.6140713158
  - # 8
    frequency:    12.6978591974
  - # 9
    frequency:    14.4065806500
  - # 10
    frequency:    15.4705276118
  - # 11
    frequency:    17.4545376094
  - # 12
    frequency:    18.4245611674

- q-position: [   -0.2222222,    0.2222222,    0.3750000 ]
  weight: 4    
  band:
  - # 1
    frequency:   -27.5993779011
  - # 2
    frequency:   -26.4993139991
  - # 3
    frequency:   -25.1841762514
  - # 4
    frequency:   -24.3843879503
  - # 5
    frequency:    10.6516951923
  - # 6
    frequency:    10.7892375477
  - # 7
    frequency:    10.8777029113
  - # 8
    frequency:    11.8962993278
  - # 9
    frequency:    12.9161771469
  - # 10
    frequency:    13.0868519525
  - # 11
    frequency:    17.7368560719
  - # 12
    frequency:    18.8025832344

- q-position: [   -0.6666667,    0.3333333,    0.3750000 ]
  weight: 4    
  band:
  - # 1
    frequency:   -11.8464540923
  - # 2
    frequency:    -4.9370906317
  - # 3
    frequency:     5.6182303803
  - # 4
    frequency:     6.3996933364
  - # 5
    frequency:     9.5833947306
  - # 6
    frequency:    11.2037243501
  - # 7
    frequency:    15.2376523740
  - # 8
    frequency:    15.5921120168
  - # 9
    frequency:    17.4396678785
  - # 10
    frequency:    17.7786664533
  - # 11
    frequency:    18.7548257992
  - # 12
    frequency:    19.0654857829

- q-position: [   -0.5555556,    0.3333333,    0.3750000 ]
  weight: 8    
  band:
  - # 1
    frequency:   -13.9655071636
  - # 2
    frequency:    -8.8525257519
  - # 3
    frequency:     4.5025889029
  - # 4
    frequency:     7.2425551449
  - # 5
    frequency:    10.4957869315
  - # 6
    frequency:    10.6682125150
  - # 7
    frequency:    13.6417889735
  - # 8
    frequency:    14.3301136473
  - # 9
    frequency:    17.2577704925
  - # 10
    frequency:    17.5730331933
  - # 11
    frequency:    17.9815489974
  - # 12
    frequency:    18.2690441426

- q-position: [   -0.4444444,    0.3333333,    0.3750000 ]
  weight: 8    
  band:
  - # 1
    frequency:   -18.3795545550
  - # 2
    frequency:   -14.6001497986
  - # 3
    frequency:   -11.2664398677
  - # 4
    frequency:    -9.7887023945
  - # 5
    frequency:    10.0630466149
  - # 6
    frequency:    11.7173116126
  - # 7
    frequency:    13.5235556949
  - # 8
    frequency:    14.2185991345
  - # 9
    frequency:    16.1990772200
  - # 10
    frequency:    16.7939102701
  - # 11
    frequency:    17.3432831722
  - # 12
    frequency:    18.2084846049

- q-position: [   -0.3333333,    0.3333333,    0.3750000 ]
  weight: 4    
  band:
  - # 1
    frequency:   -22.0097086546
  - # 2
    frequency:   -18.7405118093
  - # 3
    frequency:   -18.5541322474
  - # 4
    frequency:   -16.8728430089
  - # 5
    frequency:    10.0882264902
  - # 6
    frequency:    12.2883373790
  - # 7
    frequency:    13.9742261148
  - # 8
    frequency:    14.0155850893
  - # 9
    frequency:    14.7793478871
  - # 10
    frequency:    15.6602884972
  - # 11
    frequency:    17.3856846254
  - # 12
    frequency:    18.4295755188

- q-position: [   -0.5555556,    0.4444444,    0.3750000 ]
  weight: 4    
  band:
  - # 1
    frequency:   -15.2622132446
  - # 2
    frequency:    -8.2722770913
  - # 3
    frequency:     4.4847125941
  - # 4
    frequency:     5.4992431363
  - # 5
    frequency:     9.8126053265
  - # 6
    frequency:    11.4239667003
  - # 7
    frequency:    13.7420622406
  - # 8
    frequency:    13.9356597981
  - # 9
    frequency:    16.1630065001
  - # 10
    frequency:    16.2049886279
  - # 11
    frequency:    17.3590207270
  - # 12
    frequency:    18.0673311474

- q-position: [   -0.4444444,    0.4444444,    0.3750000 ]
  weight: 4    
  band:
  - # 1
    frequency:   -17.1452202743
  - # 2
    frequency:   -11.2397999594
  - # 3
    frequency:    -6.5776925052
  - # 4
    frequency:    -5.7830286635
  - # 5
    frequency:     9.6425819863
  - # 6
    frequency:    11.7822710616
  - # 7
    frequency:    14.0898500825
  - # 8
    frequency:    14.9344394631
  - # 9
    frequency:    15.1967207620
  - # 10
    frequency:    15.3243238637
  - # 11
    frequency:    17.3203250667
  - # 12
    frequency:    18.1903383546

