mesh: [     9,     9,     4 ]
nqpoint: 50     
reciprocal_lattice:
- [   0.40533564,   0.23404500,   0.00000000 ] # a*
- [   0.00002110,   0.46805346,   0.00000000 ] # b*
- [   0.00000000,   0.00000000,   0.18585309 ] # c*
natom:   4      
lattice:
- [     2.467155442383188,    -0.000111200019553,     0.000000000000000 ] # a
- [    -1.233674023183305,     2.136563688137034,     0.000000000000000 ] # b
- [     0.000000000000000,     0.000000000000000,     5.380593850000000 ] # c
points:
- symbol: C  # 1
  coordinates: [  0.999999697166835,  0.000000349172772,  0.250000000000000 ]
  mass: 12.010700
- symbol: C  # 2
  coordinates: [  0.000000349172772,  0.999999697166835,  0.750000000000000 ]
  mass: 12.010700
- symbol: C  # 3
  coordinates: [  0.333298929956719,  0.666701052703672,  0.250000000000000 ]
  mass: 12.010700
- symbol: C  # 4
  coordinates: [  0.666701052703672,  0.333298929956719,  0.750000000000000 ]
  mass: 12.010700
phonon:
- q-position: [    0.0000000,    0.0000000,    0.1250000 ]
  weight: 2    
  band:
  - # 1
    frequency:    -8.6494801261
  - # 2
    frequency:    -6.9472895988
  - # 3
    frequency:    -1.0930331807
  - # 4
    frequency:    -0.8835520244
  - # 5
    frequency:     2.1833597771
  - # 6
    frequency:     9.3758189181
  - # 7
    frequency:    20.7461574943
  - # 8
    frequency:    26.2856444420
  - # 9
    frequency:    45.1757230414
  - # 10
    frequency:    45.6091603379
  - # 11
    frequency:    46.9854386251
  - # 12
    frequency:    47.0412506276

- q-position: [    0.1111111,    0.0000000,    0.1250000 ]
  weight: 8    
  band:
  - # 1
    frequency:    -4.2306313100
  - # 2
    frequency:     4.8629707909
  - # 3
    frequency:     5.9558434264
  - # 4
    frequency:     8.0850758763
  - # 5
    frequency:    10.4562327100
  - # 6
    frequency:    11.5158982244
  - # 7
    frequency:    20.6114792578
  - # 8
    frequency:    25.7278457330
  - # 9
    frequency:    44.9957712089
  - # 10
    frequency:    45.4106636362
  - # 11
    frequency:    46.5086170355
  - # 12
    frequency:    46.8709062702

- q-position: [    0.2222222,    0.0000000,    0.1250000 ]
  weight: 8    
  band:
  - # 1
    frequency:     8.6720965133
  - # 2
    frequency:     9.3500077518
  - # 3
    frequency:    11.5271816243
  - # 4
    frequency:    12.8014259374
  - # 5
    frequency:    20.2395310531
  - # 6
    frequency:    20.5220932054
  - # 7
    frequency:    22.1304932293
  - # 8
    frequency:    24.1884234539
  - # 9
    frequency:    43.9501126219
  - # 10
    frequency:    45.0962187657
  - # 11
    frequency:    45.2094124561
  - # 12
    frequency:    46.3090062351

- q-position: [    0.3333333,    0.0000000,    0.1250000 ]
  weight: 8    
  band:
  - # 1
    frequency:    12.0978588680
  - # 2
    frequency:    14.9325321456
  - # 3
    frequency:    15.1247404230
  - # 4
    frequency:    15.9510806164
  - # 5
    frequency:    19.7162063971
  - # 6
    frequency:    22.0527959711
  - # 7
    frequency:    29.9793200232
  - # 8
    frequency:    31.0006003839
  - # 9
    frequency:    42.5153178067
  - # 10
    frequency:    43.2437775903
  - # 11
    frequency:    44.3284869885
  - # 12
    frequency:    44.8642586533

- q-position: [    0.4444444,    0.0000000,    0.1250000 ]
  weight: 8    
  band:
  - # 1
    frequency:    14.7631115998
  - # 2
    frequency:    16.4910466490
  - # 3
    frequency:    18.1342961893
  - # 4
    frequency:    18.4413676706
  - # 5
    frequency:    19.1244895395
  - # 6
    frequency:    20.1292200053
  - # 7
    frequency:    37.0954565246
  - # 8
    frequency:    37.6497059141
  - # 9
    frequency:    41.4656849582
  - # 10
    frequency:    41.7865957842
  - # 11
    frequency:    41.9587865561
  - # 12
    frequency:    42.0234637984

- q-position: [    0.1111111,    0.1111111,    0.1250000 ]
  weight: 4    
  band:
  - # 1
    frequency:     8.0011304437
  - # 2
    frequency:     8.4476808119
  - # 3
    frequency:    10.8850869081
  - # 4
    frequency:    12.1303997484
  - # 5
    frequency:    17.1186189611
  - # 6
    frequency:    19.2307704978
  - # 7
    frequency:    20.3226570380
  - # 8
    frequency:    24.6013561883
  - # 9
    frequency:    44.4503193771
  - # 10
    frequency:    45.0526218740
  - # 11
    frequency:    45.5927203028
  - # 12
    frequency:    46.4724156724

- q-position: [    0.2222222,    0.1111111,    0.1250000 ]
  weight: 8    
  band:
  - # 1
    frequency:    11.3632401054
  - # 2
    frequency:    14.3838568398
  - # 3
    frequency:    14.6812790883
  - # 4
    frequency:    16.2101294676
  - # 5
    frequency:    19.8519527634
  - # 6
    frequency:    22.6851626512
  - # 7
    frequency:    26.1026634097
  - # 8
    frequency:    27.5067419456
  - # 9
    frequency:    43.2627406874
  - # 10
    frequency:    44.0898670208
  - # 11
    frequency:    44.4267466195
  - # 12
    frequency:    45.3446887664

- q-position: [    0.3333333,    0.1111111,    0.1250000 ]
  weight: 8    
  band:
  - # 1
    frequency:    14.2289909527
  - # 2
    frequency:    16.1945785369
  - # 3
    frequency:    19.0034604053
  - # 4
    frequency:    19.2852977315
  - # 5
    frequency:    20.0040685382
  - # 6
    frequency:    20.5340708559
  - # 7
    frequency:    33.5223253233
  - # 8
    frequency:    34.4500047037
  - # 9
    frequency:    41.9003441154
  - # 10
    frequency:    42.4566644703
  - # 11
    frequency:    42.9453366562
  - # 12
    frequency:    43.2684308482

- q-position: [   -0.5555556,    0.1111111,    0.1250000 ]
  weight: 8    
  band:
  - # 1
    frequency:    15.4981161024
  - # 2
    frequency:    16.8450339831
  - # 3
    frequency:    18.9532961172
  - # 4
    frequency:    19.5053088689
  - # 5
    frequency:    20.6922998877
  - # 6
    frequency:    21.2191745977
  - # 7
    frequency:    38.9263979983
  - # 8
    frequency:    39.1705920920
  - # 9
    frequency:    39.2654254527
  - # 10
    frequency:    39.4702325214
  - # 11
    frequency:    42.1155520267
  - # 12
    frequency:    42.1434162901

- q-position: [   -0.4444444,    0.1111111,    0.1250000 ]
  weight: 8    
  band:
  - # 1
    frequency:    13.4530680516
  - # 2
    frequency:    16.2552345100
  - # 3
    frequency:    19.2802544060
  - # 4
    frequency:    19.3398233373
  - # 5
    frequency:    19.4497346895
  - # 6
    frequency:    20.8545216998
  - # 7
    frequency:    33.6488608048
  - # 8
    frequency:    34.0956087150
  - # 9
    frequency:    42.1098902253
  - # 10
    frequency:    42.4546259981
  - # 11
    frequency:    43.1272694835
  - # 12
    frequency:    43.2468178431

- q-position: [   -0.3333333,    0.1111111,    0.1250000 ]
  weight: 8    
  band:
  - # 1
    frequency:    10.4212337369
  - # 2
    frequency:    14.3939741960
  - # 3
    frequency:    14.7916407434
  - # 4
    frequency:    15.4025990746
  - # 5
    frequency:    20.0065879224
  - # 6
    frequency:    22.9922116147
  - # 7
    frequency:    26.3465249396
  - # 8
    frequency:    27.0546276435
  - # 9
    frequency:    43.3508014452
  - # 10
    frequency:    44.1718390466
  - # 11
    frequency:    44.6893896467
  - # 12
    frequency:    45.2999531652

- q-position: [   -0.2222222,    0.1111111,    0.1250000 ]
  weight: 8    
  band:
  - # 1
    frequency:     7.0412968216
  - # 2
    frequency:     7.8713840896
  - # 3
    frequency:    10.1578173127
  - # 4
    frequency:    12.1356689471
  - # 5
    frequency:    17.7144352817
  - # 6
    frequency:    18.6760513980
  - # 7
    frequency:    20.4299652759
  - # 8
    frequency:    24.8043518329
  - # 9
    frequency:    44.3086863562
  - # 10
    frequency:    45.4348622769
  - # 11
    frequency:    45.5939298446
  - # 12
    frequency:    46.5023094383

- q-position: [   -0.1111111,    0.1111111,    0.1250000 ]
  weight: 4    
  band:
  - # 1
    frequency:    -5.6638923257
  - # 2
    frequency:     4.2940669122
  - # 3
    frequency:     5.6310413062
  - # 4
    frequency:     9.1648731629
  - # 5
    frequency:    10.4645774438
  - # 6
    frequency:    11.0814362983
  - # 7
    frequency:    20.6493940560
  - # 8
    frequency:    25.7984229207
  - # 9
    frequency:    44.8383179380
  - # 10
    frequency:    45.6487855921
  - # 11
    frequency:    46.4517368350
  - # 12
    frequency:    46.9425961509

- q-position: [    0.2222222,    0.2222222,    0.1250000 ]
  weight: 4    
  band:
  - # 1
    frequency:    14.0380556134
  - # 2
    frequency:    16.0764971106
  - # 3
    frequency:    19.3510168635
  - # 4
    frequency:    20.6661509377
  - # 5
    frequency:    20.9374575510
  - # 6
    frequency:    21.8654930536
  - # 7
    frequency:    31.2245621722
  - # 8
    frequency:    32.1573666891
  - # 9
    frequency:    42.4546532729
  - # 10
    frequency:    42.8847470356
  - # 11
    frequency:    43.1293639568
  - # 12
    frequency:    43.3229872654

- q-position: [    0.3333333,    0.2222222,    0.1250000 ]
  weight: 8    
  band:
  - # 1
    frequency:    16.0955195064
  - # 2
    frequency:    17.1785689218
  - # 3
    frequency:    18.8166553769
  - # 4
    frequency:    18.9008370842
  - # 5
    frequency:    24.9954397397
  - # 6
    frequency:    25.6678183085
  - # 7
    frequency:    35.4932653844
  - # 8
    frequency:    36.0366871011
  - # 9
    frequency:    39.4653127889
  - # 10
    frequency:    39.7146545451
  - # 11
    frequency:    42.8892203810
  - # 12
    frequency:    42.9119291110

- q-position: [   -0.5555556,    0.2222222,    0.1250000 ]
  weight: 8    
  band:
  - # 1
    frequency:    15.2218782002
  - # 2
    frequency:    17.3647782643
  - # 3
    frequency:    19.0353806903
  - # 4
    frequency:    19.2334815318
  - # 5
    frequency:    24.9254723588
  - # 6
    frequency:    25.4563814929
  - # 7
    frequency:    35.6192942854
  - # 8
    frequency:    35.7093610367
  - # 9
    frequency:    39.5967367896
  - # 10
    frequency:    39.8320260602
  - # 11
    frequency:    42.8890511166
  - # 12
    frequency:    43.0176834479

- q-position: [   -0.4444444,    0.2222222,    0.1250000 ]
  weight: 8    
  band:
  - # 1
    frequency:    12.7977368971
  - # 2
    frequency:    16.1414900384
  - # 3
    frequency:    19.6048827459
  - # 4
    frequency:    20.8759751003
  - # 5
    frequency:    21.1741635950
  - # 6
    frequency:    21.3062568858
  - # 7
    frequency:    31.4489730714
  - # 8
    frequency:    31.6049947874
  - # 9
    frequency:    42.8775032940
  - # 10
    frequency:    42.9496657269
  - # 11
    frequency:    43.1519685696
  - # 12
    frequency:    43.3730608654

- q-position: [   -0.3333333,    0.2222222,    0.1250000 ]
  weight: 8    
  band:
  - # 1
    frequency:    10.0882754042
  - # 2
    frequency:    14.4105342822
  - # 3
    frequency:    14.5920081594
  - # 4
    frequency:    15.5146243446
  - # 5
    frequency:    20.0711370212
  - # 6
    frequency:    23.0699344714
  - # 7
    frequency:    26.5825959433
  - # 8
    frequency:    26.6792182824
  - # 9
    frequency:    43.3528837220
  - # 10
    frequency:    44.0403113094
  - # 11
    frequency:    44.7875872797
  - # 12
    frequency:    45.4422901124

- q-position: [   -0.2222222,    0.2222222,    0.1250000 ]
  weight: 4    
  band:
  - # 1
    frequency:     7.7323048519
  - # 2
    frequency:     8.9765216007
  - # 3
    frequency:    11.1011795916
  - # 4
    frequency:    12.8218676571
  - # 5
    frequency:    20.3634087771
  - # 6
    frequency:    21.0161878299
  - # 7
    frequency:    21.4527288417
  - # 8
    frequency:    24.3940544744
  - # 9
    frequency:    43.9008072429
  - # 10
    frequency:    44.9896926889
  - # 11
    frequency:    45.5027823239
  - # 12
    frequency:    46.4460479720

- q-position: [   -0.6666667,    0.3333333,    0.1250000 ]
  weight: 4    
  band:
  - # 1
    frequency:    16.8300102954
  - # 2
    frequency:    17.6007647799
  - # 3
    frequency:    18.1005168329
  - # 4
    frequency:    18.6467563651
  - # 5
    frequency:    28.7812117987
  - # 6
    frequency:    28.8447322715
  - # 7
    frequency:    36.5656953691
  - # 8
    frequency:    36.5773516294
  - # 9
    frequency:    36.8171804805
  - # 10
    frequency:    36.8690730607
  - # 11
    frequency:    43.1014482801
  - # 12
    frequency:    43.2743415110

- q-position: [   -0.5555556,    0.3333333,    0.1250000 ]
  weight: 8    
  band:
  - # 1
    frequency:    15.2669555987
  - # 2
    frequency:    17.2599999802
  - # 3
    frequency:    18.9800140698
  - # 4
    frequency:    19.3480337696
  - # 5
    frequency:    25.0231984878
  - # 6
    frequency:    25.3155097358
  - # 7
    frequency:    35.6001671151
  - # 8
    frequency:    35.7857769818
  - # 9
    frequency:    39.6287976338
  - # 10
    frequency:    39.7791460613
  - # 11
    frequency:    42.8960946177
  - # 12
    frequency:    43.0082993451

- q-position: [   -0.4444444,    0.3333333,    0.1250000 ]
  weight: 8    
  band:
  - # 1
    frequency:    13.2746598354
  - # 2
    frequency:    16.3080629131
  - # 3
    frequency:    19.0370060620
  - # 4
    frequency:    19.5153163986
  - # 5
    frequency:    19.5980804139
  - # 6
    frequency:    20.8655498680
  - # 7
    frequency:    33.6977863011
  - # 8
    frequency:    33.9416802291
  - # 9
    frequency:    42.1669178211
  - # 10
    frequency:    42.3060676688
  - # 11
    frequency:    43.0939237446
  - # 12
    frequency:    43.4448864708

- q-position: [   -0.3333333,    0.3333333,    0.1250000 ]
  weight: 4    
  band:
  - # 1
    frequency:    11.2928285360
  - # 2
    frequency:    14.8218842158
  - # 3
    frequency:    15.1974133810
  - # 4
    frequency:    15.7555798247
  - # 5
    frequency:    19.8958836268
  - # 6
    frequency:    22.2703926574
  - # 7
    frequency:    30.2226365824
  - # 8
    frequency:    30.4478150242
  - # 9
    frequency:    42.6332497463
  - # 10
    frequency:    43.0720894883
  - # 11
    frequency:    44.5121495102
  - # 12
    frequency:    45.0552895781

- q-position: [   -0.5555556,    0.4444444,    0.1250000 ]
  weight: 4    
  band:
  - # 1
    frequency:    15.4591383980
  - # 2
    frequency:    16.7645605829
  - # 3
    frequency:    18.9485933091
  - # 4
    frequency:    19.6138030168
  - # 5
    frequency:    20.9177053662
  - # 6
    frequency:    20.9305496076
  - # 7
    frequency:    38.9714653159
  - # 8
    frequency:    39.2280122302
  - # 9
    frequency:    39.2807208710
  - # 10
    frequency:    39.3747401303
  - # 11
    frequency:    42.0834673916
  - # 12
    frequency:    42.1872372812

- q-position: [   -0.4444444,    0.4444444,    0.1250000 ]
  weight: 4    
  band:
  - # 1
    frequency:    14.5110328269
  - # 2
    frequency:    16.5848730603
  - # 3
    frequency:    18.0943221596
  - # 4
    frequency:    18.4412544400
  - # 5
    frequency:    19.2111458679
  - # 6
    frequency:    20.1572538404
  - # 7
    frequency:    37.1550724722
  - # 8
    frequency:    37.4574504686
  - # 9
    frequency:    41.5230693701
  - # 10
    frequency:    41.7091046354
  - # 11
    frequency:    41.9095931478
  - # 12
    frequency:    42.2273452603

- q-position: [    0.0000000,    0.0000000,    0.3750000 ]
  weight: 2    
  band:
  - # 1
    frequency:    -6.4481082804
  - # 2
    frequency:    -5.5489286243
  - # 3
    frequency:    -3.3684472495
  - # 4
    frequency:    -3.3590980051
  - # 5
    frequency:     6.2285432245
  - # 6
    frequency:     9.1902248022
  - # 7
    frequency:    24.0431240953
  - # 8
    frequency:    26.4048669548
  - # 9
    frequency:    46.0130659471
  - # 10
    frequency:    46.2387585943
  - # 11
    frequency:    46.7617140015
  - # 12
    frequency:    46.8298641171

- q-position: [    0.1111111,    0.0000000,    0.3750000 ]
  weight: 8    
  band:
  - # 1
    frequency:     1.8379521472
  - # 2
    frequency:     5.0019980678
  - # 3
    frequency:     7.4705860684
  - # 4
    frequency:     9.4952914730
  - # 5
    frequency:    10.1806314425
  - # 6
    frequency:    11.0142448277
  - # 7
    frequency:    23.6408241311
  - # 8
    frequency:    25.8147746933
  - # 9
    frequency:    45.6900373083
  - # 10
    frequency:    46.0469610178
  - # 11
    frequency:    46.3000686766
  - # 12
    frequency:    46.6663755275

- q-position: [    0.2222222,    0.0000000,    0.3750000 ]
  weight: 8    
  band:
  - # 1
    frequency:    10.1564939551
  - # 2
    frequency:    10.2024699270
  - # 3
    frequency:    11.0715724583
  - # 4
    frequency:    12.0373135226
  - # 5
    frequency:    21.1319979077
  - # 6
    frequency:    21.7863120099
  - # 7
    frequency:    22.5529983551
  - # 8
    frequency:    24.2002951105
  - # 9
    frequency:    44.4390244866
  - # 10
    frequency:    44.9111446110
  - # 11
    frequency:    45.6918715130
  - # 12
    frequency:    46.1501616972

- q-position: [    0.3333333,    0.0000000,    0.3750000 ]
  weight: 8    
  band:
  - # 1
    frequency:    12.9695249944
  - # 2
    frequency:    14.2599343858
  - # 3
    frequency:    15.2750307140
  - # 4
    frequency:    15.6947187813
  - # 5
    frequency:    21.0045453526
  - # 6
    frequency:    21.9644460247
  - # 7
    frequency:    30.3242187147
  - # 8
    frequency:    30.7446885294
  - # 9
    frequency:    42.7990083300
  - # 10
    frequency:    43.1002343716
  - # 11
    frequency:    44.5601758831
  - # 12
    frequency:    44.7832055026

- q-position: [    0.4444444,    0.0000000,    0.3750000 ]
  weight: 8    
  band:
  - # 1
    frequency:    15.2556407498
  - # 2
    frequency:    15.9845889667
  - # 3
    frequency:    18.2272113719
  - # 4
    frequency:    18.3543158159
  - # 5
    frequency:    19.5023560781
  - # 6
    frequency:    19.9174543394
  - # 7
    frequency:    37.2651475162
  - # 8
    frequency:    37.4939941377
  - # 9
    frequency:    41.5725029080
  - # 10
    frequency:    41.7055444483
  - # 11
    frequency:    41.9907542442
  - # 12
    frequency:    42.0170220920

- q-position: [    0.1111111,    0.1111111,    0.3750000 ]
  weight: 4    
  band:
  - # 1
    frequency:     9.3557352651
  - # 2
    frequency:     9.7337543507
  - # 3
    frequency:    10.3897024518
  - # 4
    frequency:    11.5889082273
  - # 5
    frequency:    17.9790290982
  - # 6
    frequency:    18.8373918277
  - # 7
    frequency:    22.8053302578
  - # 8
    frequency:    24.6105518717
  - # 9
    frequency:    44.9277773695
  - # 10
    frequency:    45.3941478855
  - # 11
    frequency:    45.6806892743
  - # 12
    frequency:    46.2634831468

- q-position: [    0.2222222,    0.1111111,    0.3750000 ]
  weight: 8    
  band:
  - # 1
    frequency:    12.3898288652
  - # 2
    frequency:    13.6947666561
  - # 3
    frequency:    15.2201129487
  - # 4
    frequency:    15.8509726923
  - # 5
    frequency:    21.4107943703
  - # 6
    frequency:    22.5867304158
  - # 7
    frequency:    26.6103161894
  - # 8
    frequency:    27.1873483964
  - # 9
    frequency:    43.5942053911
  - # 10
    frequency:    43.9406075497
  - # 11
    frequency:    44.7872821636
  - # 12
    frequency:    45.1741812644

- q-position: [    0.3333333,    0.1111111,    0.3750000 ]
  weight: 8    
  band:
  - # 1
    frequency:    14.8265088887
  - # 2
    frequency:    15.6412027572
  - # 3
    frequency:    19.3205749189
  - # 4
    frequency:    19.7180602783
  - # 5
    frequency:    19.8571043346
  - # 6
    frequency:    20.3507119613
  - # 7
    frequency:    33.8228717463
  - # 8
    frequency:    34.2058566065
  - # 9
    frequency:    42.0858754084
  - # 10
    frequency:    42.3165672928
  - # 11
    frequency:    43.0572858230
  - # 12
    frequency:    43.1917398464

- q-position: [   -0.5555556,    0.1111111,    0.3750000 ]
  weight: 8    
  band:
  - # 1
    frequency:    15.8680094787
  - # 2
    frequency:    16.4655785749
  - # 3
    frequency:    19.0326878175
  - # 4
    frequency:    19.2849087799
  - # 5
    frequency:    20.8415126640
  - # 6
    frequency:    21.0596594658
  - # 7
    frequency:    39.0646938584
  - # 8
    frequency:    39.1537503407
  - # 9
    frequency:    39.2611636238
  - # 10
    frequency:    39.3620646955
  - # 11
    frequency:    42.1137168704
  - # 12
    frequency:    42.1253602209

- q-position: [   -0.4444444,    0.1111111,    0.3750000 ]
  weight: 8    
  band:
  - # 1
    frequency:    14.0614223154
  - # 2
    frequency:    15.2444852099
  - # 3
    frequency:    19.2860103294
  - # 4
    frequency:    19.3102806467
  - # 5
    frequency:    20.2333846372
  - # 6
    frequency:    20.8015891282
  - # 7
    frequency:    33.7802218052
  - # 8
    frequency:    33.9648327497
  - # 9
    frequency:    42.2456033892
  - # 10
    frequency:    42.3885794198
  - # 11
    frequency:    43.2024930133
  - # 12
    frequency:    43.2518875285

- q-position: [   -0.3333333,    0.1111111,    0.3750000 ]
  weight: 8    
  band:
  - # 1
    frequency:    11.4960615949
  - # 2
    frequency:    13.2351518692
  - # 3
    frequency:    15.0296575586
  - # 4
    frequency:    15.2816618611
  - # 5
    frequency:    21.7577897024
  - # 6
    frequency:    22.9952602149
  - # 7
    frequency:    26.5993040191
  - # 8
    frequency:    26.8907133593
  - # 9
    frequency:    43.7035992639
  - # 10
    frequency:    44.0433591988
  - # 11
    frequency:    44.9745345935
  - # 12
    frequency:    45.2279932882

- q-position: [   -0.2222222,    0.1111111,    0.3750000 ]
  weight: 8    
  band:
  - # 1
    frequency:     8.7483248238
  - # 2
    frequency:     9.0673737647
  - # 3
    frequency:     9.8319784968
  - # 4
    frequency:    11.2125533770
  - # 5
    frequency:    18.0824782964
  - # 6
    frequency:    18.4779411909
  - # 7
    frequency:    23.0343586219
  - # 8
    frequency:    24.8792083534
  - # 9
    frequency:    44.8950046230
  - # 10
    frequency:    45.4246903968
  - # 11
    frequency:    45.9119335203
  - # 12
    frequency:    46.3529387932

- q-position: [   -0.1111111,    0.1111111,    0.3750000 ]
  weight: 4    
  band:
  - # 1
    frequency:    -1.8935906648
  - # 2
    frequency:     4.7465276693
  - # 3
    frequency:     7.0963280739
  - # 4
    frequency:     9.6074521970
  - # 5
    frequency:    10.1878740447
  - # 6
    frequency:    10.7124953064
  - # 7
    frequency:    23.7205777488
  - # 8
    frequency:    25.9080594361
  - # 9
    frequency:    45.5886102516
  - # 10
    frequency:    46.2185011860
  - # 11
    frequency:    46.2562458028
  - # 12
    frequency:    46.7527129726

- q-position: [    0.2222222,    0.2222222,    0.3750000 ]
  weight: 4    
  band:
  - # 1
    frequency:    14.6751916149
  - # 2
    frequency:    15.5175572591
  - # 3
    frequency:    19.9544775662
  - # 4
    frequency:    20.4901920566
  - # 5
    frequency:    21.2541192563
  - # 6
    frequency:    21.6352061172
  - # 7
    frequency:    31.5323064338
  - # 8
    frequency:    31.9179249270
  - # 9
    frequency:    42.6796416072
  - # 10
    frequency:    42.9598492232
  - # 11
    frequency:    43.0300300463
  - # 12
    frequency:    43.2117957543

- q-position: [    0.3333333,    0.2222222,    0.3750000 ]
  weight: 8    
  band:
  - # 1
    frequency:    16.4266911835
  - # 2
    frequency:    16.9347907007
  - # 3
    frequency:    18.6168965150
  - # 4
    frequency:    18.6702207556
  - # 5
    frequency:    25.1950810658
  - # 6
    frequency:    25.4735747202
  - # 7
    frequency:    35.6593892962
  - # 8
    frequency:    35.8842657534
  - # 9
    frequency:    39.5161735533
  - # 10
    frequency:    39.6196553079
  - # 11
    frequency:    42.8744688801
  - # 12
    frequency:    42.8839961434

- q-position: [   -0.5555556,    0.2222222,    0.3750000 ]
  weight: 8    
  band:
  - # 1
    frequency:    15.5498241541
  - # 2
    frequency:    16.4770630309
  - # 3
    frequency:    19.1706227284
  - # 4
    frequency:    19.2618074077
  - # 5
    frequency:    25.0484880088
  - # 6
    frequency:    25.2685735964
  - # 7
    frequency:    35.6235951300
  - # 8
    frequency:    35.6608696670
  - # 9
    frequency:    39.6782230163
  - # 10
    frequency:    39.7756253022
  - # 11
    frequency:    42.9168847357
  - # 12
    frequency:    42.9705572646

- q-position: [   -0.4444444,    0.2222222,    0.3750000 ]
  weight: 8    
  band:
  - # 1
    frequency:    13.4511312042
  - # 2
    frequency:    14.8728484533
  - # 3
    frequency:    20.5523587421
  - # 4
    frequency:    20.9900112534
  - # 5
    frequency:    21.1048788655
  - # 6
    frequency:    21.2587635099
  - # 7
    frequency:    31.4906594624
  - # 8
    frequency:    31.5549139441
  - # 9
    frequency:    42.9905613486
  - # 10
    frequency:    43.0226380498
  - # 11
    frequency:    43.2148238260
  - # 12
    frequency:    43.3189780115

- q-position: [   -0.3333333,    0.2222222,    0.3750000 ]
  weight: 8    
  band:
  - # 1
    frequency:    11.1931524556
  - # 2
    frequency:    13.0971941072
  - # 3
    frequency:    14.9520777236
  - # 4
    frequency:    15.3311564418
  - # 5
    frequency:    21.8709454336
  - # 6
    frequency:    23.1180841423
  - # 7
    frequency:    26.6183948313
  - # 8
    frequency:    26.6596127003
  - # 9
    frequency:    43.6845080611
  - # 10
    frequency:    43.9696738646
  - # 11
    frequency:    45.0780223150
  - # 12
    frequency:    45.3486855970

- q-position: [   -0.2222222,    0.2222222,    0.3750000 ]
  weight: 4    
  band:
  - # 1
    frequency:     9.3502943179
  - # 2
    frequency:     9.9394543552
  - # 3
    frequency:    10.7838173183
  - # 4
    frequency:    11.6567918363
  - # 5
    frequency:    21.1567596397
  - # 6
    frequency:    21.3403249199
  - # 7
    frequency:    22.7926311538
  - # 8
    frequency:    24.4832647155
  - # 9
    frequency:    44.4177317309
  - # 10
    frequency:    44.8687243371
  - # 11
    frequency:    45.9197129092
  - # 12
    frequency:    46.3095013056

- q-position: [   -0.6666667,    0.3333333,    0.3750000 ]
  weight: 4    
  band:
  - # 1
    frequency:    16.8739687662
  - # 2
    frequency:    17.4460434442
  - # 3
    frequency:    18.0895785317
  - # 4
    frequency:    18.0989626986
  - # 5
    frequency:    28.7725407543
  - # 6
    frequency:    28.7975926861
  - # 7
    frequency:    36.5606471233
  - # 8
    frequency:    36.5653234627
  - # 9
    frequency:    36.8014415298
  - # 10
    frequency:    36.8244543170
  - # 11
    frequency:    43.1257449604
  - # 12
    frequency:    43.1978087548

- q-position: [   -0.5555556,    0.3333333,    0.3750000 ]
  weight: 8    
  band:
  - # 1
    frequency:    15.5673458273
  - # 2
    frequency:    16.4376051739
  - # 3
    frequency:    19.1376576381
  - # 4
    frequency:    19.3159316492
  - # 5
    frequency:    25.0646768866
  - # 6
    frequency:    25.1859215127
  - # 7
    frequency:    35.6434327438
  - # 8
    frequency:    35.7201705663
  - # 9
    frequency:    39.6822225554
  - # 10
    frequency:    39.7445876177
  - # 11
    frequency:    42.9192778344
  - # 12
    frequency:    42.9660343978

- q-position: [   -0.4444444,    0.3333333,    0.3750000 ]
  weight: 8    
  band:
  - # 1
    frequency:    13.9038365647
  - # 2
    frequency:    15.1895173596
  - # 3
    frequency:    19.1994135386
  - # 4
    frequency:    19.4296884623
  - # 5
    frequency:    20.3205907458
  - # 6
    frequency:    20.8662637590
  - # 7
    frequency:    33.7566716507
  - # 8
    frequency:    33.8575729416
  - # 9
    frequency:    42.2485828007
  - # 10
    frequency:    42.3064973737
  - # 11
    frequency:    43.2361900695
  - # 12
    frequency:    43.3818111986

- q-position: [   -0.3333333,    0.3333333,    0.3750000 ]
  weight: 4    
  band:
  - # 1
    frequency:    12.2166943351
  - # 2
    frequency:    13.9076716911
  - # 3
    frequency:    15.1629863410
  - # 4
    frequency:    15.5462431437
  - # 5
    frequency:    21.3276273254
  - # 6
    frequency:    22.3112314912
  - # 7
    frequency:    30.2771162976
  - # 8
    frequency:    30.3703865799
  - # 9
    frequency:    42.8567626871
  - # 10
    frequency:    43.0387927931
  - # 11
    frequency:    44.7494353662
  - # 12
    frequency:    44.9740637020

- q-position: [   -0.5555556,    0.4444444,    0.3750000 ]
  weight: 4    
  band:
  - # 1
    frequency:    15.7961619101
  - # 2
    frequency:    16.3713656708
  - # 3
    frequency:    19.0784950417
  - # 4
    frequency:    19.3831958236
  - # 5
    frequency:    20.9039814410
  - # 6
    frequency:    20.9089689177
  - # 7
    frequency:    39.0912127132
  - # 8
    frequency:    39.2069303356
  - # 9
    frequency:    39.2713809036
  - # 10
    frequency:    39.3013158333
  - # 11
    frequency:    42.1057612465
  - # 12
    frequency:    42.1492091229

- q-position: [   -0.4444444,    0.4444444,    0.3750000 ]
  weight: 4    
  band:
  - # 1
    frequency:    15.0332539166
  - # 2
    frequency:    15.9144915791
  - # 3
    frequency:    18.2004004877
  - # 4
    frequency:    18.3440364241
  - # 5
    frequency:    19.6361969690
  - # 6
    frequency:    20.0160074921
  - # 7
    frequency:    37.2373576007
  - # 8
    frequency:    37.3622527140
  - # 9
    frequency:    41.5931988000
  - # 10
    frequency:    41.6701694373
  - # 11
    frequency:    42.0235027641
  - # 12
    frequency:    42.1552415354

