       N       E                     dE             d eps       ncg     rms          rms(c)
DAV:   1     0.364045532569E+02    0.36405E+02   -0.96327E+03 10928   0.146E+03
DAV:   2    -0.315680746066E+02   -0.67973E+02   -0.62072E+02 15084   0.230E+02
DAV:   3    -0.339927350201E+02   -0.24247E+01   -0.23940E+01 13836   0.410E+01
DAV:   4    -0.340124421529E+02   -0.19707E-01   -0.19801E-01 13104   0.410E+00
DAV:   5    -0.340127509215E+02   -0.30877E-03   -0.31141E-03 13860   0.435E-01    0.773E+00
DAV:   6    -0.326954309709E+02    0.13173E+01   -0.10122E+00 11744   0.830E+00    0.408E+00
DAV:   7    -0.322667033308E+02    0.42873E+00   -0.96717E-01 12148   0.830E+00    0.527E-01
DAV:   8    -0.322686011420E+02   -0.18978E-02   -0.12081E-02 13792   0.102E+00    0.240E-01
DAV:   9    -0.322688623685E+02   -0.26123E-03   -0.83367E-04 12444   0.317E-01    0.210E-02
DAV:  10    -0.322688613261E+02    0.10423E-05   -0.13848E-05 13704   0.380E-02    0.859E-03
DAV:  11    -0.322688677462E+02   -0.64201E-05   -0.48068E-06 12272   0.249E-02    0.919E-04
DAV:  12    -0.322688674136E+02    0.33266E-06   -0.58757E-08  7428   0.221E-03
   1 F= -.32739216E+02 E0= -.32739216E+02  d E =-.327392E+02
