# Thermal properties / unit cell (natom)

unit:
  temperature:   K
  free_energy:   kJ/mol
  entropy:       J/K/mol
  heat_capacity: J/K/mol

natom:     4
num_modes: 3888
num_integrated_modes: 3874

zero_point_energy:      62.9240536
high_T_entropy:        234.7913383

thermal_properties:
- temperature:         0.0000000
  free_energy:        62.9240536
  entropy:             0.0000000
  heat_capacity:       0.0000000
  energy:             62.9240536

- temperature:        10.0000000
  free_energy:        62.9240249
  entropy:             0.0127430
  heat_capacity:       0.0379721
  energy:             62.9241523

- temperature:        20.0000000
  free_energy:        62.9236139
  entropy:             0.0782893
  heat_capacity:       0.1810035
  energy:             62.9251797

- temperature:        30.0000000
  free_energy:        62.9223159
  entropy:             0.1869021
  heat_capacity:       0.3733583
  energy:             62.9279230

- temperature:        40.0000000
  free_energy:        62.9197747
  entropy:             0.3266026
  heat_capacity:       0.6251717
  energy:             62.9328388

- temperature:        50.0000000
  free_energy:        62.9156593
  entropy:             0.5039472
  heat_capacity:       1.0052473
  energy:             62.9408566

- temperature:        60.0000000
  free_energy:        62.9095204
  entropy:             0.7338390
  heat_capacity:       1.5660286
  energy:             62.9535507

- temperature:        70.0000000
  free_energy:        62.9007624
  entropy:             1.0295671
  heat_capacity:       2.3223023
  energy:             62.9728321

- temperature:        80.0000000
  free_energy:        62.8886827
  entropy:             1.3990101
  heat_capacity:       3.2601795
  energy:             63.0006035

- temperature:        90.0000000
  free_energy:        62.8725276
  entropy:             1.8446985
  heat_capacity:       4.3524450
  energy:             63.0385505

- temperature:       100.0000000
  free_energy:        62.8515388
  entropy:             2.3652977
  heat_capacity:       5.5696741
  energy:             63.0880685

- temperature:       110.0000000
  free_energy:        62.8249840
  entropy:             2.9571685
  heat_capacity:       6.8856293
  energy:             63.1502725

- temperature:       120.0000000
  free_energy:        62.7921737
  entropy:             3.6155351
  heat_capacity:       8.2787686
  energy:             63.2260379

- temperature:       130.0000000
  free_energy:        62.7524689
  entropy:             4.3352199
  heat_capacity:       9.7319004
  energy:             63.3160475

- temperature:       140.0000000
  free_energy:        62.7052822
  entropy:             5.1110547
  heat_capacity:      11.2312874
  energy:             63.4208298

- temperature:       150.0000000
  free_energy:        62.6500772
  entropy:             5.9380860
  heat_capacity:      12.7657934
  energy:             63.5407901

- temperature:       160.0000000
  free_energy:        62.5863653
  entropy:             6.8116668
  heat_capacity:      14.3262475
  energy:             63.6762320

- temperature:       170.0000000
  free_energy:        62.5137031
  entropy:             7.7274873
  heat_capacity:      15.9050103
  energy:             63.8273759

- temperature:       180.0000000
  free_energy:        62.4316881
  entropy:             8.6815764
  heat_capacity:      17.4956787
  energy:             63.9943718

- temperature:       190.0000000
  free_energy:        62.3399562
  entropy:             9.6702893
  heat_capacity:      19.0928698
  energy:             64.1773111

- temperature:       200.0000000
  free_energy:        62.2381780
  entropy:            10.6902886
  heat_capacity:      20.6920483
  energy:             64.3762357

- temperature:       210.0000000
  free_energy:        62.1260563
  entropy:            11.7385217
  heat_capacity:      22.2893786
  energy:             64.5911459

- temperature:       220.0000000
  free_energy:        62.0033228
  entropy:            12.8121974
  heat_capacity:      23.8815950
  energy:             64.8220062

- temperature:       230.0000000
  free_energy:        61.8697361
  entropy:            13.9087619
  heat_capacity:      25.4658903
  energy:             65.0687513

- temperature:       240.0000000
  free_energy:        61.7250791
  entropy:            15.0258765
  heat_capacity:      27.0398211
  energy:             65.3312894

- temperature:       250.0000000
  free_energy:        61.5691572
  entropy:            16.1613951
  heat_capacity:      28.6012323
  energy:             65.6095060

- temperature:       260.0000000
  free_energy:        61.4017964
  entropy:            17.3133442
  heat_capacity:      30.1481981
  energy:             65.9032659

- temperature:       270.0000000
  free_energy:        61.2228416
  entropy:            18.4799049
  heat_capacity:      31.6789787
  energy:             66.2124160

- temperature:       280.0000000
  free_energy:        61.0321552
  entropy:            19.6593965
  heat_capacity:      33.1919902
  energy:             66.5367863

- temperature:       290.0000000
  free_energy:        60.8296158
  entropy:            20.8502617
  heat_capacity:      34.6857840
  energy:             66.8761917

- temperature:       300.0000000
  free_energy:        60.6151169
  entropy:            22.0510550
  heat_capacity:      36.1590352
  energy:             67.2304334

- temperature:       310.0000000
  free_energy:        60.3885661
  entropy:            23.2604316
  heat_capacity:      37.6105353
  energy:             67.5992999

- temperature:       320.0000000
  free_energy:        60.1498839
  entropy:            24.4771378
  heat_capacity:      39.0391892
  energy:             67.9825680

- temperature:       330.0000000
  free_energy:        59.8990028
  entropy:            25.7000043
  heat_capacity:      40.4440134
  energy:             68.3800042

- temperature:       340.0000000
  free_energy:        59.6358669
  entropy:            26.9279382
  heat_capacity:      41.8241363
  energy:             68.7913659

- temperature:       350.0000000
  free_energy:        59.3604306
  entropy:            28.1599185
  heat_capacity:      43.1787970
  energy:             69.2164021

- temperature:       360.0000000
  free_energy:        59.0726582
  entropy:            29.3949904
  heat_capacity:      44.5073445
  energy:             69.6548548

- temperature:       370.0000000
  free_energy:        58.7725235
  entropy:            30.6322612
  heat_capacity:      45.8092366
  energy:             70.1064601

- temperature:       380.0000000
  free_energy:        58.4600085
  entropy:            31.8708967
  heat_capacity:      47.0840364
  energy:             70.5709492

- temperature:       390.0000000
  free_energy:        58.1351036
  entropy:            33.1101175
  heat_capacity:      48.3314095
  energy:             71.0480494

- temperature:       400.0000000
  free_energy:        57.7978066
  entropy:            34.3491964
  heat_capacity:      49.5511193
  energy:             71.5374852

- temperature:       410.0000000
  free_energy:        57.4481224
  entropy:            35.5874554
  heat_capacity:      50.7430220
  energy:             72.0389791

- temperature:       420.0000000
  free_energy:        57.0860623
  entropy:            36.8242628
  heat_capacity:      51.9070610
  energy:             72.5522527

- temperature:       430.0000000
  free_energy:        56.7116439
  entropy:            38.0590316
  heat_capacity:      53.0432610
  energy:             73.0770275

- temperature:       440.0000000
  free_energy:        56.3248903
  entropy:            39.2912162
  heat_capacity:      54.1517213
  energy:             73.6130255

- temperature:       450.0000000
  free_energy:        55.9258299
  entropy:            40.5203113
  heat_capacity:      55.2326096
  energy:             74.1599700

- temperature:       460.0000000
  free_energy:        55.5144960
  entropy:            41.7458490
  heat_capacity:      56.2861559
  energy:             74.7175865

- temperature:       470.0000000
  free_energy:        55.0909262
  entropy:            42.9673972
  heat_capacity:      57.3126452
  energy:             75.2856029

- temperature:       480.0000000
  free_energy:        54.6551626
  entropy:            44.1845577
  heat_capacity:      58.3124123
  energy:             75.8637503

- temperature:       490.0000000
  free_energy:        54.2072509
  entropy:            45.3969642
  heat_capacity:      59.2858352
  energy:             76.4517634

- temperature:       500.0000000
  free_energy:        53.7472403
  entropy:            46.6042806
  heat_capacity:      60.2333297
  energy:             77.0493806

- temperature:       510.0000000
  free_energy:        53.2751833
  entropy:            47.8061994
  heat_capacity:      61.1553440
  energy:             77.6563450

- temperature:       520.0000000
  free_energy:        52.7911353
  entropy:            49.0024401
  heat_capacity:      62.0523536
  energy:             78.2724041

- temperature:       530.0000000
  free_energy:        52.2951543
  entropy:            50.1927474
  heat_capacity:      62.9248567
  energy:             78.8973104

- temperature:       540.0000000
  free_energy:        51.7873009
  entropy:            51.3768897
  heat_capacity:      63.7733703
  energy:             79.5308213

- temperature:       550.0000000
  free_energy:        51.2676377
  entropy:            52.5546579
  heat_capacity:      64.5984257
  energy:             80.1726996

- temperature:       560.0000000
  free_energy:        50.7362296
  entropy:            53.7258640
  heat_capacity:      65.4005654
  energy:             80.8227134

- temperature:       570.0000000
  free_energy:        50.1931429
  entropy:            54.8903394
  heat_capacity:      66.1803394
  energy:             81.4806364

- temperature:       580.0000000
  free_energy:        49.6384457
  entropy:            56.0479341
  heat_capacity:      66.9383031
  energy:             82.1462475

- temperature:       590.0000000
  free_energy:        49.0722076
  entropy:            57.1985152
  heat_capacity:      67.6750140
  energy:             82.8193316

- temperature:       600.0000000
  free_energy:        48.4944992
  entropy:            58.3419660
  heat_capacity:      68.3910295
  energy:             83.4996788

- temperature:       610.0000000
  free_energy:        47.9053924
  entropy:            59.4781847
  heat_capacity:      69.0869055
  energy:             84.1870850

- temperature:       620.0000000
  free_energy:        47.3049599
  entropy:            60.6070834
  heat_capacity:      69.7631937
  energy:             84.8813516

- temperature:       630.0000000
  free_energy:        46.6932754
  entropy:            61.7285874
  heat_capacity:      70.4204409
  energy:             85.5822854

- temperature:       640.0000000
  free_energy:        46.0704130
  entropy:            62.8426340
  heat_capacity:      71.0591872
  energy:             86.2896988

- temperature:       650.0000000
  free_energy:        45.4364477
  entropy:            63.9491717
  heat_capacity:      71.6799648
  energy:             87.0034093

- temperature:       660.0000000
  free_energy:        44.7914548
  entropy:            65.0481594
  heat_capacity:      72.2832975
  energy:             87.7232399

- temperature:       670.0000000
  free_energy:        44.1355098
  entropy:            66.1395657
  heat_capacity:      72.8696995
  energy:             88.4490188

- temperature:       680.0000000
  free_energy:        43.4686888
  entropy:            67.2233682
  heat_capacity:      73.4396746
  energy:             89.1805792

- temperature:       690.0000000
  free_energy:        42.7910678
  entropy:            68.2995527
  heat_capacity:      73.9937162
  energy:             89.9177592

- temperature:       700.0000000
  free_energy:        42.1027232
  entropy:            69.3681126
  heat_capacity:      74.5323065
  energy:             90.6604020

- temperature:       710.0000000
  free_energy:        41.4037310
  entropy:            70.4290484
  heat_capacity:      75.0559161
  energy:             91.4083554

- temperature:       720.0000000
  free_energy:        40.6941676
  entropy:            71.4823671
  heat_capacity:      75.5650040
  energy:             92.1614719

- temperature:       730.0000000
  free_energy:        39.9741090
  entropy:            72.5280816
  heat_capacity:      76.0600173
  energy:             92.9196086

- temperature:       740.0000000
  free_energy:        39.2436312
  entropy:            73.5662102
  heat_capacity:      76.5413912
  energy:             93.6826268

- temperature:       750.0000000
  free_energy:        38.5028100
  entropy:            74.5967764
  heat_capacity:      77.0095489
  energy:             94.4503923

- temperature:       760.0000000
  free_energy:        37.7517208
  entropy:            75.6198082
  heat_capacity:      77.4649016
  energy:             95.2227751

- temperature:       770.0000000
  free_energy:        36.9904388
  entropy:            76.6353379
  heat_capacity:      77.9078487
  energy:             95.9996490

- temperature:       780.0000000
  free_energy:        36.2190389
  entropy:            77.6434013
  heat_capacity:      78.3387778
  energy:             96.7808920

- temperature:       790.0000000
  free_energy:        35.4375956
  entropy:            78.6440382
  heat_capacity:      78.7580646
  energy:             97.5663858

- temperature:       800.0000000
  free_energy:        34.6461828
  entropy:            79.6372911
  heat_capacity:      79.1660737
  energy:             98.3560157

- temperature:       810.0000000
  free_energy:        33.8448742
  entropy:            80.6232057
  heat_capacity:      79.5631582
  energy:             99.1496708

- temperature:       820.0000000
  free_energy:        33.0337430
  entropy:            81.6018300
  heat_capacity:      79.9496601
  energy:             99.9472436

- temperature:       830.0000000
  free_energy:        32.2128617
  entropy:            82.5732146
  heat_capacity:      80.3259108
  energy:            100.7486299

- temperature:       840.0000000
  free_energy:        31.3823026
  entropy:            83.5374120
  heat_capacity:      80.6922307
  energy:            101.5537287

- temperature:       850.0000000
  free_energy:        30.5421373
  entropy:            84.4944766
  heat_capacity:      81.0489302
  energy:            102.3624424

- temperature:       860.0000000
  free_energy:        29.6924367
  entropy:            85.4444646
  heat_capacity:      81.3963093
  energy:            103.1746762

- temperature:       870.0000000
  free_energy:        28.8332714
  entropy:            86.3874334
  heat_capacity:      81.7346585
  energy:            103.9903385

- temperature:       880.0000000
  free_energy:        27.9647112
  entropy:            87.3234421
  heat_capacity:      82.0642584
  energy:            104.8093402

- temperature:       890.0000000
  free_energy:        27.0868256
  entropy:            88.2525504
  heat_capacity:      82.3853804
  energy:            105.6315954

- temperature:       900.0000000
  free_energy:        26.1996830
  entropy:            89.1748194
  heat_capacity:      82.6982870
  energy:            106.4570205

- temperature:       910.0000000
  free_energy:        25.3033518
  entropy:            90.0903108
  heat_capacity:      83.0032318
  energy:            107.2855346

- temperature:       920.0000000
  free_energy:        24.3978992
  entropy:            90.9990872
  heat_capacity:      83.3004600
  energy:            108.1170594

- temperature:       930.0000000
  free_energy:        23.4833922
  entropy:            91.9012115
  heat_capacity:      83.5902084
  energy:            108.9515189

- temperature:       940.0000000
  free_energy:        22.5598969
  entropy:            92.7967473
  heat_capacity:      83.8727059
  energy:            109.7888394

- temperature:       950.0000000
  free_energy:        21.6274790
  entropy:            93.6857585
  heat_capacity:      84.1481737
  energy:            110.6289496

- temperature:       960.0000000
  free_energy:        20.6862033
  entropy:            94.5683092
  heat_capacity:      84.4168257
  energy:            111.4717801

- temperature:       970.0000000
  free_energy:        19.7361341
  entropy:            95.4444638
  heat_capacity:      84.6788682
  energy:            112.3172640

- temperature:       980.0000000
  free_energy:        18.7773351
  entropy:            96.3142868
  heat_capacity:      84.9345008
  energy:            113.1653361

- temperature:       990.0000000
  free_energy:        17.8098693
  entropy:            97.1778425
  heat_capacity:      85.1839164
  energy:            114.0159333

- temperature:      1000.0000000
  free_energy:        16.8337989
  entropy:            98.0351954
  heat_capacity:      85.4273011
  energy:            114.8689944
