# Thermal properties / unit cell (natom)

unit:
  temperature:   K
  free_energy:   kJ/mol
  entropy:       J/K/mol
  heat_capacity: J/K/mol

natom:     4
num_modes: 3888
num_integrated_modes: 2670

zero_point_energy:      22.4277325
high_T_entropy:        201.6431041

thermal_properties:
- temperature:         0.0000000
  free_energy:        22.4277325
  entropy:             0.0000000
  heat_capacity:       0.0000000
  energy:             22.4277325

- temperature:        10.0000000
  free_energy:        22.4277269
  entropy:             0.0044427
  heat_capacity:       0.0271161
  energy:             22.4277713

- temperature:        20.0000000
  free_energy:        22.4273374
  entropy:             0.0939242
  heat_capacity:       0.2933858
  energy:             22.4292159

- temperature:        30.0000000
  free_energy:        22.4255300
  entropy:             0.2793932
  heat_capacity:       0.6558816
  energy:             22.4339118

- temperature:        40.0000000
  free_energy:        22.4215448
  entropy:             0.5275242
  heat_capacity:       1.1129001
  energy:             22.4426458

- temperature:        50.0000000
  free_energy:        22.4147691
  entropy:             0.8390890
  heat_capacity:       1.7354536
  energy:             22.4567235

- temperature:        60.0000000
  free_energy:        22.4045105
  entropy:             1.2264648
  heat_capacity:       2.5805279
  energy:             22.4780984

- temperature:        70.0000000
  free_energy:        22.3899394
  entropy:             1.7038768
  heat_capacity:       3.6878146
  energy:             22.5092108

- temperature:        80.0000000
  free_energy:        22.3700912
  entropy:             2.2836849
  heat_capacity:       5.0736208
  energy:             22.5527860

- temperature:        90.0000000
  free_energy:        22.3438958
  entropy:             2.9743127
  heat_capacity:       6.7289270
  energy:             22.6115839

- temperature:       100.0000000
  free_energy:        22.3102228
  entropy:             3.7794144
  heat_capacity:       8.6236995
  energy:             22.6881643

- temperature:       110.0000000
  free_energy:        22.2679287
  entropy:             4.6980187
  heat_capacity:      10.7141223
  energy:             22.7847108

- temperature:       120.0000000
  free_energy:        22.2159000
  entropy:             5.7252618
  heat_capacity:      12.9499519
  energy:             22.9029314

- temperature:       130.0000000
  free_energy:        22.1530871
  entropy:             6.8533704
  heat_capacity:      15.2805327
  energy:             23.0440252

- temperature:       140.0000000
  free_energy:        22.0785285
  entropy:             8.0726597
  heat_capacity:      17.6589714
  energy:             23.2087009

- temperature:       150.0000000
  free_energy:        21.9913656
  entropy:             9.3724134
  heat_capacity:      20.0445505
  energy:             23.3972276

- temperature:       160.0000000
  free_energy:        21.8908489
  entropy:            10.7415890
  heat_capacity:      22.4037398
  energy:             23.6095031

- temperature:       170.0000000
  free_energy:        21.7763387
  entropy:            12.1693374
  heat_capacity:      24.7102286
  energy:             23.8451260

- temperature:       180.0000000
  free_energy:        21.6473013
  entropy:            13.6453587
  heat_capacity:      26.9443649
  energy:             24.1034659

- temperature:       190.0000000
  free_energy:        21.5033025
  entropy:            15.1601209
  heat_capacity:      29.0922910
  energy:             24.3837254

- temperature:       200.0000000
  free_energy:        21.3439987
  entropy:            16.7049756
  heat_capacity:      31.1449791
  energy:             24.6849938

- temperature:       210.0000000
  free_energy:        21.1691285
  entropy:            18.2721980
  heat_capacity:      33.0972891
  energy:             25.0062901

- temperature:       220.0000000
  free_energy:        20.9785030
  entropy:            19.8549761
  heat_capacity:      34.9471164
  energy:             25.3465977

- temperature:       230.0000000
  free_energy:        20.7719970
  entropy:            21.4473663
  heat_capacity:      36.6946584
  energy:             25.7048913

- temperature:       240.0000000
  free_energy:        20.5495408
  entropy:            23.0442304
  heat_capacity:      38.3418053
  energy:             26.0801561

- temperature:       250.0000000
  free_energy:        20.3111123
  entropy:            24.6411627
  heat_capacity:      39.8916489
  energy:             26.4714029

- temperature:       260.0000000
  free_energy:        20.0567299
  entropy:            26.2344146
  heat_capacity:      41.3480936
  energy:             26.8776777

- temperature:       270.0000000
  free_energy:        19.7864468
  entropy:            27.8208197
  heat_capacity:      42.7155563
  energy:             27.2980682

- temperature:       280.0000000
  free_energy:        19.5003452
  entropy:            29.3977238
  heat_capacity:      43.9987381
  energy:             27.7317079

- temperature:       290.0000000
  free_energy:        19.1985314
  entropy:            30.9629194
  heat_capacity:      45.2024540
  energy:             28.1777781

- temperature:       300.0000000
  free_energy:        18.8811320
  entropy:            32.5145871
  heat_capacity:      46.3315088
  energy:             28.6355081

- temperature:       310.0000000
  free_energy:        18.5482898
  entropy:            34.0512429
  heat_capacity:      47.3906087
  energy:             29.1041751

- temperature:       320.0000000
  free_energy:        18.2001612
  entropy:            35.5716910
  heat_capacity:      48.3843011
  energy:             29.5831023

- temperature:       330.0000000
  free_energy:        17.8369132
  entropy:            37.0749831
  heat_capacity:      49.3169340
  energy:             30.0716576

- temperature:       340.0000000
  free_energy:        17.4587212
  entropy:            38.5603825
  heat_capacity:      50.1926327
  energy:             30.5692512

- temperature:       350.0000000
  free_energy:        17.0657670
  entropy:            40.0273326
  heat_capacity:      51.0152866
  energy:             31.0753334

- temperature:       360.0000000
  free_energy:        16.6582374
  entropy:            41.4754304
  heat_capacity:      51.7885459
  energy:             31.5893923

- temperature:       370.0000000
  free_energy:        16.2363222
  entropy:            42.9044025
  heat_capacity:      52.5158230
  energy:             32.1109511

- temperature:       380.0000000
  free_energy:        15.8002136
  entropy:            44.3140855
  heat_capacity:      53.2002994
  energy:             32.6395661

- temperature:       390.0000000
  free_energy:        15.3501050
  entropy:            45.7044085
  heat_capacity:      53.8449338
  energy:             33.1748243

- temperature:       400.0000000
  free_energy:        14.8861900
  entropy:            47.0753780
  heat_capacity:      54.4524738
  energy:             33.7163412

- temperature:       410.0000000
  free_energy:        14.4086617
  entropy:            48.4270657
  heat_capacity:      55.0254674
  energy:             34.2637587

- temperature:       420.0000000
  free_energy:        13.9177125
  entropy:            49.7595970
  heat_capacity:      55.5662749
  energy:             34.8167433

- temperature:       430.0000000
  free_energy:        13.4135331
  entropy:            51.0731421
  heat_capacity:      56.0770819
  energy:             35.3749842

- temperature:       440.0000000
  free_energy:        12.8963123
  entropy:            52.3679077
  heat_capacity:      56.5599110
  energy:             35.9381917

- temperature:       450.0000000
  free_energy:        12.3662367
  entropy:            53.6441303
  heat_capacity:      57.0166338
  energy:             36.5060954

- temperature:       460.0000000
  free_energy:        11.8234906
  entropy:            54.9020706
  heat_capacity:      57.4489816
  energy:             37.0784431

- temperature:       470.0000000
  free_energy:        11.2682553
  entropy:            56.1420081
  heat_capacity:      57.8585567
  energy:             37.6549991

- temperature:       480.0000000
  free_energy:        10.7007095
  entropy:            57.3642371
  heat_capacity:      58.2468418
  energy:             38.2355433

- temperature:       490.0000000
  free_energy:        10.1210286
  entropy:            58.5690632
  heat_capacity:      58.6152096
  energy:             38.8198696

- temperature:       500.0000000
  free_energy:         9.5293852
  entropy:            59.7568003
  heat_capacity:      58.9649313
  energy:             39.4077853

- temperature:       510.0000000
  free_energy:         8.9259485
  entropy:            60.9277676
  heat_capacity:      59.2971844
  energy:             39.9991100

- temperature:       520.0000000
  free_energy:         8.3108847
  entropy:            62.0822880
  heat_capacity:      59.6130608
  energy:             40.5936744

- temperature:       530.0000000
  free_energy:         7.6843565
  entropy:            63.2206859
  heat_capacity:      59.9135728
  energy:             41.1913200

- temperature:       540.0000000
  free_energy:         7.0465236
  entropy:            64.3432856
  heat_capacity:      60.1996598
  energy:             41.7918978

- temperature:       550.0000000
  free_energy:         6.3975424
  entropy:            65.4504103
  heat_capacity:      60.4721943
  energy:             42.3952680

- temperature:       560.0000000
  free_energy:         5.7375659
  entropy:            66.5423809
  heat_capacity:      60.7319866
  energy:             43.0012992

- temperature:       570.0000000
  free_energy:         5.0667442
  entropy:            67.6195151
  heat_capacity:      60.9797902
  energy:             43.6098678

- temperature:       580.0000000
  free_energy:         4.3852240
  entropy:            68.6821265
  heat_capacity:      61.2163060
  energy:             44.2208574

- temperature:       590.0000000
  free_energy:         3.6931490
  entropy:            69.7305245
  heat_capacity:      61.4421867
  energy:             44.8341585

- temperature:       600.0000000
  free_energy:         2.9906599
  entropy:            70.7650131
  heat_capacity:      61.6580399
  energy:             45.4496677

- temperature:       610.0000000
  free_energy:         2.2778942
  entropy:            71.7858911
  heat_capacity:      61.8644324
  energy:             46.0672877

- temperature:       620.0000000
  free_energy:         1.5549865
  entropy:            72.7934518
  heat_capacity:      62.0618927
  energy:             46.6869266

- temperature:       630.0000000
  free_energy:         0.8220685
  entropy:            73.7879824
  heat_capacity:      62.2509143
  energy:             47.3084975

- temperature:       640.0000000
  free_energy:         0.0792693
  entropy:            74.7697641
  heat_capacity:      62.4319580
  energy:             47.9319183

- temperature:       650.0000000
  free_energy:        -0.6732852
  entropy:            75.7390717
  heat_capacity:      62.6054547
  energy:             48.5571115

- temperature:       660.0000000
  free_energy:        -1.4354714
  entropy:            76.6961743
  heat_capacity:      62.7718073
  energy:             49.1840036

- temperature:       670.0000000
  free_energy:        -2.2071688
  entropy:            77.6413342
  heat_capacity:      62.9313932
  energy:             49.8125251

- temperature:       680.0000000
  free_energy:        -2.9882592
  entropy:            78.5748077
  heat_capacity:      63.0845656
  energy:             50.4426101

- temperature:       690.0000000
  free_energy:        -3.7786269
  entropy:            79.4968449
  heat_capacity:      63.2316557
  energy:             51.0741961

- temperature:       700.0000000
  free_energy:        -4.5781588
  entropy:            80.4076896
  heat_capacity:      63.3729741
  energy:             51.7072239

- temperature:       710.0000000
  free_energy:        -5.3867441
  entropy:            81.3075795
  heat_capacity:      63.5088124
  energy:             52.3416373

- temperature:       720.0000000
  free_energy:        -6.2042746
  entropy:            82.1967465
  heat_capacity:      63.6394444
  energy:             52.9773828

- temperature:       730.0000000
  free_energy:        -7.0306441
  entropy:            83.0754162
  heat_capacity:      63.7651272
  energy:             53.6144097

- temperature:       740.0000000
  free_energy:        -7.8657487
  entropy:            83.9438086
  heat_capacity:      63.8861030
  energy:             54.2526697

- temperature:       750.0000000
  free_energy:        -8.7094867
  entropy:            84.8021381
  heat_capacity:      64.0025993
  energy:             54.8921169

- temperature:       760.0000000
  free_energy:        -9.5617586
  entropy:            85.6506132
  heat_capacity:      64.1148305
  energy:             55.5327075

- temperature:       770.0000000
  free_energy:       -10.4224668
  entropy:            86.4894373
  heat_capacity:      64.2229985
  energy:             56.1743999

- temperature:       780.0000000
  free_energy:       -11.2915158
  entropy:            87.3188082
  heat_capacity:      64.3272936
  energy:             56.8171545

- temperature:       790.0000000
  free_energy:       -12.1688121
  entropy:            88.1389185
  heat_capacity:      64.4278955
  energy:             57.4609335

- temperature:       800.0000000
  free_energy:       -13.0542640
  entropy:            88.9499558
  heat_capacity:      64.5249735
  energy:             58.1057007

- temperature:       810.0000000
  free_energy:       -13.9477816
  entropy:            89.7521029
  heat_capacity:      64.6186877
  energy:             58.7514217

- temperature:       820.0000000
  free_energy:       -14.8492770
  entropy:            90.5455375
  heat_capacity:      64.7091892
  energy:             59.3980637

- temperature:       830.0000000
  free_energy:       -15.7586639
  entropy:            91.3304327
  heat_capacity:      64.7966211
  energy:             60.0455953

- temperature:       840.0000000
  free_energy:       -16.6758577
  entropy:            92.1069573
  heat_capacity:      64.8811184
  energy:             60.6939864

- temperature:       850.0000000
  free_energy:       -17.6007757
  entropy:            92.8752753
  heat_capacity:      64.9628093
  energy:             61.3432083

- temperature:       860.0000000
  free_energy:       -18.5333364
  entropy:            93.6355465
  heat_capacity:      65.0418147
  energy:             61.9932336

- temperature:       870.0000000
  free_energy:       -19.4734603
  entropy:            94.3879268
  heat_capacity:      65.1182495
  energy:             62.6440360

- temperature:       880.0000000
  free_energy:       -20.4210691
  entropy:            95.1325677
  heat_capacity:      65.1922226
  energy:             63.2955904

- temperature:       890.0000000
  free_energy:       -21.3760863
  entropy:            95.8696168
  heat_capacity:      65.2638371
  energy:             63.9478726

- temperature:       900.0000000
  free_energy:       -22.3384367
  entropy:            96.5992181
  heat_capacity:      65.3331910
  energy:             64.6008596

- temperature:       910.0000000
  free_energy:       -23.3080463
  entropy:            97.3215116
  heat_capacity:      65.4003771
  energy:             65.2545292

- temperature:       920.0000000
  free_energy:       -24.2848430
  entropy:            98.0366339
  heat_capacity:      65.4654839
  energy:             65.9088602

- temperature:       930.0000000
  free_energy:       -25.2687556
  entropy:            98.7447181
  heat_capacity:      65.5285952
  energy:             66.5638322

- temperature:       940.0000000
  free_energy:       -26.2597143
  entropy:            99.4458937
  heat_capacity:      65.5897908
  energy:             67.2194257

- temperature:       950.0000000
  free_energy:       -27.2576508
  entropy:           100.1402871
  heat_capacity:      65.6491465
  energy:             67.8756219

- temperature:       960.0000000
  free_energy:       -28.2624979
  entropy:           100.8280215
  heat_capacity:      65.7067346
  energy:             68.5324028

- temperature:       970.0000000
  free_energy:       -29.2741895
  entropy:           101.5092169
  heat_capacity:      65.7626237
  energy:             69.1897510

- temperature:       980.0000000
  free_energy:       -30.2926608
  entropy:           102.1839904
  heat_capacity:      65.8168794
  energy:             69.8476498

- temperature:       990.0000000
  free_energy:       -31.3178482
  entropy:           102.8524561
  heat_capacity:      65.8695639
  energy:             70.5060833

- temperature:      1000.0000000
  free_energy:       -32.3496893
  entropy:           103.5147253
  heat_capacity:      65.9207369
  energy:             71.1650360
