   32   32    1    1
  0.7090409E+01  0.4934311E-09  0.4934311E-09  0.1076119E-08  0.5000000E-15
  1.000000000000000E-004
  CAR 
 graphite                                
    128    163     84
 
  0.0000000E+00  0.0000000E+00  0.0000000E+00  0.3086420E-02
    1      -13.281672
    2      -12.692302
    3      -12.690522
    4      -11.936498
    5       -7.770539
    6       -7.767783
    7       -7.764812
    8       -7.413566
    9       -7.409248
   10       -7.408821
   11       -7.408201
   12       -7.408079
   13       -7.403692
   14       -7.307203
   15       -7.306334
   16       -7.306182
   17       -6.370220
   18       -6.365455
   19       -6.364302
   20       -6.364102
   21       -6.364051
   22       -6.359393
   23       -6.303723
   24       -6.301463
   25       -6.299628
   26       -6.002351
   27       -5.998918
   28       -5.995870
   29       -2.930072
   30       -0.610317
   31       -0.606774
   32        0.334989
   33        0.337721
   34        0.342161
   35        0.513490
   36        0.518154
   37        0.518251
   38        0.518773
   39        0.521283
   40        0.525345
   41        0.704691
   42        0.707410
   43        0.712044
   44        2.313652
   45        3.085855
   46        3.088288
   47        3.090805
   48        3.824781
   49        3.837004
   50        3.893162
   51        3.900632
   52        3.905325
   53        3.912769
   54        3.968945
   55        3.981043
   56        4.534524
   57        4.538459
   58        4.539076
   59        4.539122
   60        4.539815
   61        4.543674
   62        4.752715
   63        4.753686
   64        4.753924
   65        8.481878
   66        8.491920
   67        8.492251
   68        8.493134
   69        8.494169
   70        8.503243
   71        9.122808
   72        9.124843
   73        9.125818
   74        9.953605
   75        9.958082
   76        9.961485
   77       13.432853
   78       13.437053
   79       13.441766
   80       14.197365
   81       14.202443
   82       14.203552
   83       14.206576
   84       14.210702
 
  0.1111111E+00 -0.6938894E-17  0.0000000E+00  0.6172840E-02
    1      -13.206435
    2      -12.618738
    3      -12.616964
    4      -11.865805
    5       -8.638457
    6       -8.170350
    7       -8.168897
    8       -8.062451
    9       -8.059668
   10       -7.635486
   11       -7.633068
   12       -7.632279
   13       -7.630141
   14       -7.625111
   15       -7.231432
   16       -7.229301
   17       -6.272133
   18       -6.268773
   19       -6.024411
   20       -6.020740
   21       -6.019420
   22       -6.018463
   23       -5.859061
   24       -5.576342
   25       -5.573111
   26       -5.494434
   27       -5.491740
   28       -5.030314
   29       -2.839367
   30       -0.525321
   31       -0.521786
   32        0.097352
   33        0.102388
   34        0.290231
   35        0.291280
   36        0.294242
   37        0.298142
   38        0.408763
   39        0.496116
   40        0.501388
   41        0.587456
   42        0.590580
   43        0.777106
   44        2.390865
   45        2.414975
   46        2.943375
   47        2.946248
   48        3.513662
   49        3.604130
   50        3.609989
   51        3.654309
   52        3.701226
   53        3.738954
   54        3.744910
   55        3.829983
   56        4.121171
   57        4.124025
   58        4.487728
   59        4.488966
   60        4.489518
   61        4.493718
   62        4.967793
   63        4.968563
   64        5.172488
   65        8.610250
   66        8.619253
   67        8.619677
   68        8.624059
   69        8.877691
   70        8.994267
   71        8.997473
   72        9.017144
   73        9.024211
   74       10.102612
   75       10.106960
   76       10.675610
   77       13.484008
   78       13.782289
   79       13.789053
   80       14.247447
   81       14.249939
   82       14.374120
   83       14.536884
   84       14.541623
 
  0.2222222E+00 -0.2775558E-16  0.0000000E+00  0.6172840E-02
    1      -12.981041
    2      -12.398366
    3      -12.396607
    4      -11.654098
    5       -9.680071
    6       -9.176060
    7       -9.174544
    8       -8.561805
    9       -8.435682
   10       -8.433354
   11       -7.974035
   12       -7.971945
   13       -7.971326
   14       -7.968999
   15       -7.438069
   16       -7.435728
   17       -5.685703
   18       -5.682235
   19       -5.330482
   20       -5.327163
   21       -5.325746
   22       -5.324672
   23       -4.879701
   24       -4.876424
   25       -4.532780
   26       -4.167055
   27       -4.164595
   28       -3.735412
   29       -2.567946
   30       -0.537981
   31       -0.533346
   32       -0.317345
   33       -0.316498
   34       -0.313775
   35       -0.310003
   36       -0.271168
   37       -0.267657
   38       -0.073890
   39       -0.068972
   40        0.625851
   41        0.801843
   42        0.805172
   43        0.988815
   44        1.311589
   45        2.621069
   46        2.643003
   47        2.670062
   48        2.672702
   49        2.780928
   50        2.786383
   51        2.926392
   52        3.210290
   53        3.253677
   54        3.256358
   55        3.322671
   56        3.328359
   57        3.442869
   58        4.370454
   59        4.371662
   60        4.372578
   61        4.376946
   62        5.273539
   63        5.426055
   64        5.427079
   65        8.788459
   66        8.792610
   67        8.933992
   68        8.941813
   69        8.942377
   70        8.946009
   71        9.332552
   72       10.203095
   73       10.208614
   74       10.354302
   75       10.357811
   76       11.851256
   77       13.627858
   78       14.386713
   79       14.389195
   80       14.515554
   81       14.737456
   82       14.744147
   83       15.065672
   84       15.154420
 
  0.3333333E+00 -0.5551115E-16  0.0000000E+00  0.6172840E-02
    1      -12.606726
    2      -12.032352
    3      -12.030618
    4      -11.302342
    5      -10.615236
    6      -10.086968
    7      -10.085377
    8       -9.433349
    9       -8.703608
   10       -8.701472
   11       -8.228696
   12       -8.226595
   13       -8.226081
   14       -8.223934
   15       -7.660075
   16       -7.657856
   17       -4.869579
   18       -4.866059
   19       -4.522420
   20       -4.518856
   21       -4.517394
   22       -4.516452
   23       -4.114402
   24       -4.111096
   25       -3.067534
   26       -2.735692
   27       -2.733071
   28       -2.353380
   29       -2.117846
   30       -1.372528
   31       -1.368622
   32       -1.135778
   33       -1.135162
   34       -1.132974
   35       -1.129124
   36       -0.855954
   37       -0.851570
   38        0.147355
   39        0.150889
   40        0.243221
   41        0.978552
   42        1.149692
   43        1.153313
   44        1.331647
   45        1.407387
   46        1.600843
   47        1.605324
   48        1.802118
   49        2.321766
   50        2.324658
   51        2.437992
   52        2.440565
   53        2.627353
   54        2.763121
   55        2.768024
   56        2.907678
   57        2.997783
   58        4.250251
   59        4.251645
   60        4.252733
   61        4.257257
   62        4.778448
   63        5.877035
   64        5.879002
   65        8.655894
   66        8.660144
   67        9.309897
   68        9.316641
   69        9.317245
   70        9.319608
   71       10.525532
   72       10.528537
   73       10.623761
   74       11.626853
   75       11.631297
   76       13.127996
   77       13.856854
   78       14.615877
   79       14.618492
   80       14.696984
   81       14.940805
   82       14.946168
   83       14.986941
   84       15.247843
 
  0.4444444E+00 -0.5551115E-16  0.0000000E+00  0.6172840E-02
    1      -12.085294
    2      -11.522673
    3      -11.520973
    4      -11.419660
    5      -10.872479
    6      -10.870825
    7      -10.812396
    8      -10.187757
    9       -8.841158
   10       -8.839104
   11       -8.360447
   12       -8.358339
   13       -8.357879
   14       -8.355795
   15       -7.781237
   16       -7.779085
   17       -4.064113
   18       -4.060895
   19       -3.787220
   20       -3.782616
   21       -3.781926
   22       -3.781177
   23       -3.525448
   24       -3.522949
   25       -2.046557
   26       -2.044702
   27       -1.901398
   28       -1.900128
   29       -1.899745
   30       -1.895527
   31       -1.638018
   32       -1.634811
   33       -1.546524
   34       -1.493220
   35       -1.258922
   36       -1.255773
   37       -0.930714
   38       -0.701718
   39       -0.028667
   40        0.200141
   41        0.203817
   42        0.479727
   43        0.746362
   44        0.749177
   45        1.451064
   46        1.466207
   47        1.469254
   48        1.614536
   49        1.618606
   50        1.788915
   51        2.016002
   52        2.168350
   53        2.172881
   54        2.311620
   55        2.314267
   56        2.331535
   57        3.507872
   58        4.123915
   59        4.177925
   60        4.179421
   61        4.180572
   62        4.185231
   63        6.148998
   64        6.151670
   65        8.614457
   66        8.618167
   67        9.564775
   68        9.570697
   69        9.571037
   70        9.571911
   71       10.584355
   72       10.587138
   73       12.240004
   74       13.071877
   75       13.075440
   76       13.900379
   77       14.151172
   78       14.289668
   79       14.293894
   80       14.423569
   81       14.471745
   82       14.943677
   83       14.946777
   84       15.241930
 
  0.1694066E-20  0.1111111E+00  0.0000000E+00  0.6172840E-02
    1      -13.206436
    2      -12.618740
    3      -12.616966
    4      -11.865807
    5       -8.638394
    6       -8.170252
    7       -8.168834
    8       -8.062644
    9       -8.059683
   10       -7.636224
   11       -7.633066
   12       -7.632300
   13       -7.630781
   14       -7.624217
   15       -7.231319
   16       -7.230013
   17       -6.272115
   18       -6.267130
   19       -6.024802
   20       -6.020734
   21       -6.019315
   22       -6.015368
   23       -5.860350
   24       -5.576725
   25       -5.571495
   26       -5.494784
   27       -5.493604
   28       -5.031402
   29       -2.839362
   30       -0.525314
   31       -0.521780
   32        0.096100
   33        0.102125
   34        0.288004
   35        0.291262
   36        0.294243
   37        0.297284
   38        0.410327
   39        0.494880
   40        0.501040
   41        0.590294
   42        0.590903
   43        0.778678
   44        2.390964
   45        2.415821
   46        2.942410
   47        2.945830
   48        3.510508
   49        3.602845
   50        3.604160
   51        3.657942
   52        3.697595
   53        3.744881
   54        3.746221
   55        3.833197
   56        4.122938
   57        4.124533
   58        4.485749
   59        4.488977
   60        4.489487
   61        4.492789
   62        4.967500
   63        4.968532
   64        5.173367
   65        8.611361
   66        8.619160
   67        8.620118
   68        8.627571
   69        8.875759
   70        8.994048
   71        8.998937
   72        9.015835
   73        9.021301
   74       10.102636
   75       10.109284
   76       10.673886
   77       13.484608
   78       13.782350
   79       13.788312
   80       14.248275
   81       14.250215
   82       14.331585
   83       14.536465
   84       14.539315
 
  0.1111111E+00  0.1111111E+00  0.0000000E+00  0.6172840E-02
    1      -13.056106
    2      -12.471729
    3      -12.469965
    4      -11.724611
    5       -9.119315
    6       -9.115805
    7       -8.632975
    8       -8.629284
    9       -8.629124
   10       -8.625518
   11       -8.046042
   12       -8.042449
   13       -7.573242
   14       -7.220133
   15       -7.218178
   16       -7.116184
   17       -6.185184
   18       -6.181142
   19       -6.119698
   20       -5.831041
   21       -5.184478
   22       -5.180795
   23       -4.812014
   24       -4.809143
   25       -4.809068
   26       -4.804123
   27       -4.363616
   28       -4.359633
   29       -2.658306
   30       -0.611215
   31       -0.389114
   32       -0.386296
   33       -0.355638
   34       -0.352114
   35       -0.142513
   36        0.242932
   37        0.246118
   38        0.431872
   39        0.436516
   40        0.436611
   41        0.438307
   42        0.637013
   43        0.640189
   44        1.933318
   45        1.936060
   46        2.544723
   47        2.970604
   48        3.070977
   49        3.076885
   50        3.133354
   51        3.348980
   52        3.382322
   53        3.423840
   54        3.429564
   55        3.518163
   56        3.770549
   57        3.774710
   58        3.775298
   59        3.777312
   60        4.799929
   61        4.803256
   62        4.995075
   63        5.384017
   64        5.385995
   65        8.411389
   66        8.418952
   67        8.949346
   68        8.952107
   69        9.169907
   70        9.539140
   71        9.544155
   72        9.545132
   73        9.546008
   74        9.552550
   75       11.154507
   76       11.157701
   77       13.877895
   78       13.882590
   79       14.459539
   80       14.623550
   81       14.629426
   82       14.629628
   83       14.633315
   84       14.694019
 
  0.2222222E+00  0.1111111E+00  0.0000000E+00  0.6172840E-02
    1      -12.756201
    2      -12.178581
    3      -12.176837
    4      -11.442827
    5      -10.109460
    6       -9.593994
    7       -9.592443
    8       -9.468720
    9       -8.970630
   10       -8.969033
   11       -8.960304
   12       -8.364596
   13       -7.664765
   14       -7.248498
   15       -7.247003
   16       -6.858064
   17       -5.914272
   18       -5.678973
   19       -5.675658
   20       -5.260979
   21       -4.382384
   22       -4.028299
   23       -4.027129
   24       -3.775940
   25       -3.616207
   26       -3.428724
   27       -3.426241
   28       -3.025843
   29       -2.297484
   30       -1.546758
   31       -1.297781
   32       -1.294974
   33       -1.008006
   34       -0.305295
   35       -0.092322
   36       -0.091496
   37       -0.019014
   38       -0.015508
   39        0.144555
   40        0.534525
   41        0.719161
   42        0.722399
   43        0.829672
   44        0.918481
   45        1.567989
   46        1.976516
   47        2.121767
   48        2.127824
   49        2.250786
   50        2.792809
   51        2.843134
   52        2.846363
   53        2.849524
   54        2.880480
   55        2.886896
   56        3.004466
   57        3.454407
   58        3.494442
   59        3.496850
   60        4.998996
   61        5.002199
   62        5.125296
   63        5.455745
   64        5.510855
   65        8.413671
   66        8.420373
   67        8.747514
   68        9.231297
   69        9.547203
   70        9.888515
   71       10.095030
   72       10.099065
   73       10.872136
   74       10.876772
   75       11.477668
   76       12.377710
   77       14.067729
   78       14.718083
   79       14.810312
   80       14.812858
   81       14.882821
   82       15.201484
   83       15.241762
   84       15.249335
 
  0.3333333E+00  0.1111111E+00  0.0000000E+00  0.6172840E-02
    1      -12.308353
    2      -11.740678
    3      -11.738965
    4      -11.022105
    5      -10.979724
    6      -10.442790
    7      -10.441173
    8       -9.775113
    9       -9.682146
   10       -9.177702
   11       -9.176175
   12       -8.561850
   13       -7.829842
   14       -7.385783
   15       -7.384424
   16       -6.876456
   17       -5.220585
   18       -4.905753
   19       -4.902607
   20       -4.535464
   21       -3.543424
   22       -3.235768
   23       -3.234169
   24       -2.902204
   25       -2.469485
   26       -2.288267
   27       -2.241787
   28       -2.238748
   29       -1.982441
   30       -1.979899
   31       -1.933316
   32       -1.760001
   33       -1.634316
   34       -0.998966
   35       -0.797860
   36       -0.796225
   37       -0.540289
   38       -0.181643
   39        0.468759
   40        0.472491
   41        0.675059
   42        0.894583
   43        0.899208
   44        0.958774
   45        1.091901
   46        1.133936
   47        1.137418
   48        1.324573
   49        1.341237
   50        1.941371
   51        1.944299
   52        2.126194
   53        2.260193
   54        2.265599
   55        2.415919
   56        3.292774
   57        3.316127
   58        3.318611
   59        3.408922
   60        4.507780
   61        5.088484
   62        5.091240
   63        5.556602
   64        6.166185
   65        8.064641
   66        8.522798
   67        8.527646
   68        9.587046
   69        9.707587
   70       10.533029
   71       10.536071
   72       11.376630
   73       11.599165
   74       12.316286
   75       12.319884
   76       13.646181
   77       14.329990
   78       14.580264
   79       14.776353
   80       14.781929
   81       14.883749
   82       15.074822
   83       15.077292
   84       15.235307
 
  0.4444444E+00  0.1111111E+00  0.0000000E+00  0.6172840E-02
    1      -11.716582
    2      -11.713331
    3      -11.163486
    4      -11.160002
    5      -11.159785
    6      -11.156398
    7      -10.466468
    8      -10.463075
    9       -9.753765
   10       -9.247476
   11       -9.245942
   12       -8.628363
   13       -7.890558
   14       -7.440628
   15       -7.439277
   16       -6.913227
   17       -4.661285
   18       -4.416495
   19       -4.413596
   20       -4.237710
   21       -2.993920
   22       -2.832081
   23       -2.786793
   24       -2.784277
   25       -2.779044
   26       -2.775955
   27       -2.623941
   28       -2.550626
   29       -1.299960
   30       -1.238404
   31       -1.234651
   32       -1.052843
   33       -1.050195
   34       -1.030756
   35       -0.782805
   36       -0.779239
   37       -0.526937
   38       -0.526518
   39       -0.526407
   40       -0.519382
   41       -0.240123
   42       -0.236156
   43        1.143021
   44        1.147437
   45        1.148601
   46        1.151983
   47        1.263748
   48        1.495881
   49        1.501745
   50        1.654473
   51        1.663987
   52        1.664030
   53        1.665608
   54        1.833824
   55        1.839158
   56        3.255042
   57        3.257662
   58        3.379368
   59        3.858187
   60        3.861206
   61        5.110676
   62        5.112849
   63        5.565554
   64        6.667039
   65        7.591231
   66        8.585685
   67        8.588726
   68        9.759825
   69        9.767255
   70       10.703108
   71       10.705969
   72       11.605287
   73       13.009166
   74       13.012807
   75       13.700262
   76       13.701344
   77       13.704155
   78       13.710076
   79       14.630627
   80       14.634533
   81       14.907228
   82       14.911582
   83       15.421366
   84       15.423928
 
 -0.4444444E+00  0.1111111E+00  0.0000000E+00  0.6172840E-02
    1      -12.308463
    2      -11.740789
    3      -11.739076
    4      -11.022217
    5      -10.979554
    6      -10.442618
    7      -10.440999
    8       -9.774907
    9       -9.682405
   10       -9.177930
   11       -9.176402
   12       -8.562068
   13       -7.829702
   14       -7.385669
   15       -7.384347
   16       -6.876460
   17       -5.217678
   18       -4.902305
   19       -4.900975
   20       -4.533407
   21       -3.546315
   22       -3.239241
   23       -3.236009
   24       -2.904440
   25       -2.472046
   26       -2.288304
   27       -2.243851
   28       -2.242624
   29       -1.982578
   30       -1.979645
   31       -1.936513
   32       -1.760036
   33       -1.634125
   34       -0.996113
   35       -0.795537
   36       -0.791849
   37       -0.536647
   38       -0.181601
   39        0.468714
   40        0.472435
   41        0.674113
   42        0.894128
   43        0.897056
   44        0.958491
   45        1.089830
   46        1.133623
   47        1.137519
   48        1.324561
   49        1.341331
   50        1.941367
   51        1.944347
   52        2.128357
   53        2.262516
   54        2.266060
   55        2.416876
   56        3.292693
   57        3.316260
   58        3.319058
   59        3.408320
   60        4.507668
   61        5.088263
   62        5.089851
   63        5.557147
   64        6.165863
   65        8.066961
   66        8.525702
   67        8.528879
   68        9.584417
   69        9.708021
   70       10.531006
   71       10.535031
   72       11.377065
   73       11.599073
   74       12.316390
   75       12.320373
   76       13.646743
   77       14.329018
   78       14.579453
   79       14.778274
   80       14.782758
   81       14.885677
   82       15.073607
   83       15.076689
   84       15.236672
 
 -0.3333333E+00  0.1111111E+00  0.0000000E+00  0.6172840E-02
    1      -12.756280
    2      -12.178660
    3      -12.176916
    4      -11.442908
    5      -10.109260
    6       -9.593772
    7       -9.592219
    8       -9.469201
    9       -8.970687
   10       -8.969183
   11       -8.960788
   12       -8.365016
   13       -7.664614
   14       -7.248307
   15       -7.247119
   16       -6.858072
   17       -5.910992
   18       -5.674781
   19       -5.673772
   20       -5.258221
   21       -4.385374
   22       -4.031937
   23       -4.029240
   24       -3.776094
   25       -3.618996
   26       -3.428935
   27       -3.426320
   28       -3.025913
   29       -2.297511
   30       -1.550416
   31       -1.300552
   32       -1.299721
   33       -1.011857
   34       -0.301213
   35       -0.089309
   36       -0.086053
   37       -0.019027
   38       -0.015521
   39        0.148906
   40        0.534432
   41        0.718995
   42        0.722530
   43        0.829713
   44        0.918519
   45        1.568226
   46        1.974131
   47        2.120363
   48        2.122977
   49        2.246480
   50        2.797426
   51        2.843083
   52        2.846436
   53        2.849547
   54        2.885530
   55        2.888329
   56        3.006865
   57        3.453153
   58        3.494656
   59        3.497511
   60        4.998605
   61        4.999682
   62        5.125190
   63        5.456301
   64        5.511797
   65        8.418411
   66        8.423007
   67        8.750449
   68        9.227262
   69        9.548442
   70        9.888793
   71       10.091658
   72       10.096972
   73       10.872234
   74       10.877201
   75       11.476668
   76       12.378196
   77       14.067117
   78       14.718838
   79       14.809717
   80       14.812415
   81       14.887829
   82       15.206206
   83       15.247441
   84       15.251686
 
 -0.2222222E+00  0.1111111E+00  0.0000000E+00  0.6172840E-02
    1      -13.056153
    2      -12.471777
    3      -12.470012
    4      -11.724659
    5       -9.118175
    6       -9.117331
    7       -8.630763
    8       -8.629557
    9       -8.629294
   10       -8.628088
   11       -8.044789
   12       -8.044091
   13       -7.573284
   14       -7.219658
   15       -7.218845
   16       -7.115292
   17       -6.180100
   18       -6.179523
   19       -6.117374
   20       -5.827883
   21       -5.186071
   22       -5.182231
   23       -4.813218
   24       -4.810690
   25       -4.809433
   26       -4.806913
   27       -4.364905
   28       -4.361255
   29       -2.658323
   30       -0.615348
   31       -0.392263
   32       -0.391536
   33       -0.355637
   34       -0.352117
   35       -0.146769
   36        0.243760
   37        0.249824
   38        0.433446
   39        0.436689
   40        0.439597
   41        0.442753
   42        0.637844
   43        0.644002
   44        1.934361
   45        1.935492
   46        2.544747
   47        2.964807
   48        3.067524
   49        3.067921
   50        3.128354
   51        3.347434
   52        3.387463
   53        3.432680
   54        3.433342
   55        3.524021
   56        3.772041
   57        3.774785
   58        3.774847
   59        3.777667
   60        4.799478
   61        4.800344
   62        4.996183
   63        5.384322
   64        5.386504
   65        8.416880
   66        8.422423
   67        8.945232
   68        8.951959
   69        9.171861
   70        9.536549
   71        9.543881
   72        9.544447
   73        9.546059
   74        9.552744
   75       11.153260
   76       11.157224
   77       13.879529
   78       13.885684
   79       14.459932
   80       14.626884
   81       14.629575
   82       14.633095
   83       14.635310
   84       14.688632
 
 -0.1111111E+00  0.1111111E+00  0.0000000E+00  0.6172840E-02
    1      -13.206452
    2      -12.618756
    3      -12.616982
    4      -11.865823
    5       -8.639123
    6       -8.170886
    7       -8.169479
    8       -8.062154
    9       -8.059399
   10       -7.635779
   11       -7.632289
   12       -7.631975
   13       -7.630385
   14       -7.625410
   15       -7.231566
   16       -7.229405
   17       -6.269084
   18       -6.267104
   19       -6.020586
   20       -6.019547
   21       -6.019274
   22       -6.015571
   23       -5.863218
   24       -5.574070
   25       -5.571758
   26       -5.498144
   27       -5.495611
   28       -5.033954
   29       -2.839367
   30       -0.525317
   31       -0.521782
   32        0.095476
   33        0.098303
   34        0.286790
   35        0.291217
   36        0.291320
   37        0.292578
   38        0.414884
   39        0.494289
   40        0.497162
   41        0.593626
   42        0.596774
   43        0.783359
   44        2.390886
   45        2.416708
   46        2.942070
   47        2.944835
   48        3.503870
   49        3.594140
   50        3.600731
   51        3.664171
   52        3.691521
   53        3.748341
   54        3.754981
   55        3.839900
   56        4.123376
   57        4.126331
   58        4.484722
   59        4.488926
   60        4.489490
   61        4.490841
   62        4.967923
   63        4.968595
   64        5.173730
   65        8.616681
   66        8.620306
   67        8.621276
   68        8.629188
   69        8.871890
   70        8.996896
   71        8.998701
   72        9.011140
   73        9.017828
   74       10.106095
   75       10.109569
   76       10.670909
   77       13.489722
   78       13.780434
   79       13.784835
   80       14.253095
   81       14.255335
   82       14.348116
   83       14.531325
   84       14.535788
 
  0.0000000E+00  0.2222222E+00  0.0000000E+00  0.6172840E-02
    1      -12.981048
    2      -12.398374
    3      -12.396614
    4      -11.654106
    5       -9.680118
    6       -9.176104
    7       -9.174584
    8       -8.561859
    9       -8.436173
   10       -8.432885
   11       -7.974995
   12       -7.971903
   13       -7.971319
   14       -7.968258
   15       -7.438521
   16       -7.435491
   17       -5.685989
   18       -5.680580
   19       -5.331285
   20       -5.327150
   21       -5.325570
   22       -5.321538
   23       -4.880124
   24       -4.874741
   25       -4.533863
   26       -4.167460
   27       -4.166335
   28       -3.736509
   29       -2.567925
   30       -0.539361
   31       -0.533579
   32       -0.319839
   33       -0.316552
   34       -0.313771
   35       -0.310618
   36       -0.271148
   37       -0.267632
   38       -0.075222
   39       -0.069222
   40        0.627482
   41        0.804842
   42        0.805430
   43        0.990445
   44        1.312094
   45        2.621070
   46        2.640367
   47        2.669074
   48        2.672594
   49        2.780648
   50        2.781067
   51        2.923388
   52        3.213405
   53        3.254495
   54        3.256850
   55        3.328257
   56        3.328685
   57        3.445686
   58        4.368262
   59        4.371845
   60        4.372633
   61        4.376220
   62        5.274667
   63        5.425500
   64        5.426789
   65        8.788487
   66        8.794522
   67        8.934967
   68        8.941778
   69        8.942803
   70        8.949603
   71        9.330319
   72       10.201947
   73       10.206541
   74       10.354055
   75       10.360119
   76       11.850042
   77       13.628556
   78       14.387726
   79       14.389477
   80       14.515891
   81       14.737067
   82       14.743578
   83       15.051684
   84       15.155404
 
  0.1111111E+00  0.2222222E+00  0.0000000E+00  0.6172840E-02
    1      -12.756206
    2      -12.178586
    3      -12.176842
    4      -11.442833
    5      -10.109523
    6       -9.594060
    7       -9.592500
    8       -9.468671
    9       -8.970582
   10       -8.969015
   11       -8.960348
   12       -8.364573
   13       -7.664744
   14       -7.248492
   15       -7.246987
   16       -6.858062
   17       -5.914232
   18       -5.678833
   19       -5.675657
   20       -5.260869
   21       -4.381175
   22       -4.027643
   23       -4.025373
   24       -3.777114
   25       -3.614956
   26       -3.429213
   27       -3.428129
   28       -3.027086
   29       -2.297468
   30       -1.546887
   31       -1.297784
   32       -1.295170
   33       -1.008084
   34       -0.306949
   35       -0.094994
   36       -0.092072
   37       -0.018994
   38       -0.015489
   39        0.142939
   40        0.536256
   41        0.722159
   42        0.722826
   43        0.830080
   44        0.920184
   45        1.567434
   46        1.975040
   47        2.121770
   48        2.125084
   49        2.249900