 running on    6 total cores
 distrk:  each k-point on    6 cores,    1 groups
 distr:  one band on    1 cores,    6 groups
 using from now: INCAR     
 vasp.5.3.5 31Mar14 (build Nov 02 2014 15:17:37) complex                        
  
 POSCAR found :  1 types and      32 ions
 scaLAPACK will be used

 ----------------------------------------------------------------------------- 
|                                                                             |
|           W    W    AA    RRRRR   N    N  II  N    N   GGGG   !!!           |
|           W    W   A  A   R    R  NN   N  II  NN   N  G    G  !!!           |
|           W    W  A    A  R    R  N N  N  II  N N  N  G       !!!           |
|           W WW W  AAAAAA  RRRRR   N  N N  II  N  N N  G  GGG   !            |
|           WW  WW  A    A  R   R   N   NN  II  N   NN  G    G                |
|           W    W  A    A  R    R  N    N  II  N    N   GGGG   !!!           |
|                                                                             |
|      For optimal performance we recommend to set                            |
|        NCORE= 4 - approx SQRT( number of cores)                             |
|      NCORE specifies how many cores store one orbital (NPAR=cpu/NCORE).     |
|      This setting can  greatly improve the performance of VASP for DFT.     |
|      The default, NPAR=number of cores might be grossly inefficient         |
|      on modern multi-core architectures or massively parallel machines.     |
|      Do your own testing !!!!                                               |
|      Unfortunately you need to use the default for GW and RPA calculations. |
|      (for HF NCORE is supported but not extensively tested yet)             |
|                                                                             |
 ----------------------------------------------------------------------------- 


 ----------------------------------------------------------------------------- 
|                                                                             |
|  ADVICE TO THIS USER RUNNING 'VASP/VAMP'   (HEAR YOUR MASTER'S VOICE ...):  |
|                                                                             |
|      You have a (more or less) 'large supercell' and for larger cells       |
|      it might be more efficient to use real space projection operators      |
|      So try LREAL= Auto  in the INCAR   file.                               |
|      Mind: If you want to do a very accurate calculations keep the          |
|      reciprocal projection scheme          (i.e. LREAL=.FALSE.)             |
|                                                                             |
 ----------------------------------------------------------------------------- 

 LDA part: xc-table for Pade appr. of Perdew
 POSCAR, INCAR and KPOINTS ok, starting setup
 WARNING: small aliasing (wrap around) errors must be expected
 FFT: planning ...
 WAVECAR not read
 WARNING: random wavefunctions but no delay for mixing, default for NELMDL
 entering main loop
       N       E                     dE             d eps       ncg     rms          rms(c)
DAV:   1     0.462127260904E+03    0.46213E+03   -0.77019E+04 27384   0.170E+03
DAV:   2    -0.235889049047E+03   -0.69802E+03   -0.66797E+03 34524   0.305E+02
DAV:   3    -0.271513036133E+03   -0.35624E+02   -0.34990E+02 33516   0.633E+01
DAV:   4    -0.272077291181E+03   -0.56426E+00   -0.56209E+00 33180   0.854E+00
DAV:   5    -0.272089607646E+03   -0.12316E-01   -0.12309E-01 33552   0.113E+00    0.219E+01
DAV:   6    -0.261527335790E+03    0.10562E+02   -0.83844E+00 31092   0.950E+00    0.116E+01
DAV:   7    -0.258096832794E+03    0.34305E+01   -0.84507E+00 29388   0.974E+00    0.149E+00
DAV:   8    -0.258120250442E+03   -0.23418E-01   -0.21430E-01 32748   0.153E+00    0.524E-01
DAV:   9    -0.258122309983E+03   -0.20595E-02   -0.51045E-03 31932   0.306E-01    0.652E-02
DAV:  10    -0.258122420044E+03   -0.11006E-03   -0.24575E-04 34068   0.547E-02    0.314E-02
DAV:  11    -0.258122453907E+03   -0.33863E-04   -0.46551E-05 32280   0.248E-02    0.128E-02
DAV:  12    -0.258122464331E+03   -0.10424E-04   -0.15408E-05 31476   0.165E-02    0.205E-03
DAV:  13    -0.258122464087E+03    0.24371E-06   -0.53114E-07 19428   0.277E-03
   1 F= -.26188524E+03 E0= -.26186997E+03  d E =-.305421E-01
