  32  32   0   0
  0.8817899E+01  0.4932875E-09  0.4932875E-09  0.1339614E-08  0.5000000E-15
  1.000000000000000E-004
  CAR 
 graphite                                
     15.69421750    -16.94018916  301      4.68817887      1.00000000
    -16.940  0.0000E+00  0.0000E+00
    -16.831  0.0000E+00  0.0000E+00
    -16.723  0.0000E+00  0.0000E+00
    -16.614  0.0000E+00  0.0000E+00
    -16.505  0.0000E+00  0.0000E+00
    -16.396  0.0000E+00  0.0000E+00
    -16.288  0.0000E+00  0.0000E+00
    -16.179  0.0000E+00  0.0000E+00
    -16.070  0.0000E+00  0.0000E+00
    -15.961  0.0000E+00  0.0000E+00
    -15.852  0.0000E+00  0.0000E+00
    -15.744  0.0000E+00  0.0000E+00
    -15.635  0.0000E+00  0.0000E+00
    -15.526  0.0000E+00  0.0000E+00
    -15.417  0.0000E+00  0.0000E+00
    -15.308  0.0000E+00  0.0000E+00
    -15.200  0.0000E+00  0.0000E+00
    -15.091  0.0000E+00  0.0000E+00
    -14.982  0.0000E+00  0.0000E+00
    -14.873  0.1480E+01  0.3829E-01
    -14.765  0.2511E+01  0.2505E+00
    -14.656  0.3865E+01  0.5978E+00
    -14.547  0.4766E+01  0.1103E+01
    -14.438  0.5055E+01  0.1640E+01
    -14.329  0.4882E+01  0.2177E+01
    -14.221  0.4947E+01  0.2711E+01
    -14.112  0.4920E+01  0.3250E+01
    -14.003  0.4960E+01  0.3788E+01
    -13.894  0.4974E+01  0.4328E+01
    -13.786  0.5021E+01  0.4872E+01
    -13.677  0.5641E+01  0.5453E+01
    -13.568  0.5875E+01  0.6084E+01
    -13.459  0.6825E+01  0.6813E+01
    -13.350  0.4518E+01  0.7379E+01
    -13.242  0.1846E+01  0.7732E+01
    -13.133  0.3645E+01  0.7995E+01
    -13.024  0.4216E+01  0.8435E+01
    -12.915  0.5256E+01  0.8926E+01
    -12.806  0.5749E+01  0.9689E+01
    -12.698  0.6527E+01  0.1037E+02
    -12.589  0.4376E+01  0.1093E+02
    -12.480  0.4569E+01  0.1141E+02
    -12.371  0.4713E+01  0.1192E+02
    -12.263  0.4834E+01  0.1244E+02
    -12.154  0.5147E+01  0.1299E+02
    -12.045  0.5452E+01  0.1356E+02
    -11.936  0.5673E+01  0.1419E+02
    -11.827  0.5366E+01  0.1479E+02
    -11.719  0.5095E+01  0.1535E+02
    -11.610  0.4952E+01  0.1590E+02
    -11.501  0.4963E+01  0.1643E+02
    -11.392  0.5056E+01  0.1698E+02
    -11.284  0.5113E+01  0.1753E+02
    -11.175  0.5310E+01  0.1809E+02
    -11.066  0.5537E+01  0.1868E+02
    -10.957  0.5907E+01  0.1931E+02
    -10.848  0.5804E+01  0.1994E+02
    -10.740  0.5784E+01  0.2057E+02
    -10.631  0.5865E+01  0.2120E+02
    -10.522  0.5034E+01  0.2181E+02
    -10.413  0.4530E+01  0.2231E+02
    -10.305  0.5146E+01  0.2284E+02
    -10.196  0.5327E+01  0.2341E+02
    -10.087  0.5466E+01  0.2400E+02
     -9.978  0.5678E+01  0.2460E+02
     -9.869  0.5933E+01  0.2524E+02
     -9.761  0.7499E+01  0.2598E+02
     -9.652  0.1004E+02  0.2697E+02
     -9.543  0.6699E+01  0.2787E+02
     -9.434  0.7185E+01  0.2857E+02
     -9.325  0.5969E+01  0.2922E+02
     -9.217  0.3549E+01  0.2971E+02
     -9.108  0.3176E+01  0.3007E+02
     -8.999  0.2803E+01  0.3040E+02
     -8.890  0.2430E+01  0.3068E+02
     -8.782  0.2691E+01  0.3095E+02
     -8.673  0.2696E+01  0.3127E+02
     -8.564  0.1579E+01  0.3152E+02
     -8.455  0.1815E+01  0.3168E+02
     -8.346  0.2773E+01  0.3193E+02
     -8.238  0.9012E+01  0.3250E+02
     -8.129  0.4289E+01  0.3314E+02
     -8.020  0.3989E+01  0.3357E+02
     -7.911  0.4343E+01  0.3403E+02
     -7.803  0.7270E+01  0.3473E+02
     -7.694  0.6500E+01  0.3549E+02
     -7.585  0.7573E+01  0.3625E+02
     -7.476  0.8736E+01  0.3714E+02
     -7.367  0.7638E+01  0.3807E+02
     -7.259  0.6224E+01  0.3878E+02
     -7.150  0.5958E+01  0.3945E+02
     -7.041  0.5702E+01  0.4008E+02
     -6.932  0.5484E+01  0.4069E+02
     -6.824  0.5298E+01  0.4127E+02
     -6.715  0.5116E+01  0.4184E+02
     -6.606  0.4918E+01  0.4239E+02
     -6.497  0.4840E+01  0.4292E+02
     -6.388  0.4813E+01  0.4344E+02
     -6.280  0.4780E+01  0.4396E+02
     -6.171  0.4573E+01  0.4447E+02
     -6.062  0.4416E+01  0.4496E+02
     -5.953  0.3552E+01  0.4542E+02
     -5.844  0.4066E+01  0.4583E+02
     -5.736  0.4531E+01  0.4629E+02
     -5.627  0.5234E+01  0.4682E+02
     -5.518  0.6062E+01  0.4743E+02
     -5.409  0.8090E+01  0.4816E+02
     -5.301  0.1018E+02  0.4919E+02
     -5.192  0.7835E+01  0.5017E+02
     -5.083  0.5493E+01  0.5090E+02
     -4.974  0.3152E+01  0.5137E+02
     -4.865  0.2596E+01  0.5166E+02
     -4.757  0.3442E+01  0.5198E+02
     -4.648  0.4792E+01  0.5243E+02
     -4.539  0.6193E+01  0.5303E+02
     -4.430  0.7921E+01  0.5380E+02
     -4.322  0.7610E+01  0.5466E+02
     -4.213  0.6351E+01  0.5542E+02
     -4.104  0.5628E+01  0.5606E+02
     -3.995  0.7627E+01  0.5678E+02
     -3.886  0.7099E+01  0.5758E+02
     -3.778  0.6672E+01  0.5833E+02
     -3.669  0.6691E+01  0.5906E+02
     -3.560  0.6489E+01  0.5978E+02
     -3.451  0.1196E+02  0.6070E+02
     -3.343  0.8474E+01  0.6188E+02
     -3.234  0.8381E+01  0.6281E+02
     -3.125  0.7895E+01  0.6369E+02
     -3.016  0.6764E+01  0.6449E+02
     -2.907  0.7222E+01  0.6524E+02
     -2.799  0.8196E+01  0.6607E+02
     -2.690  0.9386E+01  0.6703E+02
     -2.581  0.1282E+02  0.6823E+02
     -2.472  0.1517E+02  0.6975E+02
     -2.363  0.1120E+02  0.7108E+02
     -2.255  0.1215E+02  0.7235E+02
     -2.146  0.1176E+02  0.7368E+02
     -2.037  0.1503E+02  0.7524E+02
     -1.928  0.1366E+02  0.7669E+02
     -1.820  0.1635E+02  0.7849E+02
     -1.711  0.1062E+02  0.7982E+02
     -1.602  0.2067E+02  0.8160E+02
     -1.493  0.1846E+02  0.8359E+02
     -1.384  0.1570E+02  0.8557E+02
     -1.276  0.1332E+02  0.8713E+02
     -1.167  0.1146E+02  0.8847E+02
     -1.058  0.9972E+01  0.8968E+02
     -0.949  0.8236E+01  0.9061E+02
     -0.841  0.9200E+01  0.9149E+02
     -0.732  0.1369E+02  0.9272E+02
     -0.623  0.1379E+02  0.9422E+02
     -0.514  0.9717E+01  0.9585E+02
     -0.405  0.8853E+01  0.9681E+02
     -0.297  0.9844E+01  0.9787E+02
     -0.188  0.1040E+02  0.9902E+02
     -0.079  0.1105E+02  0.1002E+03
      0.030  0.9867E+01  0.1013E+03
      0.138  0.9346E+01  0.1024E+03
      0.247  0.9928E+01  0.1034E+03
      0.356  0.9524E+01  0.1045E+03
      0.465  0.9625E+01  0.1056E+03
      0.574  0.9238E+01  0.1066E+03
      0.682  0.9367E+01  0.1076E+03
      0.791  0.9315E+01  0.1086E+03
      0.900  0.9303E+01  0.1096E+03
      1.009  0.9206E+01  0.1106E+03
      1.118  0.9295E+01  0.1116E+03
      1.226  0.9517E+01  0.1127E+03
      1.335  0.9414E+01  0.1137E+03
      1.444  0.9757E+01  0.1147E+03
      1.553  0.1008E+02  0.1158E+03
      1.661  0.7984E+01  0.1168E+03
      1.770  0.6409E+01  0.1175E+03
      1.879  0.6521E+01  0.1182E+03
      1.988  0.4935E+01  0.1188E+03
      2.097  0.3911E+01  0.1193E+03
      2.205  0.4326E+01  0.1198E+03
      2.314  0.7333E+01  0.1204E+03
      2.423  0.8211E+01  0.1212E+03
      2.532  0.6352E+01  0.1221E+03
      2.640  0.7816E+01  0.1227E+03
      2.749  0.7890E+01  0.1236E+03
      2.858  0.5653E+01  0.1243E+03
      2.967  0.4597E+01  0.1249E+03
      3.076  0.3883E+01  0.1253E+03
      3.184  0.3382E+01  0.1257E+03
      3.293  0.3198E+01  0.1261E+03
      3.402  0.2863E+01  0.1264E+03
      3.511  0.2493E+01  0.1267E+03
      3.619  0.2099E+01  0.1270E+03
      3.728  0.1846E+01  0.1272E+03
      3.837  0.1606E+01  0.1274E+03
      3.946  0.1364E+01  0.1275E+03
      4.055  0.1128E+01  0.1276E+03
      4.163  0.9331E+00  0.1278E+03
      4.272  0.7419E+00  0.1279E+03
      4.381  0.5302E+00  0.1279E+03
      4.490  0.3308E+00  0.1280E+03
      4.599  0.1412E+00  0.1280E+03
      4.707  0.8713E-02  0.1280E+03
      4.816  0.1359E+00  0.1280E+03
      4.925  0.2739E+00  0.1280E+03
      5.034  0.4242E+00  0.1281E+03
      5.142  0.5906E+00  0.1281E+03
      5.251  0.7756E+00  0.1282E+03
      5.360  0.9922E+00  0.1283E+03
      5.469  0.1348E+01  0.1284E+03
      5.578  0.1726E+01  0.1286E+03
      5.686  0.2061E+01  0.1288E+03
      5.795  0.2426E+01  0.1290E+03
      5.904  0.3301E+01  0.1293E+03
      6.013  0.3503E+01  0.1297E+03
      6.121  0.4524E+01  0.1301E+03
      6.230  0.8363E+01  0.1308E+03
      6.339  0.8297E+01  0.1319E+03
      6.448  0.8086E+01  0.1328E+03
      6.557  0.7903E+01  0.1337E+03
      6.665  0.7970E+01  0.1345E+03
      6.774  0.6239E+01  0.1353E+03
      6.883  0.5930E+01  0.1359E+03
      6.992  0.5650E+01  0.1366E+03
      7.100  0.4773E+01  0.1371E+03
      7.209  0.4050E+01  0.1376E+03
      7.318  0.3557E+01  0.1380E+03
      7.427  0.3570E+01  0.1384E+03
      7.536  0.3977E+01  0.1388E+03
      7.644  0.4383E+01  0.1393E+03
      7.753  0.4676E+01  0.1398E+03
      7.862  0.4735E+01  0.1403E+03
      7.971  0.4557E+01  0.1408E+03
      8.080  0.4392E+01  0.1413E+03
      8.188  0.4220E+01  0.1417E+03
      8.297  0.4028E+01  0.1422E+03
      8.406  0.3853E+01  0.1426E+03
      8.515  0.3704E+01  0.1430E+03
      8.623  0.3596E+01  0.1434E+03
      8.732  0.3520E+01  0.1438E+03
      8.841  0.3424E+01  0.1442E+03
      8.950  0.3306E+01  0.1446E+03
      9.059  0.3275E+01  0.1449E+03
      9.167  0.3538E+01  0.1453E+03
      9.276  0.3800E+01  0.1457E+03
      9.385  0.4001E+01  0.1461E+03
      9.494  0.4080E+01  0.1465E+03
      9.602  0.3904E+01  0.1470E+03
      9.711  0.3894E+01  0.1474E+03
      9.820  0.3902E+01  0.1478E+03
      9.929  0.3906E+01  0.1482E+03
     10.038  0.3927E+01  0.1487E+03
     10.146  0.3915E+01  0.1491E+03
     10.255  0.3939E+01  0.1495E+03
     10.364  0.3971E+01  0.1500E+03
     10.473  0.4045E+01  0.1504E+03
     10.581  0.4365E+01  0.1508E+03
     10.690  0.5126E+01  0.1514E+03
     10.799  0.5201E+01  0.1520E+03
     10.908  0.5135E+01  0.1525E+03
     11.017  0.4621E+01  0.1531E+03
     11.125  0.4625E+01  0.1536E+03
     11.234  0.3634E+01  0.1540E+03
     11.343  0.3495E+01  0.1544E+03
     11.452  0.3470E+01  0.1548E+03
     11.561  0.3938E+01  0.1552E+03
     11.669  0.4250E+01  0.1556E+03
     11.778  0.1918E+01  0.1560E+03
     11.887  0.4016E+01  0.1562E+03
     11.996  0.6515E+01  0.1568E+03
     12.104  0.7460E+01  0.1576E+03
     12.213  0.1173E+02  0.1586E+03
     12.322  0.1316E+02  0.1600E+03
     12.431  0.1431E+02  0.1615E+03
     12.540  0.1329E+02  0.1630E+03
     12.648  0.1036E+02  0.1643E+03
     12.757  0.7123E+01  0.1652E+03
     12.866  0.6027E+01  0.1659E+03
     12.975  0.5453E+01  0.1665E+03
     13.083  0.5281E+01  0.1672E+03
     13.192  0.3098E+01  0.1676E+03
     13.301  0.1683E+01  0.1679E+03
     13.410  0.4894E+00  0.1680E+03
     13.519  0.1098E-01  0.1680E+03
     13.627  0.1294E-02  0.1680E+03
     13.736  0.0000E+00  0.1680E+03
     13.845  0.0000E+00  0.1680E+03
     13.954  0.0000E+00  0.1680E+03
     14.062  0.0000E+00  0.1680E+03
     14.171  0.0000E+00  0.1680E+03
     14.280  0.0000E+00  0.1680E+03
     14.389  0.0000E+00  0.1680E+03
     14.498  0.0000E+00  0.1680E+03
     14.606  0.0000E+00  0.1680E+03
     14.715  0.0000E+00  0.1680E+03
     14.824  0.0000E+00  0.1680E+03
     14.933  0.0000E+00  0.1680E+03
     15.042  0.0000E+00  0.1680E+03
     15.150  0.0000E+00  0.1680E+03
     15.259  0.0000E+00  0.1680E+03
     15.368  0.0000E+00  0.1680E+03
     15.477  0.0000E+00  0.1680E+03
     15.585  0.0000E+00  0.1680E+03
     15.694  0.0000E+00  0.1680E+03
