   32   32    1    1
  0.8817899E+01  0.4932875E-09  0.4932875E-09  0.1339614E-08  0.5000000E-15
  1.000000000000000E-004
  CAR 
 graphite                                
    128    163     84
 
  0.0000000E+00  0.0000000E+00  0.0000000E+00  0.3086420E-02
    1      -14.940189
    2      -14.793507
    3      -14.792979
    4      -14.635981
    5       -9.615054
    6       -9.606716
    7       -9.604158
    8       -9.554324
    9       -9.553269
   10       -9.545538
   11       -9.542592
   12       -9.542537
   13       -9.539829
   14       -9.502889
   15       -9.492213
   16       -9.489009
   17       -8.538667
   18       -8.535205
   19       -8.533173
   20       -8.507555
   21       -8.504549
   22       -8.502057
   23       -8.501973
   24       -8.501737
   25       -8.497622
   26       -8.453698
   27       -8.448932
   28       -8.446843
   29       -3.814828
   30       -2.921383
   31       -2.919678
   32       -1.831737
   33       -1.711113
   34       -1.708401
   35       -1.689270
   36       -1.684095
   37       -1.680834
   38       -1.680827
   39       -1.679276
   40       -1.662152
   41       -1.659339
   42       -1.653785
   43       -1.651345
   44       -1.632008
   45        1.680607
   46        1.691928
   47        1.696226
   48        1.704071
   49        1.705016
   50        1.712327
   51        1.716971
   52        1.727930
   53        1.927695
   54        1.928763
   55        1.930084
   56        2.334762
   57        2.337502
   58        2.339324
   59        2.342817
   60        2.343391
   61        2.345178
   62        2.611274
   63        2.625102
   64        2.627859
   65        6.207653
   66        6.210700
   67        6.211699
   68        6.342049
   69        6.346896
   70        6.351871
   71        6.352527
   72        6.352884
   73        6.358308
   74        6.876210
   75        6.889537
   76        6.891933
   77        9.012408
   78       11.661437
   79       11.665359
   80       11.888166
   81       11.891953
   82       11.925723
   83       12.085321
   84       12.088691
 
  0.1111111E+00 -0.1387779E-16  0.0000000E+00  0.6172840E-02
    1      -14.866520
    2      -14.720391
    3      -14.719862
    4      -14.563606
    5      -10.403819
    6      -10.299035
    7      -10.298714
    8      -10.189771
    9       -9.864622
   10       -9.856398
   11       -9.774509
   12       -9.773984
   13       -9.765712
   14       -9.764728
   15       -9.683197
   16       -9.673840
   17       -8.237266
   18       -8.230836
   19       -8.166487
   20       -8.164206
   21       -8.158790
   22       -8.158147
   23       -8.085028
   24       -8.078016
   25       -7.718484
   26       -7.637304
   27       -7.634936
   28       -7.549358
   29       -3.725357
   30       -2.834307
   31       -2.832609
   32       -1.935911
   33       -1.916473
   34       -1.904617
   35       -1.904298
   36       -1.886291
   37       -1.883398
   38       -1.872567
   39       -1.852933
   40       -1.748131
   41       -1.637810
   42       -1.610616
   43       -1.608496
   44       -1.581291
   45        1.334547
   46        1.398510
   47        1.409942
   48        1.414564
   49        1.427116
   50        1.528160
   51        1.540064
   52        1.544004
   53        1.554702
   54        1.810612
   55        1.812755
   56        1.913970
   57        1.916231
   58        2.283300
   59        2.285790
   60        2.290015
   61        2.292427
   62        2.484732
   63        2.667214
   64        2.680457
   65        6.281607
   66        6.283982
   67        6.473531
   68        6.478274
   69        6.483454
   70        6.485069
   71        6.571796
   72        6.893264
   73        6.897466
   74        7.012143
   75        7.023714
   76        7.490971
   77        9.101097
   78       11.737601
   79       11.741428
   80       11.930507
   81       12.122431
   82       12.123581
   83       12.224517
   84       12.260384
 
  0.2222222E+00 -0.2775558E-16  0.0000000E+00  0.6172840E-02
    1      -14.645732
    2      -14.501485
    3      -14.500953
    4      -14.346839
    5      -11.415744
    6      -11.299089
    7      -11.298573
    8      -11.176030
    9      -10.212277
   10      -10.206557
   11      -10.109645
   12      -10.109372
   13      -10.103812
   14      -10.102811
   15      -10.002339
   16       -9.996218
   17       -7.557208
   18       -7.547961
   19       -7.478446
   20       -7.476550
   21       -7.468364
   22       -7.467838
   23       -7.393448
   24       -7.384109
   25       -6.392532
   26       -6.316589
   27       -6.314359
   28       -6.235459
   29       -3.457814
   30       -2.574176
   31       -2.572491
   32       -2.543158
   33       -2.524862
   34       -2.504901
   35       -2.504462
   36       -2.487690
   37       -2.484743
   38       -2.464996
   39       -2.446523
   40       -1.498524
   41       -1.422674
   42       -1.396190
   43       -1.393926
   44       -1.367321
   45        0.312929
   46        0.571498
   47        0.591415
   48        0.596067
   49        0.616611
   50        1.024822
   51        1.026592
   52        1.107916
   53        1.123718
   54        1.127788
   55        1.142993
   56        1.587369
   57        1.590276
   58        1.832924
   59        2.162242
   60        2.164127
   61        2.167563
   62        2.170169
   63        2.729947
   64        2.739080
   65        6.521620
   66        6.525560
   67        6.808372
   68        6.812890
   69        6.817896
   70        6.819401
   71        7.320639
   72        7.328640
   73        7.696311
   74        8.116004
   75        8.119344
   76        8.702479
   77        9.367886
   78       11.964549
   79       11.968119
   80       12.047058
   81       12.232138
   82       12.233345
   83       12.402182
   84       13.071433
 
  0.3333333E+00  0.2775558E-16  0.0000000E+00  0.6172840E-02
    1      -14.278988
    2      -14.137857
    3      -14.137321
    4      -13.986772
    5      -12.329226
    6      -12.204647
    7      -12.204084
    8      -12.072119
    9      -10.468867
   10      -10.465244
   11      -10.361662
   12      -10.361165
   13      -10.357955
   14      -10.356779
   15      -10.248881
   16      -10.245095
   17       -6.748846
   18       -6.738130
   19       -6.676384
   20       -6.674365
   21       -6.664788
   22       -6.664522
   23       -6.599137
   24       -6.588618
   25       -4.957951
   26       -4.892289
   27       -4.889859
   28       -4.822033
   29       -3.359035
   30       -3.343141
   31       -3.314204
   32       -3.313376
   33       -3.299188
   34       -3.296118
   35       -3.266732
   36       -3.250544
   37       -3.014763
   38       -2.144138
   39       -2.142485
   40       -1.086984
   41       -1.073637
   42       -1.048371
   43       -1.045881
   44       -1.020074
   45       -0.709653
   46       -0.614947
   47       -0.584096
   48       -0.579936
   49       -0.548806
   50        0.071336
   51        0.072989
   52        0.545110
   53        0.564402
   54        0.568021
   55        0.587309
   56        0.993082
   57        1.394514
   58        1.397091
   59        2.038470
   60        2.039716
   61        2.042002
   62        2.045014
   63        2.740249
   64        2.745835
   65        6.874637
   66        6.879891
   67        7.200435
   68        7.204772
   69        7.208552
   70        7.209897
   71        7.627190
   72        7.631759
   73        9.202048
   74        9.594080
   75        9.596859
   76        9.813023
   77       10.108649
   78       12.069483
   79       12.315072
   80       12.317979
   81       12.320402
   82       12.399990
   83       12.401504
   84       12.706580
 
  0.4444444E+00 -0.5551115E-16  0.0000000E+00  0.6172840E-02
    1      -13.768255
    2      -13.631450
    3      -13.630917
    4      -13.485296
    5      -13.116599
    6      -12.985312
    7      -12.984735
    8      -12.845349
    9      -10.600903
   10      -10.598888
   11      -10.492281
   12      -10.491272
   13      -10.490221
   14      -10.488571
   15      -10.377063
   16      -10.374971
   17       -5.997388
   18       -5.989386
   19       -5.945277
   20       -5.942541
   21       -5.936586
   22       -5.935777
   23       -5.890668
   24       -5.883688
   25       -4.105839
   26       -4.097177
   27       -4.069733
   28       -4.067727
   29       -4.061178
   30       -4.057653
   31       -4.026900
   32       -4.017178
   33       -3.476010
   34       -3.421975
   35       -3.419133
   36       -3.363385
   37       -2.401343
   38       -2.002542
   39       -1.960637
   40       -1.957301
   41       -1.913364
   42       -1.627014
   43       -1.549677
   44       -1.547921
   45       -0.804190
   46       -0.802535
   47       -0.607483
   48       -0.583368
   49       -0.580536
   50       -0.556249
   51       -0.521400
   52       -0.052001
   53       -0.029781
   54       -0.026702
   55       -0.004363
   56        0.182494
   57        1.288009
   58        1.289986
   59        1.964190
   60        1.965208
   61        1.966074
   62        1.969746
   63        2.729957
   64        2.732903
   65        7.158895
   66        7.162444
   67        7.468384
   68        7.472947
   69        7.474300
   70        7.475418
   71        7.796487
   72        7.799408
   73       10.433227
   74       10.827162
   75       11.132913
   76       11.136060
   77       11.220569
   78       11.562429
   79       12.422596
   80       12.470878
   81       12.479350
   82       12.505652
   83       12.595370
   84       12.609158
 
 -0.6776264E-20  0.1111111E+00  0.0000000E+00  0.6172840E-02
    1      -14.866522
    2      -14.720392
    3      -14.719864
    4      -14.563608
    5      -10.403746
    6      -10.298993
    7      -10.298581
    8      -10.189667
    9       -9.864635
   10       -9.856660
   11       -9.774518
   12       -9.773969
   13       -9.765742
   14       -9.765320
   15       -9.683149
   16       -9.674263
   17       -8.237373
   18       -8.229593
   19       -8.166792
   20       -8.164206
   21       -8.158776
   22       -8.155483
   23       -8.085139
   24       -8.076646
   25       -7.719426
   26       -7.637330
   27       -7.636825
   28       -7.550335
   29       -3.725352
   30       -2.834303
   31       -2.832602
   32       -1.937196
   33       -1.916404
   34       -1.906702
   35       -1.904607
   36       -1.886291
   37       -1.883495
   38       -1.873849
   39       -1.853092
   40       -1.748124
   41       -1.636373
   42       -1.608502
   43       -1.608012
   44       -1.580099
   45        1.335239
   46        1.396427
   47        1.409293
   48        1.409945
   49        1.422741
   50        1.532573
   51        1.544003
   52        1.545431
   53        1.556864
   54        1.810298
   55        1.812042
   56        1.915207
   57        1.916932
   58        2.283159
   59        2.285852
   60        2.288944
   61        2.291076
   62        2.485990
   63        2.667280
   64        2.678948
   65        6.282846
   66        6.284894
   67        6.473886
   68        6.478244
   69        6.483825
   70        6.488537
   71        6.569814
   72        6.892662
   73        6.894494
   74        7.012268
   75        7.025681
   76        7.489310
   77        9.101103
   78       11.737635
   79       11.741458
   80       11.930994
   81       12.123267
   82       12.123800
   83       12.224186
   84       12.265593
 
  0.1111111E+00  0.1111111E+00  0.0000000E+00  0.6172840E-02
    1      -14.719185
    2      -14.574292
    3      -14.573760
    4      -14.418922
    5      -10.869587
    6      -10.866568
    7      -10.759680
    8      -10.756962
    9      -10.756934
   10      -10.753586
   11      -10.641537
   12      -10.638441
   13       -9.425751
   14       -9.366315
   15       -9.364465
   16       -9.315611
   17       -8.353903
   18       -8.324404
   19       -8.321671
   20       -8.273050
   21       -7.036123
   22       -7.032958
   23       -6.956923
   24       -6.954900
   25       -6.954874
   26       -6.950370
   27       -6.872090
   28       -6.868666
   29       -3.546744
   30       -2.660630
   31       -2.658941
   32       -2.600424
   33       -2.562624
   34       -2.559934
   35       -2.521374
   36       -1.792664
   37       -1.789747
   38       -1.763164
   39       -1.759754
   40       -1.759747
   41       -1.757866
   42       -1.730008
   43       -1.727523
   44       -1.581461
   45        0.869321
   46        0.880977
   47        0.884486
   48        0.894232
   49        0.898727
   50        0.905589
   51        1.213514
   52        1.224244
   53        1.228087
   54        1.237863
   55        1.553798
   56        1.556894
   57        1.557156
   58        1.559419
   59        2.195952
   60        2.266267
   61        2.268844
   62        2.600998
   63        2.604431
   64        2.872356
   65        6.194130
   66        6.270140
   67        6.274397
   68        6.700840
   69        7.048265
   70        7.051023
   71        7.434832
   72        7.436279
   73        7.436443
   74        7.440886
   75        8.015663
   76        8.018128
   77        9.279168
   78       11.890876
   79       11.894551
   80       12.303341
   81       12.307112
   82       12.492763
   83       12.497036
   84       12.499701
 
  0.2222222E+00  0.1111111E+00  0.0000000E+00  0.6172840E-02
    1      -14.425318
    2      -14.282915
    3      -14.282377
    4      -14.130415
    5      -11.835499
    6      -11.715263
    7      -11.714743
    8      -11.587890
    9      -11.210682
   10      -11.096069
   11      -11.095607
   12      -10.974899
   13       -9.478433
   14       -9.392011
   15       -9.390840
   16       -9.304026
   17       -7.890056
   18       -7.824081
   19       -7.821854
   20       -7.748350
   21       -6.250596
   22       -6.177067
   23       -6.176839
   24       -6.100562
   25       -5.651404
   26       -5.581255
   27       -5.578997
   28       -5.506407
   29       -3.509304
   30       -3.463184
   31       -3.460538
   32       -3.412952
   33       -3.191315
   34       -2.317887
   35       -2.315280
   36       -2.313641
   37       -2.280946
   38       -2.280129
   39       -2.242434
   40       -1.505547
   41       -1.476559
   42       -1.474368
   43       -1.445075
   44       -1.250653
   45       -0.144961
   46       -0.085752
   47       -0.065288
   48       -0.060002
   49       -0.039575
   50        0.563398
   51        0.604501
   52        0.606165
   53        0.669118
   54        0.684170
   55        0.688563
   56        0.703395
   57        1.268457
   58        1.270228
   59        1.476161
   60        2.069343
   61        2.330380
   62        2.803283
   63        2.806559
   64        3.186137
   65        6.165002
   66        6.279044
   67        6.283118
   68        6.645322
   69        7.621233
   70        8.005544
   71        8.007363
   72        8.401149
   73        8.501283
   74        8.807024
   75        8.809853
   76        9.337031
   77        9.636210
   78       12.194210
   79       12.197495
   80       12.430064
   81       12.635433
   82       12.636694
   83       12.679953
   84       13.058703
 
  0.3333333E+00  0.1111111E+00  0.0000000E+00  0.6172840E-02
    1      -13.986460
    2      -13.847797
    3      -13.847254
    4      -13.699542
    5      -12.686595
    6      -12.558880
    7      -12.558330
    8      -12.423094
    9      -11.419777
   10      -11.303023
   11      -11.302584
   12      -11.179785
   13       -9.623072
   14       -9.526228
   15       -9.525512
   16       -9.424954
   17       -7.124280
   18       -7.057686
   19       -7.055612
   20       -6.986181
   21       -5.450313
   22       -5.389834
   23       -5.389139
   24       -5.327216
   25       -4.447746
   26       -4.399916
   27       -4.397126
   28       -4.346365
   29       -4.200716
   30       -4.141739
   31       -4.139265
   32       -4.078755
   33       -3.016500
   34       -2.977345
   35       -2.975705
   36       -2.934143
   37       -2.662720
   38       -1.803279
   39       -1.801698
   40       -1.333967
   41       -1.299754
   42       -1.295536
   43       -1.262069
   44       -1.120693
   45       -1.089073
   46       -1.061650
   47       -1.059290
   48       -1.031679
   49       -0.761500
   50       -0.318990
   51       -0.317351
   52        0.044602
   53        0.065170
   54        0.069124
   55        0.089860
   56        0.353290
   57        0.636004
   58        1.084378
   59        1.086219
   60        1.933079
   61        2.326596
   62        2.893468
   63        2.896298
   64        3.463487
   65        6.148068
   66        6.399160
   67        6.402618
   68        6.746437
   69        8.129482
   70        8.460171
   71        8.462239
   72        8.826048
   73        9.967255
   74       10.170550
   75       10.313503
   76       10.316427
   77       10.756258
   78       11.743912
   79       12.590023
   80       12.593630
   81       12.705661
   82       12.812741
   83       12.814326
   84       13.064350
 
  0.4444444E+00  0.1111111E+00  0.0000000E+00  0.6172840E-02
    1      -13.407151
    2      -13.404173
    3      -13.274295
    4      -13.272278
    5      -13.271328
    6      -13.268521
    7      -13.130684
    8      -13.127635
    9      -11.490360
   10      -11.373138
   11      -11.372709
   12      -11.249185
   13       -9.678094
   14       -9.579153
   15       -9.578602
   16       -9.475496
   17       -6.612895
   18       -6.570185
   19       -6.568257
   20       -6.527740
   21       -4.976825
   22       -4.968626
   23       -4.944125
   24       -4.942482
   25       -4.940273
   26       -4.938949
   27       -4.909232
   28       -4.905404
   29       -3.429493
   30       -3.407022
   31       -3.403548
   32       -3.375906
   33       -2.740458
   34       -2.737308
   35       -2.693350
   36       -2.692427
   37       -2.691364
   38       -2.686164
   39       -2.643290
   40       -2.639355
   41       -1.969606
   42       -1.967164
   43       -1.134365
   44       -1.131669
   45       -1.130855
   46       -1.128530
   47       -0.564630
   48       -0.557910
   49       -0.540052
   50       -0.534099
   51       -0.531895
   52       -0.531127
   53       -0.509613
   54       -0.505516
   55       -0.126874
   56       -0.124117
   57        0.281392
   58        1.020715
   59        1.022654
   60        1.884267
   61        2.314243
   62        2.916634
   63        2.918969
   64        3.567411
   65        6.154160
   66        6.467619
   67        6.470246
   68        6.801953
   69        8.348487
   70        8.636903
   71        8.639389
   72        8.926567
   73       10.877429
   74       10.879094
   75       11.561786
   76       11.565366
   77       11.805177
   78       11.808086
   79       11.809181
   80       11.814082
   81       12.168421
   82       12.171562
   83       12.937344
   84       12.941573
 
 -0.4444444E+00  0.1111111E+00  0.0000000E+00  0.6172840E-02
    1      -13.987225
    2      -13.848552
    3      -13.848026
    4      -13.700305
    5      -12.685383
    6      -12.557690
    7      -12.557110
    8      -12.421877
    9      -11.421557
   10      -11.304839
   11      -11.304412
   12      -11.181588
   13       -9.620394
   14       -9.523237
   15       -9.522752
   16       -9.421933
   17       -7.115911
   18       -7.048515
   19       -7.048122
   20       -6.978015
   21       -5.461714
   22       -5.401680
   23       -5.399526
   24       -5.338011
   25       -4.459884
   26       -4.411488
   27       -4.410368
   28       -4.358984
   29       -4.202922
   30       -4.144126
   31       -4.141295
   32       -4.080960
   33       -3.002117
   34       -2.963570
   35       -2.960172
   36       -2.919226
   37       -2.663462
   38       -1.804005
   39       -1.802418
   40       -1.333879
   41       -1.299118
   42       -1.296333
   43       -1.262421
   44       -1.119613
   45       -1.086935
   46       -1.059752
   47       -1.057004
   48       -1.029571
   49       -0.762197
   50       -0.317956
   51       -0.316303
   52        0.044893
   53        0.065621
   54        0.068115
   55        0.089296
   56        0.351896
   57        0.636965
   58        1.082586
   59        1.084671
   60        1.930899
   61        2.327281
   62        2.896332
   63        2.898301
   64        3.469635
   65        6.149137
   66        6.402841
   67        6.404819
   68        6.748015
   69        8.123936
   70        8.455068
   71        8.457981
   72        8.823780
   73        9.967679
   74       10.169528
   75       10.312877
   76       10.316201
   77       10.755148
   78       11.745352
   79       12.590174
   80       12.593660
   81       12.702371
   82       12.809362
   83       12.811648
   84       13.062516
 
 -0.3333333E+00  0.1111111E+00  0.0000000E+00  0.6172840E-02
    1      -14.425856
    2      -14.283453
    3      -14.282928
    4      -14.130953
    5      -11.834077
    6      -11.713859
    7      -11.713299
    8      -11.586467
    9      -11.214270
   10      -11.099687
   11      -11.099248
   12      -10.978546
   13       -9.472656
   14       -9.385344
   15       -9.384902
   16       -9.297060
   17       -7.883325
   18       -7.815957
   19       -7.815651
   20       -7.740886
   21       -6.262182
   22       -6.189269
   23       -6.187613
   24       -6.111932
   25       -5.653729
   26       -5.583653
   27       -5.581251
   28       -5.508747
   29       -3.525152
   30       -3.478079
   31       -3.477496
   32       -3.428957
   33       -3.191855
   34       -2.315858
   35       -2.314182
   36       -2.299543
   37       -2.263756
   38       -2.260695
   39       -2.223953
   40       -1.503838
   41       -1.474952
   42       -1.472524
   43       -1.443352
   44       -1.251165
   45       -0.143862
   46       -0.089507
   47       -0.068195
   48       -0.065556
   49       -0.044807
   50        0.560849
   51        0.605526
   52        0.607287
   53        0.674743
   54        0.689454
   55        0.691192
   56        0.706692
   57        1.264964
   58        1.267261
   59        1.477109
   60        2.064887
   61        2.330780
   62        2.808590
   63        2.810389
   64        3.198103
   65        6.164089
   66        6.285156
   67        6.286959
   68        6.651259
   69        7.614128
   70        7.997282
   71        8.000512
   72        8.401014
   73        8.495534
   74        8.806056
   75        8.809244
   76        9.335691
   77        9.635460
   78       12.193668
   79       12.196939
   80       12.427926
   81       12.632921
   82       12.634556
   83       12.679433
   84       13.058361
 
 -0.2222222E+00  0.1111111E+00  0.0000000E+00  0.6172840E-02
    1      -14.719486
    2      -14.574622
    3      -14.574097
    4      -14.419257
    5      -10.873450
    6      -10.866433
    7      -10.762521
    8      -10.762035
    9      -10.755424
   10      -10.754966
   11      -10.645599
   12      -10.638465
   13       -9.416268
   14       -9.354943
   15       -9.354551
   16       -9.303669
   17       -8.351004
   18       -8.319579
   19       -8.319180
   20       -8.268635
   21       -7.044852
   22       -7.036175
   23       -6.965324
   24       -6.963833
   25       -6.957062
   26       -6.954797
   27       -6.880770
   28       -6.872174
   29       -3.547072
   30       -2.660956
   31       -2.659262
   32       -2.618208
   33       -2.579330
   34       -2.578917
   35       -2.539292
   36       -1.790681
   37       -1.770807
   38       -1.760748
   39       -1.758553
   40       -1.741303
   41       -1.738331
   42       -1.728362
   43       -1.708489
   44       -1.581736
   45        0.857093
   46        0.870099
   47        0.871064
   48        0.883228
   49        0.897372
   50        0.901665
   51        1.228216
   52        1.237891
   53        1.238631
   54        1.249329
   55        1.551137
   56        1.553709
   57        1.556581
   58        1.558588
   59        2.195842
   60        2.261149
   61        2.267749
   62        2.607801
   63        2.609560
   64        2.887762
   65        6.191352
   66        6.277577
   67        6.279466
   68        6.711206
   69        7.042720
   70        7.050331
   71        7.425961
   72        7.429469
   73        7.435193
   74        7.439021
   75        8.007774
   76        8.016278
   77        9.278702
   78       11.890451
   79       11.894123
   80       12.303082
   81       12.338928
   82       12.494769
   83       12.497864
   84       12.530436
 
 -0.1111111E+00  0.1111111E+00  0.0000000E+00  0.6172840E-02
    1      -14.866631
    2      -14.720499
    3      -14.719974
    4      -14.563716
    5      -10.411116
    6      -10.306602
    7      -10.305987
    8      -10.197364
    9       -9.856298
   10       -9.854148
   11       -9.766581
   12       -9.764298
   13       -9.764254
   14       -9.761986
   15       -9.674109
   16       -9.671676
   17       -8.232870
   18       -8.230975
   19       -8.160755
   20       -8.160410
   21       -8.160345
   22       -8.156895
   23       -8.080122
   24       -8.078195
   25       -7.727075
   26       -7.645496
   27       -7.643952
   28       -7.558085
   29       -3.725462
   30       -2.834412
   31       -2.832709
   32       -1.937523
   33       -1.934895
   34       -1.907444
   35       -1.904212
   36       -1.904204
   37       -1.902682
   38       -1.873985
   39       -1.871769
   40       -1.748229
   41       -1.616683
   42       -1.589916
   43       -1.586970
   44       -1.560164
   45        1.331411
   46        1.380626
   47        1.393638
   48        1.397847
   49        1.409670
   50        1.545930
   51        1.556130
   52        1.560911
   53        1.572938
   54        1.811693
   55        1.813737
   56        1.908847
   57        1.911776
   58        2.287215
   59        2.291057
   60        2.291577
   61        2.292784
   62        2.476206
   63        2.678352
   64        2.681031
   65        6.282382
   66        6.285382
   67        6.482204
   68        6.483407
   69        6.483750
   70        6.488988
   71        6.566406
   72        6.883433
   73        6.887238
   74        7.022555
   75        7.025053
   76        7.479522
   77        9.100944
   78       11.737475
   79       11.741301
   80       11.965497
   81       12.157461
   82       12.159202
   83       12.223501
   84       12.225965
 
 -0.1355253E-19  0.2222222E+00  0.0000000E+00  0.6172840E-02
    1      -14.645738
    2      -14.501488
    3      -14.500964
    4      -14.346846
    5      -11.415782
    6      -11.299098
    7      -11.298634
    8      -11.176063
    9      -10.212438
   10      -10.206496
   11      -10.110042
   12      -10.109449
   13      -10.103803
   14      -10.102490
   15      -10.002430
   16       -9.996183
   17       -7.557366
   18       -7.546863
   19       -7.478844
   20       -7.476551
   21       -7.468342
   22       -7.465340
   23       -7.393517
   24       -7.382851
   25       -6.393407
   26       -6.316614
   27       -6.316145
   28       -6.236398
   29       -3.457795
   30       -2.574156
   31       -2.572466
   32       -2.544446
   33       -2.524925
   34       -2.506863
   35       -2.504891
   36       -2.487690
   37       -2.484960
   38       -2.466181
   39       -2.446665
   40       -1.498494
   41       -1.421169
   42       -1.393932
   43       -1.393496
   44       -1.366098
   45        0.313369
   46        0.569661
   47        0.591402
   48        0.591581
   49        0.613570
   50        1.025421
   51        1.027115
   52        1.111344
   53        1.127785
   54        1.128342
   55        1.144822
   56        1.586872
   57        1.589830
   58        1.833691
   59        2.161864
   60        2.163565
   61        2.167410
   62        2.168970
   63        2.729864
   64        2.737752
   65        6.521894
   66        6.527391
   67        6.808847
   68        6.812864
   69        6.818328
   70        6.822704
   71        7.320916
   72        7.330529
   73        7.694765
   74        8.115449
   75        8.117241
   76        8.701212
   77        9.367903
   78       11.964674
   79       11.968236
   80       12.047649
   81       12.233029
   82       12.233633
   83       12.402762
   84       13.073400
 
  0.1111111E+00  0.2222222E+00  0.0000000E+00  0.6172840E-02
    1      -14.425323
    2      -14.282916
    3      -14.282385
    4      -14.130420
    5      -11.835552
    6      -11.715279
    7      -11.714832
    8      -11.587942
    9      -11.210643
   10      -11.096059
   11      -11.095545
   12      -10.974867
   13       -9.478423
   14       -9.392011
   15       -9.390824
   16       -9.304020
   17       -7.890000
   18       -7.823962
   19       -7.821854
   20       -7.748285
   21       -6.249613
   22       -6.176982
   23       -6.174894
   24       -6.099513
   25       -5.652366
   26       -5.581292
   27       -5.580964
   28       -5.507452
   29       -3.509381
   30       -3.463184
   31       -3.460701
   32       -3.413039
   33       -3.191300
   34       -2.319302
   35       -2.315282
   36       -2.313620
   37       -2.282843
   38       -2.280939
   39       -2.243721
   40       -1.503992
   41       -1.474373
   42       -1.473718
   43       -1.443763
   44       -1.250629
   45       -0.144619
   46       -0.086511
   47       -0.065289
   48       -0.062043
   49       -0.041310