 running on    6 total cores
 distrk:  each k-point on    6 cores,    1 groups
 distr:  one band on    1 cores,    6 groups
 using from now: INCAR     
 vasp.5.3.5 31Mar14 (build Nov 02 2014 15:17:37) complex                        
  
 POSCAR found :  1 types and      32 ions
 scaLAPACK will be used

 ----------------------------------------------------------------------------- 
|                                                                             |
|           W    W    AA    RRRRR   N    N  II  N    N   GGGG   !!!           |
|           W    W   A  A   R    R  NN   N  II  NN   N  G    G  !!!           |
|           W    W  A    A  R    R  N N  N  II  N N  N  G       !!!           |
|           W WW W  AAAAAA  RRRRR   N  N N  II  N  N N  G  GGG   !            |
|           WW  WW  A    A  R   R   N   NN  II  N   NN  G    G                |
|           W    W  A    A  R    R  N    N  II  N    N   GGGG   !!!           |
|                                                                             |
|      For optimal performance we recommend to set                            |
|        NCORE= 4 - approx SQRT( number of cores)                             |
|      NCORE specifies how many cores store one orbital (NPAR=cpu/NCORE).     |
|      This setting can  greatly improve the performance of VASP for DFT.     |
|      The default, NPAR=number of cores might be grossly inefficient         |
|      on modern multi-core architectures or massively parallel machines.     |
|      Do your own testing !!!!                                               |
|      Unfortunately you need to use the default for GW and RPA calculations. |
|      (for HF NCORE is supported but not extensively tested yet)             |
|                                                                             |
 ----------------------------------------------------------------------------- 


 ----------------------------------------------------------------------------- 
|                                                                             |
|  ADVICE TO THIS USER RUNNING 'VASP/VAMP'   (HEAR YOUR MASTER'S VOICE ...):  |
|                                                                             |
|      You have a (more or less) 'large supercell' and for larger cells       |
|      it might be more efficient to use real space projection operators      |
|      So try LREAL= Auto  in the INCAR   file.                               |
|      Mind: If you want to do a very accurate calculations keep the          |
|      reciprocal projection scheme          (i.e. LREAL=.FALSE.)             |
|                                                                             |
 ----------------------------------------------------------------------------- 

 LDA part: xc-table for Pade appr. of Perdew
 POSCAR, INCAR and KPOINTS ok, starting setup
 WARNING: small aliasing (wrap around) errors must be expected
 FFT: planning ...
 WAVECAR not read
 WARNING: random wavefunctions but no delay for mixing, default for NELMDL
 entering main loop
       N       E                     dE             d eps       ncg     rms          rms(c)
DAV:   1     0.592127562558E+03    0.59213E+03   -0.71765E+04 27384   0.160E+03
DAV:   2    -0.263095502458E+03   -0.85522E+03   -0.82408E+03 33996   0.311E+02
DAV:   3    -0.312643718825E+03   -0.49548E+02   -0.49071E+02 33288   0.753E+01
DAV:   4    -0.313583368550E+03   -0.93965E+00   -0.93782E+00 34872   0.112E+01
DAV:   5    -0.313610050022E+03   -0.26681E-01   -0.26670E-01 35004   0.178E+00    0.221E+01
DAV:   6    -0.299164264516E+03    0.14446E+02   -0.14906E+01 31296   0.107E+01    0.116E+01
DAV:   7    -0.294591154190E+03    0.45731E+01   -0.15621E+01 30948   0.110E+01    0.193E+00
DAV:   8    -0.294654093164E+03   -0.62939E-01   -0.39489E-01 30912   0.181E+00    0.288E-01
DAV:   9    -0.294655351646E+03   -0.12585E-02   -0.20266E-02 33060   0.451E-01    0.140E-01
DAV:  10    -0.294655774729E+03   -0.42308E-03   -0.36090E-03 32652   0.186E-01    0.948E-02
DAV:  11    -0.294656610515E+03   -0.83579E-03   -0.36301E-03 31440   0.161E-01    0.658E-02
DAV:  12    -0.294656563374E+03    0.47141E-04   -0.88552E-04 31824   0.951E-02    0.280E-02
DAV:  13    -0.294656647865E+03   -0.84491E-04   -0.39824E-04 33048   0.569E-02    0.268E-02
DAV:  14    -0.294656643495E+03    0.43694E-05   -0.42733E-04 32952   0.441E-02    0.150E-02
DAV:  15    -0.294656639196E+03    0.42992E-05   -0.10855E-04 29484   0.228E-02    0.694E-03
DAV:  16    -0.294656638545E+03    0.65118E-06   -0.30421E-05 27804   0.123E-02    0.448E-03
DAV:  17    -0.294656638994E+03   -0.44864E-06   -0.42168E-06 19908   0.575E-03
   1 F= -.29966960E+03 E0= -.29966960E+03  d E =0.000000E+00
