 running on    2 total cores
 distrk:  each k-point on    2 cores,    1 groups
 distr:  one band on    1 cores,    2 groups
 using from now: INCAR     
 vasp.5.3.5 31Mar14 (build Nov 02 2014 15:17:37) complex                        
  
 POSCAR found :  1 types and      32 ions
 scaLAPACK will be used

 ----------------------------------------------------------------------------- 
|                                                                             |
|  ADVICE TO THIS USER RUNNING 'VASP/VAMP'   (HEAR YOUR MASTER'S VOICE ...):  |
|                                                                             |
|      You have a (more or less) 'large supercell' and for larger cells       |
|      it might be more efficient to use real space projection operators      |
|      So try LREAL= Auto  in the INCAR   file.                               |
|      Mind: If you want to do a very accurate calculations keep the          |
|      reciprocal projection scheme          (i.e. LREAL=.FALSE.)             |
|                                                                             |
 ----------------------------------------------------------------------------- 

 LDA part: xc-table for Pade appr. of Perdew
 POSCAR, INCAR and KPOINTS ok, starting setup
 WARNING: small aliasing (wrap around) errors must be expected
 FFT: planning ...
 WAVECAR not read
 WARNING: random wavefunctions but no delay for mixing, default for NELMDL
 entering main loop
       N       E                     dE             d eps       ncg     rms          rms(c)
DAV:   1     0.618637612374E+03    0.61864E+03   -0.71484E+04 26764   0.164E+03
DAV:   2    -0.258110257001E+03   -0.87675E+03   -0.83189E+03 33490   0.322E+02
DAV:   3    -0.312347672078E+03   -0.54237E+02   -0.53526E+02 31636   0.804E+01
DAV:   4    -0.313567774277E+03   -0.12201E+01   -0.12169E+01 32976   0.129E+01
DAV:   5    -0.313609720136E+03   -0.41946E-01   -0.41925E-01 33752   0.217E+00    0.221E+01
DAV:   6    -0.299164789075E+03    0.14445E+02   -0.14946E+01 29886   0.110E+01    0.116E+01
DAV:   7    -0.294592119239E+03    0.45727E+01   -0.15664E+01 29530   0.112E+01    0.193E+00
DAV:   8    -0.294654075847E+03   -0.61957E-01   -0.36698E-01 30014   0.184E+00    0.291E-01
DAV:   9    -0.294655385962E+03   -0.13101E-02   -0.14678E-02 31778   0.470E-01    0.141E-01
DAV:  10    -0.294655775596E+03   -0.38963E-03   -0.15881E-03 31136   0.192E-01    0.927E-02
DAV:  11    -0.294656636129E+03   -0.86053E-03   -0.81647E-04 30258   0.170E-01    0.633E-02
DAV:  12    -0.294656576975E+03    0.59153E-04   -0.18218E-04 30360   0.892E-02    0.352E-02
DAV:  13    -0.294656685022E+03   -0.10805E-03   -0.89778E-05 37592   0.925E-02    0.415E-02
DAV:  14    -0.294656639390E+03    0.45632E-04   -0.61364E-05 31876   0.727E-02    0.122E-02
DAV:  15    -0.294656638481E+03    0.90963E-06   -0.18645E-05 30040   0.255E-02    0.554E-03
DAV:  16    -0.294656638236E+03    0.24482E-06   -0.46762E-06 27112   0.107E-02
   1 F= -.29966960E+03 E0= -.29966960E+03  d E =0.000000E+00
