   32   32    1    1
  0.5317807E+01  0.4934311E-09  0.4934311E-09  0.8070891E-09  0.5000000E-15
  1.000000000000000E-004
  CAR 
 graphite                                
    128    163     84
 
  0.0000000E+00  0.0000000E+00  0.0000000E+00  0.3086420E-02
    1      -11.766833
    2       -9.984522
    3       -9.977655
    4       -6.260955
    5       -6.070593
    6       -6.069630
    7       -6.069361
    8       -5.093450
    9       -5.092340
   10       -5.090589
   11       -4.504988
   12       -4.497258
   13       -4.496403
   14       -4.495755
   15       -4.494849
   16       -4.487096
   17       -3.409700
   18       -3.407870
   19       -3.404586
   20       -3.404409
   21       -3.400548
   22       -3.399569
   23       -1.842147
   24       -1.146035
   25       -1.145439
   26       -1.144311
   27       -0.990713
   28       -0.989021
   29       -0.987208
   30        2.872870
   31        2.875623
   32        2.876834
   33        3.906342
   34        3.910052
   35        3.911494
   36        3.912263
   37        3.914837
   38        3.917825
   39        3.955480
   40        3.956057
   41        3.956499
   42        4.937745
   43        4.946522
   44        5.171684
   45        5.174874
   46        5.176805
   47        6.826381
   48        6.831190
   49        7.238881
   50        7.241471
   51        7.242815
   52        7.360155
   53        7.364431
   54        7.369636
   55        7.375691
   56        7.870559
   57        7.877682
   58        9.398633
   59        9.414188
   60        9.414516
   61        9.416276
   62        9.416673
   63        9.432061
   64       11.630391
   65       12.311592
   66       12.325785
   67       12.327147
   68       12.328699
   69       12.330025
   70       12.344324
   71       14.829539
   72       14.834748
   73       14.838330
   74       14.908109
   75       14.909835
   76       14.912711
   77       17.806394
   78       17.809707
   79       17.811568
   80       18.023375
   81       18.038441
   82       18.050376
   83       18.053768
   84       18.056846
 
  0.1111111E+00 -0.1387779E-16  0.0000000E+00  0.6172840E-02
    1      -11.688698
    2       -9.908077
    3       -9.901217
    4       -6.926193
    5       -6.335331
    6       -6.333288
    7       -6.195423
    8       -5.287671
    9       -5.281301
   10       -4.734179
   11       -4.728353
   12       -4.726072
   13       -4.723447
   14       -4.698434
   15       -4.695860
   16       -4.139235
   17       -3.049695
   18       -3.047516
   19       -3.044045
   20       -3.041340
   21       -2.506673
   22       -2.500622
   23       -2.072581
   24       -1.751400
   25       -1.555332
   26       -1.553070
   27       -0.483435
   28       -0.480808
   29        0.057543
   30        2.601156
   31        2.604011
   32        2.952570
   33        3.409025
   34        3.648142
   35        3.652785
   36        3.655064
   37        3.656628
   38        3.856753
   39        3.858157
   40        3.983548
   41        3.988904
   42        4.993639
   43        4.997355
   44        5.004533
   45        5.013194
   46        5.242997
   47        6.414611
   48        6.597393
   49        7.051851
   50        7.060212
   51        7.203261
   52        7.211631
   53        7.487042
   54        7.490461
   55        7.678824
   56        7.814492
   57        7.908951
   58        9.058204
   59        9.069536
   60        9.360471
   61        9.372521
   62        9.374450
   63        9.383207
   64       11.675226
   65       12.473722
   66       12.482841
   67       12.485827
   68       12.496916
   69       12.703320
   70       12.714981
   71       14.593061
   72       14.595966
   73       14.778171
   74       14.899275
   75       15.246421
   76       15.253048
   77       17.867309
   78       17.870358
   79       17.939157
   80       17.996955
   81       18.169537
   82       18.193114
   83       18.203025
   84       18.246362
 
  0.2222222E+00 -0.4163336E-16  0.0000000E+00  0.6172840E-02
    1      -11.454563
    2       -9.679174
    3       -9.672335
    4       -8.013632
    5       -6.712482
    6       -6.710239
    7       -6.331980
    8       -6.325477
    9       -5.999248
   10       -5.083945
   11       -5.079342
   12       -5.076410
   13       -5.073452
   14       -3.942436
   15       -3.938960
   16       -3.301110
   17       -2.385826
   18       -2.324690
   19       -2.322437
   20       -2.319103
   21       -2.316086
   22       -1.912256
   23       -1.910057
   24       -1.479889
   25       -1.127307
   26       -1.121366
   27        0.126368
   28        0.129324
   29        1.259696
   30        1.934962
   31        1.937484
   32        2.373381
   33        2.965955
   34        2.970725
   35        2.972577
   36        2.974773
   37        3.181121
   38        3.644195
   39        3.646318
   40        4.200993
   41        4.206409
   42        4.502900
   43        4.506244
   44        5.173168
   45        5.181399
   46        5.356487
   47        5.442940
   48        6.038618
   49        6.240520
   50        6.247692
   51        6.773855
   52        6.781733
   53        7.088109
   54        7.573161
   55        8.140592
   56        8.144372
   57        8.324354
   58        8.334485
   59        9.264955
   60        9.275524
   61        9.278989
   62        9.280851
   63        9.290937
   64       11.801779
   65       12.835373
   66       12.844846
   67       12.848318
   68       12.859721
   69       13.522410
   70       13.532775
   71       13.782450
   72       13.785655
   73       14.490294
   74       15.094644
   75       16.378949
   76       16.385264
   77       17.558729
   78       17.645452
   79       17.652916
   80       17.970101
   81       17.974226
   82       18.208752
   83       18.487820
   84       18.497838
 
  0.3333333E+00  0.2775558E-16  0.0000000E+00  0.6172840E-02
    1      -11.065479
    2       -9.298957
    3       -9.292160
    4       -8.990554
    5       -7.278300
    6       -7.271681
    7       -6.989462
    8       -6.987219
    9       -5.673854
   10       -5.347064
   11       -5.342892
   12       -5.339716
   13       -5.336811
   14       -3.961800
   15       -3.101888
   16       -3.097360
   17       -2.103908
   18       -2.101842
   19       -1.472936
   20       -1.470372
   21       -1.467206
   22       -1.463891
   23       -1.030121
   24       -0.968079
   25        0.321374
   26        0.324630
   27        0.359748
   28        0.365634
   29        1.323776
   30        1.526598
   31        1.528805
   32        2.061976
   33        2.066785
   34        2.068427
   35        2.071014
   36        2.515911
   37        3.445103
   38        3.447538
   39        3.554630
   40        3.801875
   41        3.804958
   42        3.926389
   43        4.554407
   44        4.560009
   45        4.779203
   46        4.785246
   47        5.356227
   48        5.762280
   49        5.764396
   50        5.770908
   51        6.164699
   52        6.199117
   53        6.206521
   54        7.162657
   55        7.533171
   56        7.542683
   57        9.046719
   58        9.050792
   59        9.175780
   60        9.187529
   61        9.189307
   62        9.198444
   63       10.751075
   64       11.978252
   65       12.715178
   66       12.718676
   67       13.207860
   68       13.217680
   69       13.221364
   70       13.233268
   71       14.264906
   72       14.438165
   73       14.447536
   74       15.415926
   75       16.946950
   76       16.954199
   77       16.982806
   78       16.991263
   79       18.003633
   80       18.009471
   81       18.038728
   82       18.043915
   83       19.015524
   84       19.029776
 
  0.4444444E+00 -0.8326673E-16  0.0000000E+00  0.6172840E-02
    1      -10.522898
    2       -9.829697
    3       -8.769575
    4       -8.762818
    5       -8.094065
    6       -8.087370
    7       -7.132185
    8       -7.129949
    9       -5.483637
   10       -5.479627
   11       -5.476361
   12       -5.473486
   13       -5.221077
   14       -4.645967
   15       -2.591360
   16       -2.586720
   17       -1.873162
   18       -1.871372
   19       -0.679586
   20       -0.677630
   21       -0.674846
   22       -0.670545
   23       -0.405563
   24       -0.368452
   25       -0.365289
   26        0.384440
   27        0.659326
   28        1.215526
   29        1.220146
   30        1.222316
   31        1.224554
   32        1.893790
   33        1.899759
   34        2.059726
   35        2.062188
   36        2.319172
   37        3.031919
   38        3.034735
   39        3.331822
   40        3.334428
   41        3.411621
   42        3.417485
   43        3.790384
   44        4.059716
   45        4.673434
   46        5.026967
   47        5.030165
   48        5.034208
   49        5.591112
   50        5.597650
   51        6.185878
   52        6.188332
   53        6.197257
   54        6.671775
   55        6.803859
   56        6.813095
   57        9.121750
   58        9.133633
   59        9.135388
   60        9.144355
   61       10.024961
   62       10.028988
   63       11.639024
   64       11.642278
   65       11.836219
   66       12.104117
   67       13.436360
   68       13.446464
   69       13.450160
   70       13.462330
   71       14.515710
   72       15.330054
   73       15.338948
   74       15.597175
   75       15.854388
   76       16.168689
   77       16.176859
   78       16.391486
   79       18.066673
   80       18.072091
   81       19.630642
   82       19.636037
   83       19.934057
   84       20.056744
 
  0.0000000E+00  0.1111111E+00  0.0000000E+00  0.6172840E-02
    1      -11.688696
    2       -9.908075
    3       -9.901215
    4       -6.926154
    5       -6.336174
    6       -6.332412
    7       -6.195411
    8       -5.287760
    9       -5.281398
   10       -4.734009
   11       -4.728414
   12       -4.726829
   13       -4.721743
   14       -4.699481
   15       -4.695578
   16       -4.139086
   17       -3.051877
   18       -3.047581
   19       -3.045138
   20       -3.040797
   21       -2.505229
   22       -2.499749
   23       -2.071462
   24       -1.751404
   25       -1.556956
   26       -1.552296
   27       -0.485432
   28       -0.480272
   29        0.058759
   30        2.602840
   31        2.604079
   32        2.950939
   33        3.408618
   34        3.650112
   35        3.652497
   36        3.655523
   37        3.657998
   38        3.856370
   39        3.859052
   40        3.982591
   41        3.986265
   42        4.995703
   43        4.997434
   44        5.004446
   45        5.013114
   46        5.240942
   47        6.418014
   48        6.593938
   49        7.058227
   50        7.061262
   51        7.202230
   52        7.205120
   53        7.486779
   54        7.491141
   55        7.683071
   56        7.810151
   57        7.908310
   58        9.057262
   59        9.068075
   60        9.361885
   61        9.372348
   62        9.374372
   63        9.385141
   64       11.675180
   65       12.471447
   66       12.482256
   67       12.485042
   68       12.495505
   69       12.705835
   70       12.716737
   71       14.591523
   72       14.596243
   73       14.780034
   74       14.898360
   75       15.248497
   76       15.251947
   77       17.866400
   78       17.868954
   79       17.934244
   80       17.998491
   81       18.166376
   82       18.179261
   83       18.198164
   84       18.201767
 
  0.1111111E+00  0.1111111E+00  0.0000000E+00  0.6172840E-02
    1      -11.532540
    2       -9.755393
    3       -9.748547
    4       -7.426916
    5       -7.422985
    6       -6.064614
    7       -5.866410
    8       -5.768335
    9       -5.762051
   10       -5.760939
   11       -5.754952
   12       -4.878207
   13       -4.304280
   14       -4.298299
   15       -3.476530
   16       -3.471631
   17       -3.208107
   18       -3.202154
   19       -2.419215
   20       -2.414942
   21       -1.796449
   22       -1.789358
   23       -1.788360
   24       -1.783831
   25       -1.570131
   26       -0.980908
   27       -0.891619
   28        0.663058
   29        0.667969
   30        1.830463
   31        2.764064
   32        2.767382
   33        2.892543
   34        2.897942
   35        2.968426
   36        2.971380
   37        3.797303
   38        3.798935
   39        3.800474
   40        3.806428
   41        4.183720
   42        4.437437
   43        5.125569
   44        5.128445
   45        5.132482
   46        5.135221
   47        5.759580
   48        6.105321
   49        6.520168
   50        6.528088
   51        6.874456
   52        6.882822
   53        7.366893
   54        7.485648
   55        7.597424
   56        8.607471
   57        8.610798
   58        8.761939
   59        8.771397
   60        8.771937
   61        8.782925
   62        9.627712
   63        9.640185
   64       11.761249
   65       12.449875
   66       12.462928
   67       13.138400
   68       13.149622
   69       13.150742
   70       13.159360
   71       13.831613
   72       14.406439
   73       14.409377
   74       15.375251
   75       15.381100
   76       16.320040
   77       17.875478
   78       17.882651
   79       17.884641
   80       17.917474
   81       18.165791
   82       18.167987
   83       18.473256
   84       18.537179
 
  0.2222222E+00  0.1111111E+00  0.0000000E+00  0.6172840E-02
    1      -11.220870
    2       -9.450801
    3       -9.443985
    4       -8.462216
    5       -7.791397
    6       -6.766003
    7       -6.759450
    8       -6.117591
    9       -6.111110
   10       -5.917159
   11       -5.803743
   12       -4.331788
   13       -4.325675
   14       -4.285607
   15       -3.551921
   16       -3.121532
   17       -2.674867
   18       -2.668778
   19       -2.212413
   20       -1.695641
   21       -1.295548
   22       -1.209498
   23       -0.972270
   24       -0.966896
   25       -0.384905
   26       -0.357829
   27       -0.351996
   28        0.993724
   29        1.174377
   30        1.860740
   31        1.895704
   32        1.901558
   33        1.905396
   34        2.299693
   35        2.621173
   36        3.101181
   37        3.196501
   38        3.200552
   39        3.667127
   40        4.088849
   41        4.094231
   42        4.306130
   43        4.601938
   44        4.703804
   45        5.150052
   46        5.156526
   47        5.367309
   48        5.394091
   49        5.795469
   50        5.802786
   51        6.312683
   52        6.321154
   53        6.698254
   54        7.209077
   55        7.966605
   56        7.982709
   57        7.992333
   58        8.540732
   59        8.550714
   60        9.496278
   61        9.797672
   62        9.809826
   63       10.080684
   64       11.916594
   65       12.539408
   66       12.552028
   67       12.716323
   68       13.664630
   69       13.677487
   70       13.687035
   71       14.045608
   72       14.055702
   73       14.166244
   74       15.635598
   75       16.570483
   76       17.346335
   77       17.354821
   78       17.460536
   79       17.608103
   80       17.883440
   81       17.969465
   82       18.244787
   83       18.698730
   84       18.990783
 
  0.3333333E+00  0.1111111E+00  0.0000000E+00  0.6172840E-02
    1      -10.755069
    2       -9.370918
    3       -8.995963
    4       -8.989180
    5       -8.014136
    6       -7.647688
    7       -7.641051
    8       -6.332612
    9       -6.326107
   10       -6.075359
   11       -5.414635
   12       -4.472050
   13       -4.465791
   14       -4.268881
   15       -3.364665
   16       -3.191305
   17       -1.851398
   18       -1.845417
   19       -1.662022
   20       -1.405550
   21       -0.672219
   22       -0.587388
   23       -0.134826
   24       -0.128382
   25       -0.124312
   26        0.831643
   27        0.868162
   28        0.873828
   29        0.902587
   30        1.047621
   31        1.146219
   32        1.151922
   33        2.401195
   34        2.408959
   35        2.413310
   36        2.506150
   37        2.799939
   38        3.004361
   39        3.120573
   40        3.665109
   41        4.074642
   42        4.092669
   43        4.099206
   44        4.305474
   45        4.510818
   46        4.516174
   47        4.613904
   48        5.652651
   49        5.659699
   50        5.723382
   51        5.769232
   52        6.009659
   53        6.018187
   54        6.732026
   55        7.215260
   56        7.224621
   57        8.399506
   58        8.409361
   59        8.797014
   60        9.880198
   61        9.891595
   62       10.496589
   63       11.441814
   64       11.508685
   65       12.088989
   66       12.654136
   67       12.665906
   68       12.716658
   69       14.102087
   70       14.112823
   71       14.134856
   72       14.970706
   73       14.979961
   74       16.012609
   75       16.147792
   76       16.648775
   77       16.657435
   78       17.051929
   79       18.041392
   80       18.244943
   81       18.248858
   82       19.413650
   83       19.508812
   84       19.537770
 
  0.4444444E+00  0.1111111E+00  0.0000000E+00  0.6172840E-02
    1      -10.139145
    2      -10.135331
    3       -8.396876
    4       -8.390991
    5       -8.389601
    6       -8.383500
    7       -8.088679
    8       -6.404816
    9       -6.398303
   10       -6.136689
   11       -4.902641
   12       -4.898414
   13       -4.528155
   14       -4.521871
   15       -3.236921
   16       -2.549840
   17       -2.211094
   18       -1.310708
   19       -1.305626
   20       -0.899323
   21       -0.791718
   22        0.033673
   23        0.037298
   24        0.260030
   25        0.262245
   26        0.266476
   27        0.370490
   28        0.376136
   29        1.502372
   30        1.506316
   31        1.616230
   32        1.913121
   33        1.918319
   34        2.116231
   35        2.326314
   36        2.654617
   37        2.661745
   38        2.664525
   39        2.665294
   40        3.008673
   41        3.542041
   42        3.872043
   43        3.876385
   44        4.292318
   45        4.615697
   46        4.619438
   47        5.043516
   48        5.045709
   49        5.046040
   50        5.058283
   51        6.226304
   52        6.233561
   53        6.535400
   54        6.544078
   55        6.544713
   56        6.554406
   57        8.351414
   58        8.361254
   59        9.467302
   60        9.903273
   61        9.914165
   62       10.714613
   63       11.330115
   64       11.893231
   65       12.096594
   66       12.100930
   67       12.705224
   68       12.716216
   69       14.264457
   70       14.275288
   71       14.831992
   72       14.838575
   73       15.841103
   74       15.851571
   75       15.853279
   76       15.858502
   77       16.493052
   78       16.497039
   79       18.067409
   80       18.235868
   81       20.026596
   82       20.033492
   83       20.044087
   84       20.046685
 
 -0.4444444E+00  0.1111111E+00  0.0000000E+00  0.6172840E-02
    1      -10.755132
    2       -9.370789
    3       -8.996047
    4       -8.989262
    5       -8.014292
    6       -7.647576
    7       -7.640928
    8       -6.332807
    9       -6.326302
   10       -6.075099
   11       -5.414689
   12       -4.471719
   13       -4.465472
   14       -4.268713
   15       -3.363120
   16       -3.191804
   17       -1.850365
   18       -1.845353
   19       -1.663764
   20       -1.406053
   21       -0.672316
   22       -0.587035
   23       -0.134018
   24       -0.130300
   25       -0.125151
   26        0.832272
   27        0.867975
   28        0.872301
   29        0.902744
   30        1.047605
   31        1.145822
   32        1.151698
   33        2.401089
   34        2.409218
   35        2.415164
   36        2.505975
   37        2.799290
   38        3.003101
   39        3.120858
   40        3.666398
   41        4.074691
   42        4.094554
   43        4.099077
   44        4.305587
   45        4.511030
   46        4.516844
   47        4.614230
   48        5.652827
   49        5.657541
   50        5.723132
   51        5.769321
   52        6.010012
   53        6.018503
   54        6.731693
   55        7.215316
   56        7.224722
   57        8.399142
   58        8.409092
   59        8.799642
   60        9.881085
   61        9.892063
   62       10.493369
   63       11.441537
   64       11.506017
   65       12.088856
   66       12.653915
   67       12.664689
   68       12.720000
   69       14.102384
   70       14.113640
   71       14.135851
   72       14.970316
   73       14.979849
   74       16.012263
   75       16.147170
   76       16.649272
   77       16.657199
   78       17.052139
   79       18.040982
   80       18.245346
   81       18.252238
   82       19.408639
   83       19.503320
   84       19.509369
 
 -0.3333333E+00  0.1111111E+00  0.0000000E+00  0.6172840E-02
    1      -11.220928
    2       -9.450860
    3       -9.444042
    4       -8.462060
    5       -7.791754
    6       -6.765856
    7       -6.759297
    8       -6.117997
    9       -6.111519
   10       -5.916590
   11       -5.803780
   12       -4.330931
   13       -4.324827
   14       -4.284481
   15       -3.551767
   16       -3.122983
   17       -2.674006
   18       -2.669115
   19       -2.212068
   20       -1.695851
   21       -1.296415
   22       -1.209570
   23       -0.973487
   24       -0.967363
   25       -0.384659
   26       -0.358041
   27       -0.352169
   28        0.992909
   29        1.174064
   30        1.860032
   31        1.895455
   32        1.899658
   33        1.905414
   34        2.300876
   35        2.620857
   36        3.102008
   37        3.197032
   38        3.202546
   39        3.666308
   40        4.089058
   41        4.094684
   42        4.306330
   43        4.602030
   44        4.704795
   45        5.150754
   46        5.156323
   47        5.367294
   48        5.394409
   49        5.795840
   50        5.802511
   51        6.313935
   52        6.318798
   53        6.698555
   54        7.208336
   55        7.970062
   56        7.982388
   57        7.992310
   58        8.539960
   59        8.550168
   60        9.493122
   61        9.799303
   62        9.810720
   63       10.080417
   64       11.916446
   65       12.538749
   66       12.549978
   67       12.713460
   68       13.667702
   69       13.677605
   70       13.689213
   71       14.045244
   72       14.055593
   73       14.167244
   74       15.635330
   75       16.574039
   76       17.346962
   77       17.353822
   78       17.459990
   79       17.607468
   80       17.879522
   81       17.968623
   82       18.245451
   83       18.697597
   84       18.975234
 
 -0.2222222E+00  0.1111111E+00  0.0000000E+00  0.6172840E-02
    1      -11.532575
    2       -9.755428
    3       -9.748582
    4       -7.425451
    5       -7.424819
    6       -6.064656
    7       -5.865616
    8       -5.767258
    9       -5.762671
   10       -5.760960
   11       -5.756109
   12       -4.877317
   13       -4.302778
   14       -4.297067
   15       -3.476097
   16       -3.474019
   17       -3.207384
   18       -3.203344
   19       -2.417784
   20       -2.415535
   21       -1.794913
   22       -1.791080
   23       -1.788816
   24       -1.785059
   25       -1.570168
   26       -0.980197
   27       -0.892338
   28        0.664264
   29        0.665838
   30        1.829295
   31        2.766306
   32        2.767025
   33        2.891996
   34        2.896101
   35        2.969289
   36        2.970259
   37        3.798030
   38        3.799680
   39        3.803351
   40        3.805089
   41        4.184016
   42        4.436527
   43        5.125687
   44        5.130352
   45        5.131716
   46        5.134960
   47        5.759488
   48        6.105419
   49        6.523019
   50        6.526264
   51        6.876666
   52        6.879358
   53        7.368048
   54        7.488564
   55        7.596117
   56        8.605633
   57        8.609250
   58        8.761503
   59        8.771201
   60        8.771980
   61        8.782002
   62        9.629623
   63        9.641371
   64       11.761150
   65       12.448812
   66       12.460417
   67       13.139481
   68       13.149692
   69       13.150608
   70       13.160932
   71       13.828886
   72       14.407920
   73       14.411646
   74       15.378502
   75       15.381269
   76       16.316129
   77       17.876300
   78       17.880993
   79       17.883444
   80       17.913738
   81       18.165408
   82       18.169841
   83       18.483182
   84       18.503193
 
 -0.1111111E+00  0.1111111E+00  0.0000000E+00  0.6172840E-02
    1      -11.688707
    2       -9.908087
    3       -9.901226
    4       -6.926879
    5       -6.334699
    6       -6.332821
    7       -6.195430
    8       -5.288576
    9       -5.282213
   10       -4.732266
   11       -4.728869
   12       -4.726452
   13       -4.721135
   14       -4.698419
   15       -4.695568
   16       -4.140350
   17       -3.050887
   18       -3.047873
   19       -3.044428
   20       -3.042409
   21       -2.505998
   22       -2.499887
   23       -2.071286
   24       -1.751417
   25       -1.555639
   26       -1.553152
   27       -0.484501
   28       -0.481659
   29        0.058565
   30        2.601436
   31        2.604275
   32        2.952385
   33        3.408151
   34        3.650137
   35        3.651581
   36        3.653204
   37        3.658870
   38        3.857277
   39        3.858661
   40        3.983122
   41        3.988256
   42        4.994142
   43        4.997788
   44        5.004643
   45        5.013170
   46        5.241920
   47        6.417790
   48        6.594095
   49        7.056057
   50        7.064362
   51        7.198928
   52        7.207419
   53        7.489599
   54        7.491098
   55        7.684241
   56        7.808988
   57        7.905395
   58        9.055783
   59        9.067100
   60        9.363765
   61        9.372316
   62        9.374180
   63        9.386578
   64       11.675146
   65       12.470354
   66       12.481810
   67       12.484707
   68       12.493402
   69       12.707113
   70       12.719023
   71       14.591838
   72       14.593680
   73       14.782666
   74       14.902071
   75       15.245547
   76       15.251019
   77       17.865105
   78       17.868104
   79       17.931923
   80       17.999947
   81       18.166422
   82       18.195272
   83       18.201580
   84       18.272305
 
 -0.1694066E-20  0.2222222E+00  0.0000000E+00  0.6172840E-02
    1      -11.454554
    2       -9.679164
    3       -9.672325
    4       -8.013555
    5       -6.713553
    6       -6.709278
    7       -6.331916
    8       -6.325411
    9       -5.999263
   10       -5.084470
   11       -5.079255
   12       -5.077296
   13       -5.071978
   14       -3.943047
   15       -3.938535
   16       -3.301921
   17       -2.383756
   18       -2.327065
   19       -2.322472
   20       -2.320073
   21       -2.315162
   22       -1.913941
   23       -1.909355
   24       -1.479901
   25       -1.125962
   26       -1.120503
   27        0.123765
   28        0.129576
   29        1.261102
   30        1.936683
   31        1.938301
   32        2.373108
   33        2.967244
   34        2.970707
   35        2.973033
   36        2.976593
   37        3.179422
   38        3.643457
   39        3.647592
   40        4.199978
   41        4.203624
   42        4.504254
   43        4.506852
   44        5.173240
   45        5.181442
   46        5.359312
   47        5.440850
   48        6.035455
   49        6.245439
   50        6.249216
   51        6.772738
   52        6.775836
   53        7.091951
   54        7.569135
   55        8.139840
   56        8.145395
   57        8.323884
   58        8.333743
   59        9.266567
   60        9.274476
   61        9.278852
   62        9.280828
   63        9.292080
   64       11.801581
   65       12.833293
   66       12.844408
   67       12.847463
   68       12.858462
   69       13.524070
   70       13.533999
   71       13.781309
   72       13.786398
   73       14.492470
   74       15.093674
   75       16.380490
   76       16.384898
   77       17.555719
   78       17.644135
   79       17.649806
   80       17.969568
   81       17.971394
   82       18.208625
   83       18.493438
   84       18.499031
 
  0.1111111E+00  0.2222222E+00  0.0000000E+00  0.6172840E-02
    1      -11.220863
    2       -9.450793
    3       -9.443975
    4       -8.462133
    5       -7.791493
    6       -6.765930
    7       -6.759382
    8       -6.117677
    9       -6.111198
   10       -5.917158
   11       -5.803722
   12       -4.331799
   13       -4.325675
   14       -4.285607
   15       -3.552175
   16       -3.120681
   17       -2.674892
   18       -2.668948
   19       -2.214569
   20       -1.694001
   21       -1.294924
   22       -1.209511
   23       -0.973743
   24       -0.967928
   25       -0.386552
   26       -0.356203
   27       -0.350930
   28        0.994619
   29        1.172396
   30        1.862848
   31        1.895630
   32        1.901522
   33        1.905341
   34        2.301857
   35        2.621481
   36        3.099032
   37        3.197698
   38        3.202987
   39        3.667158
   40        4.087675
   41        4.091426
   42        4.306237
   43        4.603827
   44        4.705879
   45        5.150870
   46        5.156670
   47        5.365378
   48        5.391669
   49        5.797019