   4   4   0   0
  0.1004018E+02  0.2466437E-09  0.2466437E-09  0.7626513E-09  0.5000000E-15
  1.000000000000000E-004
  CAR 
 graphite                                
     17.19672589    -17.92996474  301      3.62577366      1.00000000
    -17.930  0.0000E+00  0.0000E+00
    -17.813  0.0000E+00  0.0000E+00
    -17.696  0.0000E+00  0.0000E+00
    -17.579  0.0000E+00  0.0000E+00
    -17.462  0.0000E+00  0.0000E+00
    -17.345  0.0000E+00  0.0000E+00
    -17.227  0.0000E+00  0.0000E+00
    -17.110  0.0000E+00  0.0000E+00
    -16.993  0.0000E+00  0.0000E+00
    -16.876  0.0000E+00  0.0000E+00
    -16.759  0.0000E+00  0.0000E+00
    -16.642  0.0000E+00  0.0000E+00
    -16.525  0.0000E+00  0.0000E+00
    -16.408  0.0000E+00  0.0000E+00
    -16.291  0.0000E+00  0.0000E+00
    -16.174  0.0000E+00  0.0000E+00
    -16.057  0.0000E+00  0.0000E+00
    -15.939  0.0000E+00  0.0000E+00
    -15.822  0.2355E-02  0.1256E-03
    -15.705  0.3118E-02  0.4730E-03
    -15.588  0.3016E-02  0.8399E-03
    -15.471  0.3103E-02  0.1192E-02
    -15.354  0.3135E-02  0.1562E-02
    -15.237  0.3021E-02  0.1919E-02
    -15.120  0.3111E-02  0.2277E-02
    -15.003  0.3170E-02  0.2647E-02
    -14.886  0.3049E-02  0.3010E-02
    -14.769  0.3075E-02  0.3369E-02
    -14.651  0.3129E-02  0.3732E-02
    -14.534  0.3179E-02  0.4102E-02
    -14.417  0.3101E-02  0.4470E-02
    -14.300  0.3091E-02  0.4832E-02
    -14.183  0.3123E-02  0.5195E-02
    -14.066  0.3159E-02  0.5563E-02
    -13.949  0.3199E-02  0.5936E-02
    -13.832  0.3138E-02  0.6307E-02
    -13.715  0.3133E-02  0.6674E-02
    -13.598  0.3145E-02  0.7041E-02
    -13.481  0.3175E-02  0.7411E-02
    -13.363  0.3205E-02  0.7785E-02
    -13.246  0.3225E-02  0.8162E-02
    -13.129  0.3188E-02  0.8537E-02
    -13.012  0.3188E-02  0.8910E-02
    -12.895  0.3201E-02  0.9284E-02
    -12.778  0.3218E-02  0.9660E-02
    -12.661  0.3247E-02  0.1004E-01
    -12.544  0.3276E-02  0.1042E-01
    -12.427  0.3279E-02  0.1080E-01
    -12.310  0.3267E-02  0.1119E-01
    -12.193  0.3278E-02  0.1157E-01
    -12.076  0.3301E-02  0.1196E-01
    -11.958  0.3327E-02  0.1234E-01
    -11.841  0.3355E-02  0.1273E-01
    -11.724  0.3398E-02  0.1313E-01
    -11.607  0.3439E-02  0.1353E-01
    -11.490  0.3459E-02  0.1393E-01
    -11.373  0.3512E-02  0.1434E-01
    -11.256  0.3615E-02  0.1476E-01
    -11.139  0.3773E-02  0.1519E-01
    -11.022  0.3994E-02  0.1564E-01
    -10.905  0.4214E-02  0.1613E-01
    -10.788  0.5784E-02  0.1676E-01
    -10.670  0.3915E-02  0.1733E-01
    -10.553  0.3186E-02  0.1773E-01
    -10.436  0.3876E-02  0.1827E-01
    -10.319  0.2230E-02  0.1855E-01
    -10.202  0.1982E-02  0.1879E-01
    -10.085  0.1734E-02  0.1901E-01
     -9.968  0.1486E-02  0.1920E-01
     -9.851  0.1675E-02  0.1937E-01
     -9.734  0.1780E-02  0.1961E-01
     -9.617  0.8205E-03  0.1973E-01
     -9.500  0.1203E-02  0.1985E-01
     -9.382  0.2380E-02  0.2003E-01
     -9.265  0.4544E-02  0.2049E-01
     -9.148  0.2723E-02  0.2085E-01
     -9.031  0.2856E-02  0.2118E-01
     -8.914  0.7170E-02  0.2163E-01
     -8.797  0.4058E-02  0.2215E-01
     -8.680  0.4704E-02  0.2267E-01
     -8.563  0.5383E-02  0.2326E-01
     -8.446  0.3976E-02  0.2387E-01
     -8.329  0.3824E-02  0.2433E-01
     -8.212  0.3672E-02  0.2477E-01
     -8.094  0.3523E-02  0.2519E-01
     -7.977  0.3381E-02  0.2559E-01
     -7.860  0.3243E-02  0.2598E-01
     -7.743  0.3104E-02  0.2635E-01
     -7.626  0.2991E-02  0.2671E-01
     -7.509  0.2956E-02  0.2705E-01
     -7.392  0.2920E-02  0.2740E-01
     -7.275  0.2885E-02  0.2774E-01
     -7.158  0.2848E-02  0.2807E-01
     -7.041  0.2739E-02  0.2840E-01
     -6.924  0.2572E-02  0.2871E-01
     -6.807  0.2944E-02  0.2903E-01
     -6.689  0.3368E-02  0.2940E-01
     -6.572  0.3790E-02  0.2982E-01
     -6.455  0.3803E-02  0.3028E-01
     -6.338  0.3716E-02  0.3072E-01
     -6.221  0.3659E-02  0.3115E-01
     -6.104  0.3603E-02  0.3158E-01
     -5.987  0.3612E-02  0.3200E-01
     -5.870  0.3714E-02  0.3243E-01
     -5.753  0.3807E-02  0.3287E-01
     -5.636  0.3899E-02  0.3332E-01
     -5.519  0.3945E-02  0.3378E-01
     -5.401  0.3955E-02  0.3424E-01
     -5.284  0.3962E-02  0.3470E-01
     -5.167  0.3873E-02  0.3516E-01
     -5.050  0.4024E-02  0.3563E-01
     -4.933  0.4063E-02  0.3610E-01
     -4.816  0.4103E-02  0.3658E-01
     -4.699  0.4143E-02  0.3706E-01
     -4.582  0.4190E-02  0.3755E-01
     -4.465  0.4337E-02  0.3805E-01
     -4.348  0.4965E-02  0.3859E-01
     -4.231  0.5265E-02  0.3918E-01
     -4.113  0.5605E-02  0.3982E-01
     -3.996  0.5864E-02  0.4049E-01
     -3.879  0.6145E-02  0.4120E-01
     -3.762  0.6441E-02  0.4193E-01
     -3.645  0.6945E-02  0.4271E-01
     -3.528  0.7865E-02  0.4358E-01
     -3.411  0.8761E-02  0.4456E-01
     -3.294  0.9831E-02  0.4563E-01
     -3.177  0.9262E-02  0.4680E-01
     -3.060  0.8093E-02  0.4780E-01
     -2.943  0.9420E-02  0.4879E-01
     -2.825  0.1055E-01  0.4997E-01
     -2.708  0.1004E-01  0.5125E-01
     -2.591  0.9748E-02  0.5240E-01
     -2.474  0.8499E-02  0.5348E-01
     -2.357  0.8150E-02  0.5443E-01
     -2.240  0.8195E-02  0.5539E-01
     -2.123  0.6889E-02  0.5637E-01
     -2.006  0.5506E-02  0.5707E-01
     -1.889  0.5299E-02  0.5770E-01
     -1.772  0.6291E-02  0.5841E-01
     -1.655  0.8795E-02  0.5923E-01
     -1.538  0.7668E-02  0.6018E-01
     -1.420  0.7258E-02  0.6105E-01
     -1.303  0.6753E-02  0.6187E-01
     -1.186  0.6378E-02  0.6264E-01
     -1.069  0.6193E-02  0.6337E-01
     -0.952  0.6144E-02  0.6410E-01
     -0.835  0.6024E-02  0.6481E-01
     -0.718  0.5908E-02  0.6551E-01
     -0.601  0.5795E-02  0.6619E-01
     -0.484  0.5731E-02  0.6686E-01
     -0.367  0.5891E-02  0.6754E-01
     -0.250  0.5792E-02  0.6823E-01
     -0.132  0.5663E-02  0.6890E-01
     -0.015  0.5533E-02  0.6955E-01
      0.102  0.5664E-02  0.7020E-01
      0.219  0.5633E-02  0.7087E-01
      0.336  0.5920E-02  0.7153E-01
      0.453  0.5860E-02  0.7219E-01
      0.570  0.4328E-02  0.7281E-01
      0.687  0.3706E-02  0.7325E-01
      0.804  0.3914E-02  0.7370E-01
      0.921  0.4232E-02  0.7417E-01
      1.038  0.5317E-02  0.7471E-01
      1.156  0.5132E-02  0.7533E-01
      1.273  0.5049E-02  0.7592E-01
      1.390  0.5097E-02  0.7651E-01
      1.507  0.3915E-02  0.7703E-01
      1.624  0.3177E-02  0.7744E-01
      1.741  0.2851E-02  0.7779E-01
      1.858  0.2571E-02  0.7811E-01
      1.975  0.2221E-02  0.7839E-01
      2.092  0.2043E-02  0.7864E-01
      2.209  0.1782E-02  0.7886E-01
      2.326  0.1593E-02  0.7906E-01
      2.444  0.1471E-02  0.7924E-01
      2.561  0.1317E-02  0.7940E-01
      2.678  0.1130E-02  0.7955E-01
      2.795  0.9459E-03  0.7967E-01
      2.912  0.7440E-03  0.7977E-01
      3.029  0.5855E-03  0.7984E-01
      3.146  0.4518E-03  0.7990E-01
      3.263  0.3181E-03  0.7995E-01
      3.380  0.1889E-03  0.7998E-01
      3.497  0.8851E-04  0.7999E-01
      3.614  0.5839E-05  0.8000E-01
      3.731  0.6552E-04  0.8000E-01
      3.849  0.1564E-03  0.8002E-01
      3.966  0.2797E-03  0.8004E-01
      4.083  0.4218E-03  0.8008E-01
      4.200  0.5641E-03  0.8014E-01
      4.317  0.7065E-03  0.8021E-01
      4.434  0.9783E-03  0.8031E-01
      4.551  0.1332E-02  0.8044E-01
      4.668  0.1658E-02  0.8062E-01
      4.785  0.1520E-02  0.8081E-01
      4.902  0.1931E-02  0.8101E-01
      5.019  0.2442E-02  0.8126E-01
      5.137  0.4411E-02  0.8163E-01
      5.254  0.5621E-02  0.8216E-01
      5.371  0.5534E-02  0.8281E-01
      5.488  0.5031E-02  0.8342E-01
      5.605  0.5104E-02  0.8402E-01
      5.722  0.4117E-02  0.8455E-01
      5.839  0.3759E-02  0.8501E-01
      5.956  0.3468E-02  0.8543E-01
      6.073  0.3260E-02  0.8583E-01
      6.190  0.3092E-02  0.8620E-01
      6.307  0.2933E-02  0.8655E-01
      6.425  0.2804E-02  0.8689E-01
      6.542  0.2694E-02  0.8721E-01
      6.659  0.2627E-02  0.8752E-01
      6.776  0.2566E-02  0.8783E-01
      6.893  0.2507E-02  0.8812E-01
      7.010  0.2450E-02  0.8841E-01
      7.127  0.2397E-02  0.8870E-01
      7.244  0.2598E-02  0.8899E-01
      7.361  0.2652E-02  0.8930E-01
      7.478  0.2702E-02  0.8961E-01
      7.595  0.2719E-02  0.8993E-01
      7.713  0.2760E-02  0.9025E-01
      7.830  0.2801E-02  0.9057E-01
      7.947  0.2823E-02  0.9090E-01
      8.064  0.2859E-02  0.9123E-01
      8.181  0.2901E-02  0.9157E-01
      8.298  0.2927E-02  0.9191E-01
      8.415  0.2939E-02  0.9226E-01
      8.532  0.2961E-02  0.9260E-01
      8.649  0.2986E-02  0.9295E-01
      8.766  0.3013E-02  0.9330E-01
      8.883  0.3065E-02  0.9366E-01
      9.000  0.3110E-02  0.9402E-01
      9.118  0.3417E-02  0.9439E-01
      9.235  0.3629E-02  0.9481E-01
      9.352  0.3541E-02  0.9523E-01
      9.469  0.3375E-02  0.9564E-01
      9.586  0.3211E-02  0.9602E-01
      9.703  0.2770E-02  0.9638E-01
      9.820  0.2630E-02  0.9669E-01
      9.937  0.2321E-02  0.9699E-01
     10.054  0.2481E-02  0.9726E-01
     10.171  0.2932E-02  0.9758E-01
     10.288  0.3272E-02  0.9795E-01
     10.406  0.3324E-02  0.9833E-01
     10.523  0.3349E-02  0.9872E-01
     10.640  0.3400E-02  0.9912E-01
     10.757  0.3614E-02  0.9952E-01
     10.874  0.3769E-02  0.9996E-01
     10.991  0.4592E-02  0.1004E+00
     11.108  0.7650E-02  0.1011E+00
     11.225  0.9626E-02  0.1022E+00
     11.342  0.9535E-02  0.1033E+00
     11.459  0.8261E-02  0.1043E+00
     11.576  0.7472E-02  0.1053E+00
     11.694  0.7220E-02  0.1061E+00
     11.811  0.7367E-02  0.1070E+00
     11.928  0.7646E-02  0.1079E+00
     12.045  0.1744E-01  0.1093E+00
     12.162  0.1294E-01  0.1110E+00
     12.279  0.7886E-02  0.1123E+00
     12.396  0.4598E-02  0.1130E+00
     12.513  0.3593E-02  0.1135E+00
     12.630  0.3292E-02  0.1139E+00
     12.747  0.3022E-02  0.1142E+00
     12.864  0.2791E-02  0.1146E+00
     12.982  0.2674E-02  0.1149E+00
     13.099  0.2582E-02  0.1152E+00
     13.216  0.2510E-02  0.1155E+00
     13.333  0.2466E-02  0.1158E+00
     13.450  0.2477E-02  0.1161E+00
     13.567  0.2680E-02  0.1164E+00
     13.684  0.2809E-02  0.1167E+00
     13.801  0.2701E-02  0.1170E+00
     13.918  0.2550E-02  0.1173E+00
     14.035  0.4515E-02  0.1177E+00
     14.152  0.4447E-02  0.1183E+00
     14.270  0.3758E-02  0.1188E+00
     14.387  0.2919E-02  0.1192E+00
     14.504  0.2169E-02  0.1195E+00
     14.621  0.1752E-02  0.1197E+00
     14.738  0.1031E-02  0.1199E+00
     14.855  0.5205E-03  0.1200E+00
     14.972  0.1278E-03  0.1200E+00
     15.089  0.8667E-05  0.1200E+00
     15.206  0.0000E+00  0.1200E+00
     15.323  0.0000E+00  0.1200E+00
     15.440  0.0000E+00  0.1200E+00
     15.557  0.0000E+00  0.1200E+00
     15.675  0.0000E+00  0.1200E+00
     15.792  0.0000E+00  0.1200E+00
     15.909  0.0000E+00  0.1200E+00
     16.026  0.0000E+00  0.1200E+00
     16.143  0.0000E+00  0.1200E+00
     16.260  0.0000E+00  0.1200E+00
     16.377  0.0000E+00  0.1200E+00
     16.494  0.0000E+00  0.1200E+00
     16.611  0.0000E+00  0.1200E+00
     16.728  0.0000E+00  0.1200E+00
     16.845  0.0000E+00  0.1200E+00
     16.963  0.0000E+00  0.1200E+00
     17.080  0.0000E+00  0.1200E+00
     17.197  0.0000E+00  0.1200E+00
