32   
4    

1    
  0.0032831549469835  -0.0000012774120254   0.0094456811274951
  -0.2109917700    0.0080083500   -0.1346173500
   0.0284119500    0.0071480800   -0.0061396100
  -0.0062857600   -0.0129109500   -0.0060764300
  -0.0063796000    0.0272924400   -0.0063026800
  -0.0153603500    0.0065684700    0.0012693200
  -0.0153519400    0.0065695400    0.0012796100
  -0.0153567100    0.0065641000    0.0012796700
  -0.0153530400    0.0065671800    0.0012799500
   0.0133617600   -0.0089973100   -0.0013207300
   0.0132709200   -0.0090644100   -0.0013494800
   0.0133733800   -0.0089543100   -0.0013326600
   0.0132495200   -0.0090132900   -0.0009712700
   0.0124863800   -0.0056369400   -0.0013293000
   0.0125653000   -0.0057059600   -0.0012965100
   0.0125818400   -0.0057396500   -0.0013144600
   0.0124525900   -0.0056953500   -0.0008928100
   0.0068640200   -0.0067118300    0.0121112700
   0.0327792400   -0.0074203100    0.0479421000
   0.0763725600    0.0183587700    0.0483311300
   0.0763731500   -0.0319122400    0.0475042100
   0.0147339600   -0.0063002600   -0.0001034300
   0.0147379900   -0.0063023700   -0.0000954900
   0.0147384700   -0.0062988500   -0.0000975300
   0.0147350600   -0.0062966800   -0.0000931000
  -0.0130235900    0.0087196200    0.0003715700
  -0.0127924600    0.0087842600    0.0003810000
  -0.0129645800    0.0085609000    0.0003818900
  -0.0128551000    0.0086884400   -0.0000434800
  -0.0115017300    0.0051958400    0.0004226200
  -0.0116791500    0.0052674600    0.0004067200
  -0.0116561800    0.0053851500    0.0004102000
  -0.0115361200    0.0052821000    0.0000050700

1    
 -0.0032831549469835   0.0000012774120254  -0.0094456811274951
   0.1875103900    0.0075511000    0.1346879500
  -0.0519320100    0.0066805600    0.0062278000
  -0.0171375000    0.0267834000    0.0062902800
  -0.0172320500   -0.0134251800    0.0062619700
  -0.0095797300    0.0073048600   -0.0012015400
  -0.0095921700    0.0073050400   -0.0012131900
  -0.0095871600    0.0073061300   -0.0012130300
  -0.0095867600    0.0073000900   -0.0012133900
   0.0131505100   -0.0096723600    0.0012329700
   0.0132338000   -0.0096041800    0.0012616400
   0.0131338900   -0.0097132100    0.0012456300
   0.0132595800   -0.0096610200    0.0008286600
   0.0118292100   -0.0049883000    0.0012579800
   0.0117413600   -0.0049283700    0.0012268800
   0.0117337400   -0.0048762100    0.0012429000
   0.0118468800   -0.0049194500    0.0008770400
   0.0153738600   -0.0064455700   -0.0121239500
  -0.0105324700   -0.0069683700   -0.0479549100
  -0.0543136300   -0.0316925600   -0.0475543100
  -0.0539463600    0.0185803900   -0.0483033300
   0.0088081900   -0.0067959800    0.0001113400
   0.0088097700   -0.0067966900    0.0001049900
   0.0088086900   -0.0067949700    0.0001038300
   0.0088081000   -0.0067932500    0.0001038000
  -0.0127574400    0.0093068900   -0.0003972300
  -0.0129423000    0.0092406200   -0.0004060900
  -0.0127918100    0.0094293300   -0.0004018500
  -0.0129047200    0.0093263400    0.0000099700
  -0.0109164100    0.0045901400   -0.0004000200
  -0.0106930200    0.0045229700   -0.0003672200
  -0.0107463400    0.0043572400   -0.0003670900
  -0.0108560800    0.0044905900    0.0000415300

17   
  0.0032831549469835  -0.0000012774120254   0.0094456811274951
  -0.0153994900    0.0076443100    0.0115206500
   0.0105686400    0.0081769800    0.0473601900
   0.0543103900    0.0328605700    0.0469522900
   0.0539486400   -0.0173599700    0.0477087700
  -0.0151194200    0.0077672000   -0.0007868800
  -0.0151167100    0.0077686600   -0.0007796200
  -0.0151187000    0.0077652200   -0.0007811600
  -0.0151170400    0.0077661000   -0.0007759700
   0.0118232500   -0.0084682900    0.0010696500
   0.0118764700   -0.0084122900    0.0011293300
   0.0118034100   -0.0084683500    0.0010972200
   0.0119054900   -0.0084510700    0.0006794400
   0.0098865400   -0.0042533500    0.0009976200
   0.0098433700   -0.0041651700    0.0009219700
   0.0097910700   -0.0041954600    0.0009538100
   0.0099151800   -0.0042083000    0.0005447500
  -0.1886149100   -0.0081079700   -0.1354023300
   0.0506086400   -0.0072317900   -0.0075068300
   0.0161706400   -0.0271304400   -0.0075645200
   0.0162637800    0.0126812500   -0.0075485100
   0.0144181900   -0.0073742400    0.0001636900
   0.0144153400   -0.0073737500    0.0000968200
   0.0144168200   -0.0073716000    0.0000966800
   0.0144163800   -0.0073739400    0.0000971300
  -0.0116329700    0.0081764100    0.0000354700
  -0.0113647900    0.0081909000    0.0001049600
  -0.0115097900    0.0079595000    0.0000575800
  -0.0114789000    0.0081045000   -0.0000727000
  -0.0088380900    0.0036797000    0.0000066400
  -0.0091100400    0.0037017300   -0.0001095900
  -0.0089911000    0.0039256000   -0.0000673100
  -0.0089702900    0.0037773600   -0.0001992500

17   
 -0.0032831549469835   0.0000012774120254  -0.0094456811274951
  -0.0069360200    0.0072659800   -0.0112337300
  -0.0329154700    0.0079651800   -0.0470708100
  -0.0764651900   -0.0177792000   -0.0474592600
  -0.0764664600    0.0324356000   -0.0466380700
  -0.0160243600    0.0068762400    0.0010393500
  -0.0160246000    0.0068759800    0.0010323600
  -0.0160249700    0.0068741100    0.0010296700
  -0.0160251200    0.0068754000    0.0010334600
   0.0144150400   -0.0097947600   -0.0012751100
   0.0143644900   -0.0098412200   -0.0013303800
   0.0144279600   -0.0097931200   -0.0012968600
   0.0143386400   -0.0098135000   -0.0008887200
   0.0121419500   -0.0053277700   -0.0013400700
   0.0121947700   -0.0054315600   -0.0012705400
   0.0122559100   -0.0053988500   -0.0013040200
   0.0121226200   -0.0053840300   -0.0008827400
   0.2095528200   -0.0075982400    0.1353584000
  -0.0296105900   -0.0067306800    0.0075273600
   0.0046963500    0.0131019400    0.0074642900
   0.0047942500   -0.0266620000    0.0076947200
   0.0155064200   -0.0066444200   -0.0001928100
   0.0155062700   -0.0066441700   -0.0001255800
   0.0155057900   -0.0066438700   -0.0001255600
   0.0155068400   -0.0066430900   -0.0001255500
  -0.0138474300    0.0094366100    0.0000397900
  -0.0141074800    0.0094158100   -0.0000273800
  -0.0139610700    0.0096547300    0.0000140800
  -0.0140064100    0.0095105000    0.0001431700
  -0.0113708300    0.0050534200   -0.0000516800
  -0.0111021800    0.0050232200    0.0000737400
  -0.0112126700    0.0048116900    0.0000258600
  -0.0112292600    0.0049540800    0.0001626300
