  32  32   0   0
  0.9306161E+01  0.4934311E-09  0.4934311E-09  0.1412406E-08  0.5000000E-15
  1.000000000000000E-004
  CAR 
 graphite                                
     15.03935805    -17.34616159  301      4.23343307      1.00000000
    -17.346  0.0000E+00  0.0000E+00
    -17.238  0.0000E+00  0.0000E+00
    -17.130  0.0000E+00  0.0000E+00
    -17.022  0.0000E+00  0.0000E+00
    -16.914  0.0000E+00  0.0000E+00
    -16.806  0.0000E+00  0.0000E+00
    -16.698  0.0000E+00  0.0000E+00
    -16.590  0.0000E+00  0.0000E+00
    -16.483  0.0000E+00  0.0000E+00
    -16.375  0.0000E+00  0.0000E+00
    -16.267  0.0000E+00  0.0000E+00
    -16.159  0.0000E+00  0.0000E+00
    -16.051  0.0000E+00  0.0000E+00
    -15.943  0.0000E+00  0.0000E+00
    -15.835  0.0000E+00  0.0000E+00
    -15.727  0.0000E+00  0.0000E+00
    -15.619  0.0000E+00  0.0000E+00
    -15.511  0.0000E+00  0.0000E+00
    -15.403  0.0000E+00  0.0000E+00
    -15.295  0.1225E+01  0.2424E-01
    -15.187  0.3080E+01  0.2697E+00
    -15.079  0.5072E+01  0.7418E+00
    -14.971  0.4947E+01  0.1266E+01
    -14.863  0.4896E+01  0.1797E+01
    -14.755  0.4981E+01  0.2333E+01
    -14.647  0.4906E+01  0.2869E+01
    -14.539  0.4915E+01  0.3396E+01
    -14.431  0.5034E+01  0.3934E+01
    -14.324  0.4997E+01  0.4475E+01
    -14.216  0.4962E+01  0.5011E+01
    -14.108  0.5743E+01  0.5587E+01
    -14.000  0.6201E+01  0.6227E+01
    -13.892  0.6506E+01  0.6921E+01
    -13.784  0.5375E+01  0.7520E+01
    -13.676  0.1813E+01  0.7774E+01
    -13.568  0.4013E+01  0.8075E+01
    -13.460  0.4558E+01  0.8564E+01
    -13.352  0.4256E+01  0.9049E+01
    -13.244  0.7027E+01  0.9835E+01
    -13.136  0.4285E+01  0.1056E+02
    -13.028  0.4368E+01  0.1103E+02
    -12.920  0.4503E+01  0.1151E+02
    -12.812  0.4611E+01  0.1200E+02
    -12.704  0.4719E+01  0.1250E+02
    -12.596  0.5401E+01  0.1305E+02
    -12.488  0.6112E+01  0.1367E+02
    -12.380  0.5360E+01  0.1428E+02
    -12.272  0.5637E+01  0.1487E+02
    -12.164  0.5125E+01  0.1545E+02
    -12.057  0.4808E+01  0.1598E+02
    -11.949  0.4907E+01  0.1651E+02
    -11.841  0.4986E+01  0.1704E+02
    -11.733  0.5044E+01  0.1758E+02
    -11.625  0.5169E+01  0.1813E+02
    -11.517  0.5583E+01  0.1871E+02
    -11.409  0.5824E+01  0.1934E+02
    -11.301  0.5697E+01  0.1996E+02
    -11.193  0.5645E+01  0.2057E+02
    -11.085  0.5760E+01  0.2119E+02
    -10.977  0.5170E+01  0.2180E+02
    -10.869  0.5105E+01  0.2232E+02
    -10.761  0.5406E+01  0.2289E+02
    -10.653  0.5379E+01  0.2347E+02
    -10.545  0.5502E+01  0.2406E+02
    -10.437  0.5720E+01  0.2467E+02
    -10.329  0.5956E+01  0.2530E+02
    -10.221  0.7996E+01  0.2602E+02
    -10.113  0.9400E+01  0.2708E+02
    -10.005  0.6131E+01  0.2791E+02
     -9.897  0.7315E+01  0.2852E+02
     -9.790  0.3970E+01  0.2931E+02
     -9.682  0.3544E+01  0.2971E+02
     -9.574  0.3175E+01  0.3007E+02
     -9.466  0.2806E+01  0.3040E+02
     -9.358  0.2437E+01  0.3068E+02
     -9.250  0.2454E+01  0.3093E+02
     -9.142  0.3131E+01  0.3127E+02
     -9.034  0.1417E+01  0.3151E+02
     -8.926  0.1668E+01  0.3167E+02
     -8.818  0.2593E+01  0.3190E+02
     -8.710  0.7204E+01  0.3236E+02
     -8.602  0.4342E+01  0.3310E+02
     -8.494  0.3949E+01  0.3352E+02
     -8.386  0.4278E+01  0.3396E+02
     -8.278  0.8258E+01  0.3464E+02
     -8.170  0.6418E+01  0.3540E+02
     -8.062  0.7513E+01  0.3615E+02
     -7.954  0.8567E+01  0.3702E+02
     -7.846  0.7914E+01  0.3797E+02
     -7.738  0.6273E+01  0.3869E+02
     -7.631  0.6016E+01  0.3935E+02
     -7.523  0.5761E+01  0.3999E+02
     -7.415  0.5529E+01  0.4059E+02
     -7.307  0.5341E+01  0.4118E+02
     -7.199  0.5159E+01  0.4175E+02
     -7.091  0.4963E+01  0.4229E+02
     -6.983  0.4854E+01  0.4282E+02
     -6.875  0.4825E+01  0.4335E+02
     -6.767  0.4793E+01  0.4386E+02
     -6.659  0.4622E+01  0.4438E+02
     -6.551  0.4412E+01  0.4486E+02
     -6.443  0.4356E+01  0.4533E+02
     -6.335  0.4025E+01  0.4575E+02
     -6.227  0.4304E+01  0.4619E+02
     -6.119  0.4933E+01  0.4669E+02
     -6.011  0.5819E+01  0.4727E+02
     -5.903  0.6535E+01  0.4794E+02
     -5.795  0.1065E+02  0.4889E+02
     -5.687  0.8420E+01  0.4991E+02
     -5.579  0.6190E+01  0.5070E+02
     -5.471  0.3960E+01  0.5125E+02
     -5.364  0.2712E+01  0.5158E+02
     -5.256  0.3128E+01  0.5189E+02
     -5.148  0.4387E+01  0.5229E+02
     -5.040  0.5676E+01  0.5283E+02
     -4.932  0.7283E+01  0.5353E+02
     -4.824  0.7939E+01  0.5438E+02
     -4.716  0.6737E+01  0.5518E+02
     -4.608  0.5599E+01  0.5584E+02
     -4.500  0.7721E+01  0.5651E+02
     -4.392  0.7212E+01  0.5732E+02
     -4.284  0.6703E+01  0.5807E+02
     -4.176  0.6194E+01  0.5876E+02
     -4.068  0.5685E+01  0.5940E+02
     -3.960  0.6382E+01  0.6002E+02
     -3.852  0.9176E+01  0.6114E+02
     -3.744  0.1013E+02  0.6221E+02
     -3.636  0.7965E+01  0.6318E+02
     -3.528  0.6672E+01  0.6396E+02
     -3.420  0.6640E+01  0.6466E+02
     -3.312  0.7576E+01  0.6543E+02
     -3.204  0.8596E+01  0.6630E+02
     -3.097  0.1048E+02  0.6731E+02
     -2.989  0.1379E+02  0.6868E+02
     -2.881  0.1245E+02  0.7022E+02
     -2.773  0.1289E+02  0.7156E+02
     -2.665  0.1339E+02  0.7302E+02
     -2.557  0.1633E+02  0.7448E+02
     -2.449  0.1219E+02  0.7605E+02
     -2.341  0.2007E+02  0.7749E+02
     -2.233  0.1190E+02  0.7924E+02
     -2.125  0.1628E+02  0.8058E+02
     -2.017  0.1702E+02  0.8273E+02
     -1.909  0.1743E+02  0.8464E+02
     -1.801  0.1500E+02  0.8648E+02
     -1.693  0.1112E+02  0.8789E+02
     -1.585  0.8906E+01  0.8896E+02
     -1.477  0.1199E+02  0.8995E+02
     -1.369  0.8440E+01  0.9098E+02
     -1.261  0.1070E+02  0.9200E+02
     -1.153  0.1274E+02  0.9334E+02
     -1.045  0.1586E+02  0.9479E+02
     -0.937  0.9181E+01  0.9615E+02
     -0.830  0.1063E+02  0.9722E+02
     -0.722  0.1098E+02  0.9840E+02
     -0.614  0.1038E+02  0.9954E+02
     -0.506  0.1087E+02  0.1007E+03
     -0.398  0.9756E+01  0.1018E+03
     -0.290  0.9775E+01  0.1029E+03
     -0.182  0.9440E+01  0.1039E+03
     -0.074  0.9327E+01  0.1049E+03
      0.034  0.9224E+01  0.1059E+03
      0.142  0.9073E+01  0.1069E+03
      0.250  0.9579E+01  0.1079E+03
      0.358  0.9455E+01  0.1089E+03
      0.466  0.9406E+01  0.1100E+03
      0.574  0.9241E+01  0.1110E+03
      0.682  0.9208E+01  0.1120E+03
      0.790  0.9458E+01  0.1130E+03
      0.898  0.9347E+01  0.1140E+03
      1.006  0.9874E+01  0.1150E+03
      1.114  0.1007E+02  0.1161E+03
      1.222  0.7367E+01  0.1171E+03
      1.329  0.6320E+01  0.1178E+03
      1.437  0.5761E+01  0.1184E+03
      1.545  0.4778E+01  0.1190E+03
      1.653  0.4212E+01  0.1195E+03
      1.761  0.3620E+01  0.1199E+03
      1.869  0.6287E+01  0.1204E+03
      1.977  0.9927E+01  0.1213E+03
      2.085  0.8316E+01  0.1222E+03
      2.193  0.7821E+01  0.1233E+03
      2.301  0.5769E+01  0.1240E+03
      2.409  0.4851E+01  0.1246E+03
      2.517  0.4178E+01  0.1251E+03
      2.625  0.3570E+01  0.1255E+03
      2.733  0.3212E+01  0.1258E+03
      2.841  0.3033E+01  0.1262E+03
      2.949  0.2795E+01  0.1265E+03
      3.057  0.2375E+01  0.1268E+03
      3.165  0.2062E+01  0.1270E+03
      3.273  0.1831E+01  0.1272E+03
      3.381  0.1592E+01  0.1274E+03
      3.489  0.1350E+01  0.1276E+03
      3.596  0.1110E+01  0.1277E+03
      3.704  0.8699E+00  0.1278E+03
      3.812  0.6437E+00  0.1279E+03
      3.920  0.4527E+00  0.1279E+03
      4.028  0.2815E+00  0.1280E+03
      4.136  0.1256E+00  0.1280E+03
      4.244  0.5644E-02  0.1280E+03
      4.352  0.1227E+00  0.1280E+03
      4.460  0.2541E+00  0.1280E+03
      4.568  0.4036E+00  0.1281E+03
      4.676  0.5771E+00  0.1281E+03
      4.784  0.7984E+00  0.1282E+03
      4.892  0.1046E+01  0.1283E+03
      5.000  0.1411E+01  0.1284E+03
      5.108  0.1806E+01  0.1286E+03
      5.216  0.2184E+01  0.1288E+03
      5.324  0.2623E+01  0.1291E+03
      5.432  0.2713E+01  0.1294E+03
      5.540  0.3361E+01  0.1297E+03
      5.648  0.4224E+01  0.1301E+03
      5.756  0.6831E+01  0.1307E+03
      5.863  0.8093E+01  0.1317E+03
      5.971  0.8694E+01  0.1327E+03
      6.079  0.8834E+01  0.1336E+03
      6.187  0.6908E+01  0.1344E+03
      6.295  0.6464E+01  0.1352E+03
      6.403  0.6079E+01  0.1358E+03
      6.511  0.5591E+01  0.1365E+03
      6.619  0.5159E+01  0.1370E+03
      6.727  0.4560E+01  0.1376E+03
      6.835  0.3864E+01  0.1380E+03
      6.943  0.3638E+01  0.1384E+03
      7.051  0.3923E+01  0.1388E+03
      7.159  0.4469E+01  0.1393E+03
      7.267  0.4779E+01  0.1398E+03
      7.375  0.4563E+01  0.1403E+03
      7.483  0.4419E+01  0.1408E+03
      7.591  0.4272E+01  0.1412E+03
      7.699  0.4123E+01  0.1417E+03
      7.807  0.3987E+01  0.1421E+03
      7.915  0.3829E+01  0.1425E+03
      8.022  0.3671E+01  0.1430E+03
      8.130  0.3568E+01  0.1433E+03
      8.238  0.3664E+01  0.1437E+03
      8.346  0.3911E+01  0.1441E+03
      8.454  0.3988E+01  0.1446E+03
      8.562  0.4067E+01  0.1450E+03
      8.670  0.4135E+01  0.1454E+03
      8.778  0.4272E+01  0.1459E+03
      8.886  0.4288E+01  0.1464E+03
      8.994  0.4349E+01  0.1468E+03
      9.102  0.4442E+01  0.1473E+03
      9.210  0.4231E+01  0.1478E+03
      9.318  0.4216E+01  0.1482E+03
      9.426  0.4198E+01  0.1487E+03
      9.534  0.4169E+01  0.1491E+03
      9.642  0.4278E+01  0.1496E+03
      9.750  0.4469E+01  0.1501E+03
      9.858  0.4530E+01  0.1505E+03
      9.966  0.4785E+01  0.1510E+03
     10.074  0.4843E+01  0.1516E+03
     10.182  0.5066E+01  0.1521E+03
     10.289  0.4987E+01  0.1527E+03
     10.397  0.5027E+01  0.1532E+03
     10.505  0.5322E+01  0.1538E+03
     10.613  0.7876E+01  0.1543E+03
     10.721  0.4260E+01  0.1548E+03
     10.829  0.3809E+01  0.1553E+03
     10.937  0.3595E+01  0.1557E+03
     11.045  0.3254E+01  0.1561E+03
     11.153  0.3455E+01  0.1564E+03
     11.261  0.4021E+01  0.1568E+03
     11.369  0.4236E+01  0.1573E+03
     11.477  0.4647E+01  0.1577E+03
     11.585  0.7763E+01  0.1585E+03
     11.693  0.1036E+02  0.1595E+03
     11.801  0.1223E+02  0.1607E+03
     11.909  0.1434E+02  0.1621E+03
     12.017  0.1252E+02  0.1636E+03
     12.125  0.1089E+02  0.1648E+03
     12.233  0.8580E+01  0.1659E+03
     12.341  0.5015E+01  0.1666E+03
     12.449  0.4411E+01  0.1671E+03
     12.556  0.3023E+01  0.1675E+03
     12.664  0.1733E+01  0.1678E+03
     12.772  0.9251E+00  0.1679E+03
     12.880  0.2319E+00  0.1680E+03
     12.988  0.7305E-02  0.1680E+03
     13.096  0.0000E+00  0.1680E+03
     13.204  0.0000E+00  0.1680E+03
     13.312  0.0000E+00  0.1680E+03
     13.420  0.0000E+00  0.1680E+03
     13.528  0.0000E+00  0.1680E+03
     13.636  0.0000E+00  0.1680E+03
     13.744  0.0000E+00  0.1680E+03
     13.852  0.0000E+00  0.1680E+03
     13.960  0.0000E+00  0.1680E+03
     14.068  0.0000E+00  0.1680E+03
     14.176  0.0000E+00  0.1680E+03
     14.284  0.0000E+00  0.1680E+03
     14.392  0.0000E+00  0.1680E+03
     14.500  0.0000E+00  0.1680E+03
     14.608  0.0000E+00  0.1680E+03
     14.716  0.0000E+00  0.1680E+03
     14.823  0.0000E+00  0.1680E+03
     14.931  0.0000E+00  0.1680E+03
     15.039  0.0000E+00  0.1680E+03
