    4    4  200    1
  0.8880211E+01  0.2466437E-09  0.2466437E-09  0.6745400E-09  0.5000000E-15
  1.000000000000000E-004
  CAR 
 graphite                                
     16    215     12
 
  0.0000000E+00  0.0000000E+00  0.0000000E+00  0.8680556E-03
    1      -14.996027
    2      -14.707949
    3       -3.849483
    4       -1.936655
    5        1.618940
    6        1.635473
    7        1.636628
    8        1.652614
    9        8.890588
   10       12.959340
   11       12.969694
   12       13.008916
 
  0.8333333E-01  0.6938894E-17  0.0000000E+00  0.3472222E-02
    1      -14.830428
    2      -14.545241
    3       -3.648457
    4       -1.748521
    5        0.972357
    6        1.004293
    7        1.279817
    8        1.306604
    9        9.090969
   10       13.011392
   11       13.092317
   12       13.699742
 
  0.1666667E+00  0.1387779E-16  0.0000000E+00  0.3472222E-02
    1      -14.335417
    2      -14.058871
    3       -3.049854
    4       -1.190675
    5       -0.682165
    6       -0.620845
    7        0.480908
    8        0.519217
    9        9.693608
   10       12.906698
   11       13.082909
   12       13.805699
 
  0.2500000E+00  0.0000000E+00  0.0000000E+00  0.3472222E-02
    1      -13.516916
    2      -13.254560
    3       -2.799582
    4       -2.704821
    5       -2.069287
    6       -0.402860
    7       -0.357255
    8       -0.287394
    9       10.691609
   10       11.584615
   11       12.197694
   12       12.573420
 
  0.3333333E+00  0.2775558E-16  0.0000000E+00  0.3472222E-02
    1      -12.387198
    2      -12.144418
    3       -5.021619
    4       -4.893764
    5       -1.138333
    6       -1.088632
    7       -0.746456
    8        0.894619
    9        9.152703
   10       10.023544
   11       11.977144
   12       12.248062
 
  0.4166667E+00  0.2775558E-16  0.0000000E+00  0.3472222E-02
    1      -10.976939
    2      -10.760736
    3       -7.137430
    4       -6.981796
    5       -1.612226
    6       -1.560426
    7        0.796945
    8        2.116831
    9        7.007796
   10        7.969450
   11       11.925678
   12       12.284593
 
  0.5000000E+00  0.0000000E+00  0.0000000E+00  0.1736111E-02
    1       -9.666406
    2       -9.558413
    3       -8.599598
    4       -8.518092
    5       -1.774805
    6       -1.722428
    7        1.883209
    8        2.554708
    9        6.142628
   10        6.805251
   11       11.835328
   12       12.215274
 
  0.8333333E-01  0.8333333E-01  0.0000000E+00  0.1736111E-02
    1      -14.499884
    2      -14.220471
    3       -3.248315
    4       -1.375151
    5       -0.061821
    6       -0.031361
    7        0.603725
    8        0.626308
    9        9.494151
   10       13.289739
   11       13.402192
   12       14.351505
 
  0.1666667E+00  0.8333333E-01  0.0000000E+00  0.3472222E-02
    1      -13.842891
    2      -13.574911
    3       -2.457617
    4       -1.792761
    5       -1.727639
    6       -0.642563
    7       -0.402867
    8       -0.360865
    9       10.300466
   10       12.512798
   11       12.943064
   12       13.374377
 
  0.2500000E+00  0.8333333E-01  0.0000000E+00  0.3472222E-02
    1      -12.868385
    2      -12.617235
    3       -3.888482
    4       -3.783203
    5       -1.301120
    6       -1.296568
    7       -1.240287
    8        0.410014
    9       10.251839
   10       10.920721
   11       11.494946
   12       13.078498
 
  0.3333333E+00  0.8333333E-01  0.0000000E+00  0.3472222E-02
    1      -11.595280
    2      -11.366567
    3       -6.030222
    4       -5.890915
    5       -1.935351
    6       -1.872564
    7        0.155994
    8        1.666514
    9        7.956754
   10        8.838211
   11       12.714253
   12       12.963378
 
  0.4166667E+00  0.8333333E-01  0.0000000E+00  0.3472222E-02
    1      -10.095824
    2       -9.906598
    3       -7.979026
    4       -7.825289
    5       -2.265933
    6       -2.200535
    7        1.661424
    8        2.636077
    9        6.323651
   10        7.079640
   11       12.565854
   12       12.962144
 
  0.5000000E+00  0.8333333E-01  0.0000000E+00  0.3472222E-02
    1      -10.098207
    2       -9.908888
    3       -7.976283
    4       -7.822391
    5       -2.266783
    6       -2.201362
    7        1.659922
    8        2.635663
    9        6.323528
   10        7.081600
   11       12.566844
   12       12.963141
 
 -0.4166667E+00  0.8333333E-01  0.0000000E+00  0.3472222E-02
    1      -11.597464
    2      -11.368723
    3       -6.026739
    4       -5.887367
    5       -1.937729
    6       -1.874907
    7        0.154105
    8        1.664969
    9        7.957120
   10        8.840672
   11       12.716709
   12       12.963186
 
 -0.3333333E+00  0.8333333E-01  0.0000000E+00  0.3472222E-02
    1      -12.870086
    2      -12.618927
    3       -3.885192
    4       -3.779833
    5       -1.302762
    6       -1.299697
    7       -1.243352
    8        0.408488
    9       10.250936
   10       10.922815
   11       11.492662
   12       13.083041
 
 -0.2500000E+00  0.8333333E-01  0.0000000E+00  0.3472222E-02
    1      -13.844104
    2      -13.576116
    3       -2.458851
    4       -1.791902
    5       -1.726754
    6       -0.643750
    7       -0.403943
    8       -0.362069
    9       10.298790
   10       12.509623
   11       12.944515
   12       13.380267
 
 -0.1666667E+00  0.8333333E-01  0.0000000E+00  0.3472222E-02
    1      -14.500609
    2      -14.221191
    3       -3.249076
    4       -1.375890
    5       -0.069918
    6       -0.038725
    7        0.611339
    8        0.633940
    9        9.493109
   10       13.296885
   11       13.410652
   12       14.397543
 
 -0.8333333E-01  0.8333333E-01  0.0000000E+00  0.1736111E-02
    1      -14.830671
    2      -14.545483
    3       -3.648721
    4       -1.748771
    5        0.959453
    6        0.991746
    7        1.292772
    8        1.319333
    9        9.090608
   10       13.015673
   11       13.096960
   12       13.661483
 
  0.1666667E+00  0.1666667E+00  0.0000000E+00  0.1736111E-02
    1      -13.029866
    2      -12.775948
    3       -3.120753
    4       -3.069319
    5       -1.761269
    6       -1.723700
    7       -1.488184
    8        0.245083
    9       10.779180
   10       11.238063
   11       11.308982
   12       14.546296
 
  0.2500000E+00  0.1666667E+00  0.0000000E+00  0.3472222E-02
    1      -11.910584
    2      -11.676151
    3       -4.873976
    4       -4.774822
    5       -2.834274
    6       -2.765710
    7       -0.179382
    8        1.412875
    9        8.766049
   10        9.366819
   11       12.693293
   12       14.665225
 
  0.3333333E+00  0.1666667E+00  0.0000000E+00  0.3472222E-02
    1      -10.519723
    2      -10.312072
    3       -6.806182
    4       -6.665649
    5       -3.421211
    6       -3.334642
    7        1.359433
    8        2.657541
    9        6.828336
   10        7.546214
   11       14.313685
   12       14.496098
 
  0.4166667E+00  0.1666667E+00  0.0000000E+00  0.3472222E-02
    1       -9.241940
    2       -9.138366
    3       -8.197186
    4       -8.125415
    5       -3.609774
    6       -3.518876
    7        2.481308
    8        3.138898
    9        6.059929
   10        6.361266
   11       14.311034
   12       14.836348
 
  0.5000000E+00  0.1666667E+00  0.0000000E+00  0.3472222E-02
    1      -10.524467
    2      -10.316794
    3       -6.799850
    4       -6.659090
    5       -3.423660
    6       -3.336996
    7        1.355763
    8        2.654984
    9        6.827553
   10        7.551788
   11       14.311898
   12       14.493664
 
 -0.4166667E+00  0.1666667E+00  0.0000000E+00  0.3472222E-02
    1      -11.914466
    2      -11.680023
    3       -4.868312
    4       -4.768873
    5       -2.837463
    6       -2.768772
    7       -0.182910
    8        1.409601
    9        8.763368
   10        9.372111
   11       12.688019
   12       14.671401
 
 -0.3333333E+00  0.1666667E+00  0.0000000E+00  0.3472222E-02
    1      -13.032775
    2      -12.778845
    3       -3.122315
    4       -3.069653
    5       -1.759025
    6       -1.720778
    7       -1.491041
    8        0.242299
    9       10.772767
   10       11.241738
   11       11.305076
   12       14.566145
 
 -0.2500000E+00  0.1666667E+00  0.0000000E+00  0.3472222E-02
    1      -13.844824
    2      -13.576834
    3       -2.459600
    4       -1.802940
    5       -1.737094
    6       -0.644521
    7       -0.391844
    8       -0.349616
    9       10.297854
   10       12.505053
   11       12.943063
   12       13.399880
 
 -0.1666667E+00  0.1666667E+00  0.0000000E+00  0.1736111E-02
    1      -14.336384
    2      -14.059830
    3       -3.050866
    4       -1.191678
    5       -0.695699
    6       -0.634063
    7        0.495588
    8        0.533760
    9        9.692278
   10       12.925224
   11       13.100796
   12       13.802340
 
  0.2500000E+00  0.2500000E+00  0.0000000E+00  0.1736111E-02
    1      -10.669092
    2      -10.457469
    3       -5.901045
    4       -5.829310
    5       -4.307972
    6       -4.254769
    7        1.240256
    8        2.640265
    9        7.158786
   10        7.734231
   11       14.220840
   12       16.479162
 
  0.3333333E+00  0.2500000E+00  0.0000000E+00  0.3472222E-02
    1       -9.226655
    2       -9.053825
    3       -7.343476
    4       -7.227595
    5       -5.037041
    6       -4.946270
    7        2.776495
    8        3.755308
    9        5.715661
   10        6.232924
   11       15.915832
   12       16.247897
 
  0.4166667E+00  0.2500000E+00  0.0000000E+00  0.3472222E-02
    1       -9.233889
    2       -9.060885
    3       -7.336013
    4       -7.219161
    5       -5.037963
    6       -4.947054
    7        2.771976
    8        3.753482
    9        5.710652
   10        6.242275
   11       15.904208
   12       16.182248
 
  0.5000000E+00  0.2500000E+00  0.0000000E+00  0.3472222E-02
    1      -10.675638
    2      -10.464037
    3       -5.897329
    4       -5.823897
    5       -4.306653
    6       -4.252358
    7        1.234970
    8        2.635016
    9        7.154063
   10        7.742675
   11       14.211769
   12       16.497718
 
 -0.4166667E+00  0.2500000E+00  0.0000000E+00  0.3472222E-02
    1      -11.915688
    2      -11.681255
    3       -4.878340
    4       -4.778226
    5       -2.825496
    6       -2.756369
    7       -0.184050
    8        1.408030
    9        8.759015
   10        9.370694
   11       12.686615
   12       14.702504
 
 -0.3333333E+00  0.2500000E+00  0.0000000E+00  0.3472222E-02
    1      -12.872016
    2      -12.620855
    3       -3.897934
    4       -3.792257
    5       -1.304686
    6       -1.282985
    7       -1.226648
    8        0.406315
    9       10.243409
   10       10.919110
   11       11.490432
   12       13.111728
 
 -0.2500000E+00  0.2500000E+00  0.0000000E+00  0.1736111E-02
    1      -13.519085
    2      -13.256720
    3       -2.812387
    4       -2.717355
    5       -2.071499
    6       -0.386480
    7       -0.340985
    8       -0.289671
    9       10.688901
   10       11.576105
   11       12.193868
   12       12.600902
 
  0.3333333E+00  0.3333333E+00  0.0000000E+00  0.1736111E-02
    1       -8.020822
    2       -7.929599
    3       -7.927537
    4       -7.838283
    5       -5.881446
    6       -5.880545
    7        4.017082
    8        4.606066
    9        4.614756
   10        5.324356
   11       15.745611
   12       15.768870
 
  0.4166667E+00  0.3333333E+00  0.0000000E+00  0.3472222E-02
    1       -9.236531
    2       -9.064086
    3       -7.341486
    4       -7.224737
    5       -5.029027
    6       -4.937585
    7        2.771514
    8        3.745676
    9        5.712933
   10        6.242092
   11       15.903378
   12       16.280988
 
  0.5000000E+00  0.3333333E+00  0.0000000E+00  0.3472222E-02
    1      -10.527643
    2      -10.320118
    3       -6.809612
    4       -6.668732
    5       -3.408606
    6       -3.321906
    7        1.353578
    8        2.649364
    9        6.824121
   10        7.548646
   11       14.322006
   12       14.518315
 
 -0.4166667E+00  0.3333333E+00  0.0000000E+00  0.3472222E-02
    1      -11.601152
    2      -11.372477
    3       -6.037776
    4       -5.898236
    5       -1.919722
    6       -1.856950
    7        0.150842
    8        1.660185
    9        7.950313
   10        8.834987
   11       12.743144
   12       12.981766
 
 -0.3333333E+00  0.3333333E+00  0.0000000E+00  0.1736111E-02
    1      -12.391077
    2      -12.148303
    3       -5.032575
    4       -4.904514
    5       -1.120640
    6       -1.071030
    7       -0.750167
    8        0.890317
    9        9.144405
   10       10.017868
   11       11.981069
   12       12.276454
 
  0.4166667E+00  0.4166667E+00  0.0000000E+00  0.1736111E-02
    1       -9.251617
    2       -9.150400
    3       -8.197970
    4       -8.127762
    5       -3.595167
    6       -3.504267
    7        2.480674
    8        3.122876
    9        6.064944
   10        6.356239
   11       14.348121
   12       14.874250
 
  0.5000000E+00  0.4166667E+00  0.0000000E+00  0.3472222E-02
    1      -10.104978
    2       -9.916304
    3       -7.983178
    4       -7.829656
    5       -2.248814
    6       -2.183475
    7        1.656968
    8        2.623690
    9        6.323644
   10        7.073470
   11       12.601469
   12       12.997876
 
 -0.4166667E+00  0.4166667E+00  0.0000000E+00  0.1736111E-02
    1      -10.983227
    2      -10.767171
    3       -7.145560
    4       -6.989881
    5       -1.593703
    6       -1.541986
    7        0.792185
    8        2.108543
    9        7.003365
   10        7.962224
   11       11.959125
   12       12.317874
 
  0.5000000E+00  0.5000000E+00  0.0000000E+00  0.8680556E-03
    1       -9.676825
    2       -9.571285
    3       -8.601459
    4       -8.521670
    5       -1.756009
    6       -1.703718
    7        1.881994
    8        2.537748
    9        6.146695
   10        6.793840
   11       11.869642
   12       12.249623
 
  0.0000000E+00  0.0000000E+00  0.1250000E+00  0.1736111E-02
    1      -14.985712
    2      -14.719624
    3       -3.788017
    4       -2.026269
    5        1.619652
    6        1.636049
    7        1.636167
    8        1.652054
    9        9.079781
   10       12.961085
   11       12.983750
   12       13.008426
 
  0.8333333E-01  0.6938894E-17  0.1250000E+00  0.6944444E-02
    1      -14.820206
    2      -14.556796
    3       -3.587400
    4       -1.837468
    5        0.973567
    6        1.003034
    7        1.280822
    8        1.305566
    9        9.278645
   10       13.012180
   11       13.089597
   12       13.668569
 
  0.1666667E+00  0.1387779E-16  0.1250000E+00  0.6944444E-02
    1      -14.325482
    2      -14.070048
    3       -2.989941
    4       -1.277345
    5       -0.679759
    6       -0.623181
    7        0.482360
    8        0.517771
    9        9.876242
   10       12.908074
   11       13.075576
   12       13.820636
 
  0.2500000E+00  0.0000000E+00  0.1250000E+00  0.6944444E-02
    1      -13.507462
    2      -13.265119
    3       -2.796052
    4       -2.708517
    5       -2.011456
    6       -0.401105
    7       -0.369587
    8       -0.358993
    9       10.854287
   10       11.616196
   11       12.165344
   12       12.583024
 
  0.3333333E+00  0.2775558E-16  0.1250000E+00  0.6944444E-02
    1      -12.378413
    2      -12.154136
    3       -5.016897
    4       -4.898788
    5       -1.136472
    6       -1.090546
    7       -0.692359
    8        0.820570
    9        9.175599
   10        9.982293
   11       12.080556
   12       12.281515
 
  0.4166667E+00  0.2775558E-16  0.1250000E+00  0.6944444E-02
    1      -10.969055
    2      -10.769346
    3       -7.131743
    4       -6.987932
    5       -1.610251
    6       -1.562443
    7        0.843458
    8        2.062971
    9        7.028378
   10        7.918933
   11       11.939496
   12       12.271153
 
  0.5000000E+00  0.0000000E+00  0.1250000E+00  0.3472222E-02
    1       -9.661684
    2       -9.561737
    3       -8.597896
    4       -8.522408
    5       -1.772903
    6       -1.724457
    7        1.915510
    8        2.539946
    9        6.138226
   10        6.754257
   11       11.849212
   12       12.200354
 
  0.8333333E-01  0.8333333E-01  0.1250000E+00  0.3472222E-02
    1      -14.489857
    2      -14.231776
    3       -3.188018
    4       -1.462570
    5       -0.060545
    6       -0.032442
    7        0.604512
    8        0.625367
    9        9.678742
   10       13.287663
   11       13.398151
   12       14.375467
 
  0.1666667E+00  0.8333333E-01  0.1250000E+00  0.6944444E-02
    1      -13.833251
    2      -13.585706
    3       -2.399007
    4       -1.790324
    5       -1.730083
    6       -0.726711
    7       -0.401358
    8       -0.362544
    9       10.477444
   10       12.526775
   11       12.919848
   12       13.381664
 
  0.2500000E+00  0.8333333E-01  0.1250000E+00  0.6944444E-02
    1      -12.859312
    2      -12.627325
    3       -3.884559
    4       -3.787283
    5       -1.294485
    6       -1.245483
    7       -1.242214
    8        0.331862
    9       10.268798
   10       10.890983
   11       11.666733
   12       13.088753
 
  0.3333333E+00  0.8333333E-01  0.1250000E+00  0.6944444E-02
    1      -11.586968
    2      -11.375713
    3       -6.025081
    4       -5.896372
    5       -1.933003
    6       -1.875020
    7        0.206787
    8        1.600332
    9        7.980972
   10        8.796968
   11       12.739264
   12       12.997561
 
  0.4166667E+00  0.8333333E-01  0.1250000E+00  0.6944444E-02
    1      -10.088842
    2       -9.913996
    3       -7.973546
    4       -7.831505
    5       -2.263479
    6       -2.203085
    7        1.700486
    8        2.604063
    9        6.330096
   10        7.032952
   11       12.580117
   12       12.946234
 
  0.5000000E+00  0.8333333E-01  0.1250000E+00  0.6944444E-02
    1      -10.091223
    2       -9.916290
    3       -7.970795
    4       -7.828613
    5       -2.264329
    6       -2.203912
    7        1.699006
    8        2.603579
    9        6.330084
   10        7.034850
   11       12.581099
   12       12.947217
 
 -0.4166667E+00  0.8333333E-01  0.1250000E+00  0.6944444E-02
    1      -11.589143
    2      -11.377880
    3       -6.021602
    4       -5.892838
    5       -1.935386
    6       -1.877338
    7        0.204898
    8        1.598762
    9        7.981422
   10        8.799374
   11       12.741928
   12       12.998347
 
 -0.3333333E+00  0.8333333E-01  0.1250000E+00  0.6944444E-02
    1      -12.861011
    2      -12.629017
    3       -3.881262
    4       -3.783915
    5       -1.297618
    6       -1.247160
    7       -1.245233
    8        0.330329
    9       10.268062
   10       10.892967
   11       11.664362
   12       13.093277
 
 -0.2500000E+00  0.8333333E-01  0.1250000E+00  0.6944444E-02
    1      -13.834463
    2      -13.586911
    3       -2.400238
    4       -1.789450
    5       -1.729198
    6       -0.727897
    7       -0.402432
    8       -0.363736
    9       10.475786
   10       12.523810
   11       12.921239
   12       13.387460
 
 -0.1666667E+00  0.8333333E-01  0.1250000E+00  0.6944444E-02
    1      -14.490582
    2      -14.232496
    3       -3.188777
    4       -1.463309
    5       -0.068615
    6       -0.039833
    7        0.612134
    8        0.633015
    9        9.677702
   10       13.294787
   11       13.406583
   12       14.347579
 
 -0.8333333E-01  0.8333333E-01  0.1250000E+00  0.3472222E-02
    1      -14.820446
    2      -14.557036
    3       -3.587656
    4       -1.837716
    5        0.960689
    6        0.990478
    7        1.293771
    8        1.318314
    9        9.278285
   10       13.016528
   11       13.094228
   12       13.663879
 
  0.1666667E+00  0.1666667E+00  0.1250000E+00  0.3472222E-02
    1      -13.020694
    2      -12.786154
    3       -3.118690
    4       -3.071180
    5       -1.760031
    6       -1.725306
    7       -1.431735
    8        0.165591
    9       10.796129
   10       11.215130
   11       11.481013
   12       14.548083
 
  0.2500000E+00  0.1666667E+00  0.1250000E+00  0.6944444E-02
    1      -11.902083
    2      -11.685533
    3       -4.870252
    4       -4.778625
    5       -2.831840
    6       -2.768489
    7       -0.126711
    8        1.341438
    9        8.787242
   10        9.342634
   11       12.840405
   12       14.674983
 
  0.3333333E+00  0.1666667E+00  0.1250000E+00  0.6944444E-02
    1      -10.512140
    2      -10.320314
    3       -6.801009
    4       -6.671178
    5       -3.418022
    6       -3.338044
    7        1.405041
    8        2.604161
    9        6.847741
   10        7.513170
   11       14.370728
   12       14.535408
 
  0.4166667E+00  0.1666667E+00  0.1250000E+00  0.6944444E-02
    1       -9.237412
    2       -9.141573
    3       -8.195698
    4       -8.129229
    5       -3.606416
    6       -3.522438
    7        2.513687
    8        3.125733
    9        6.047566
   10        6.332646
   11       14.325622
   12       14.809162
 
  0.5000000E+00  0.1666667E+00  0.1250000E+00  0.6944444E-02
    1      -10.516881
    2      -10.325033
    3       -6.794666
    4       -6.664618
    5       -3.420465
    6       -3.340401
    7        1.401391
    8        2.601523
    9        6.847256
   10        7.518495
   11       14.370790
   12       14.531364
 
 -0.4166667E+00  0.1666667E+00  0.1250000E+00  0.6944444E-02
    1      -11.905965
    2      -11.689407
    3       -4.864579
    4       -4.772687
    5       -2.835026
    6       -2.771556
    7       -0.130233
    8        1.338146
    9        8.784859
   10        9.347583
   11       12.835038
   12       14.681044
 
 -0.3333333E+00  0.1666667E+00  0.1250000E+00  0.6944444E-02
    1      -13.023602
    2      -12.789052
    3       -3.120207
    4       -3.071564
    5       -1.757760
    6       -1.722409
    7       -1.434590
    8        0.162803
    9       10.790061
   10       11.218317
   11       11.477176
   12       14.567606
 
 -0.2500000E+00  0.1666667E+00  0.1250000E+00  0.6944444E-02
    1      -13.835184
    2      -13.587629
    3       -2.400989
    4       -1.800475
    5       -1.739570
    6       -0.728671
    7       -0.390326
    8       -0.351303
    9       10.474817
   10       12.519502
   11       12.919725
   12       13.406848
 
 -0.1666667E+00  0.1666667E+00  0.1250000E+00  0.3472222E-02
    1      -14.326445
    2      -14.071013
    3       -2.990955
    4       -1.278333
    5       -0.693293
    6       -0.636412
    7        0.497037
    8        0.532320
    9        9.874914
   10       12.926488
   11       13.093456
   12       13.814869
 
  0.2500000E+00  0.2500000E+00  0.1250000E+00  0.3472222E-02
    1      -10.661386
    2      -10.465879
    3       -5.898183
    4       -5.831892
    5       -4.306392
    6       -4.257242
    7        1.287856
    8        2.579682
    9        7.180870
   10        7.711647
   11       14.308586
   12       16.186894
 
  0.3333333E+00  0.2500000E+00  0.1250000E+00  0.6944444E-02
    1       -9.220250
    2       -9.060562
    3       -7.339236
    4       -7.232157
    5       -5.033914
    6       -4.950020
    7        2.815066
    8        3.722556
    9        5.727596
   10        6.205723
   11       15.658216
   12       15.899212
 
  0.4166667E+00  0.2500000E+00  0.1250000E+00  0.6944444E-02
    1       -9.227478
    2       -9.067634
    3       -7.331735
    4       -7.223759
    5       -5.034837
    6       -4.950796
    7        2.810563
    8        3.720503
    9        5.723224
   10        6.214611
   11       15.645602
   12       15.908651
 
  0.5000000E+00  0.2500000E+00  0.1250000E+00  0.6944444E-02
    1      -10.667933
    2      -10.472447
    3       -5.894407
    4       -5.826547
    5       -4.305033
    6       -4.254867
    7        1.282569
    8        2.574425
    9        7.176570
   10        7.719519
   11       14.299405
   12       16.197844
 
 -0.4166667E+00  0.2500000E+00  0.1250000E+00  0.6944444E-02
    1      -11.907187
    2      -11.690638
    3       -4.874583
    4       -4.782068
    5       -2.823038
    6       -2.759167
    7       -0.131382
    8        1.336606
    9        8.780509
   10        9.345986
   11       12.833845
   12       14.711973
 
 -0.3333333E+00  0.2500000E+00  0.1250000E+00  0.6944444E-02
    1      -12.862941
    2      -12.630945
    3       -3.893993
    4       -3.796351
    5       -1.280919
    6       -1.248798
    7       -1.228807
    8        0.328174
    9       10.260449
   10       10.889025
   11       11.662534
   12       13.121892
 
 -0.2500000E+00  0.2500000E+00  0.1250000E+00  0.3472222E-02
    1      -13.509631
    2      -13.267280
    3       -2.808848
    4       -2.721068
    5       -2.013675
    6       -0.384739
    7       -0.371868
    8       -0.342721
    9       10.851274
   10       11.608353
   11       12.161475
   12       12.610349
 
  0.3333333E+00  0.3333333E+00  0.1250000E+00  0.3472222E-02
    1       -8.014188
    2       -7.929297
    3       -7.927281
    4       -7.845465
    5       -5.882129
    6       -5.881297
    7        4.061008
    8        4.610910
    9        4.618961
   10        5.267124
   11       15.524891
   12       15.544328
 
  0.4166667E+00  0.3333333E+00  0.1250000E+00  0.6944444E-02
    1       -9.230140
    2       -9.070814
    3       -7.337226
    4       -7.229339
    5       -5.025882
    6       -4.941356
    7        2.809974
    8        3.713194
    9        5.725099
   10        6.214298
   11       15.644816
   12       15.917716
 
  0.5000000E+00  0.3333333E+00  0.1250000E+00  0.6944444E-02
    1      -10.520066
    2      -10.328355
    3       -6.804432
    4       -6.674290
    5       -3.405412
    6       -3.325314
    7        1.399138
    8        2.596136
    9        6.843588
   10        7.515163
   11       14.389405
   12       14.549821
 
 -0.4166667E+00  0.3333333E+00  0.1250000E+00  0.6944444E-02
    1      -11.592848
    2      -11.381619
    3       -6.032628
    4       -5.903716
    5       -1.917378
    6       -1.859410
    7        0.201612
    8        1.594080
    9        7.974464
   10        8.793481
   11       12.770994
   12       13.021651
 
 -0.3333333E+00  0.3333333E+00  0.1250000E+00  0.3472222E-02
    1      -12.382291
    2      -12.158029
    3       -5.027848
    4       -4.909548
    5       -1.118786
    6       -1.072941
    7       -0.696081
    8        0.816311
    9        9.167229
   10        9.976421
   11       12.091773
   12       12.307008
 
  0.4166667E+00  0.4166667E+00  0.1250000E+00  0.3472222E-02
    1       -9.247170
    2       -9.153516
    3       -8.196550
    4       -8.131528
    5       -3.591808
    6       -3.507829
    7        2.512693
    8        3.110476
    9        6.051871
   10        6.327631
   11       14.362706
   12       14.846678
 
  0.5000000E+00  0.4166667E+00  0.1250000E+00  0.6944444E-02
    1      -10.098014
    2       -9.923678
    3       -7.977710
    4       -7.835868
    5       -2.246362
    6       -2.186023
    7        1.695865
    8        2.592151
    9        6.329558
   10        7.026758
   11       12.615742
   12       12.981929
 
 -0.4166667E+00  0.4166667E+00  0.1250000E+00  0.3472222E-02
    1      -10.975347
    2      -10.775784
    3       -7.139892
    4       -6.996023
    5       -1.591740
    6       -1.544012
    7        0.838628
    8        2.054923
    9        7.023608
   10        7.911646
   11       11.972978
   12       12.304467
 
  0.5000000E+00  0.5000000E+00  0.1250000E+00  0.1736111E-02
    1       -9.672187
    2       -9.574510
    3       -8.599845
    4       -8.525933
    5       -1.754111
    6       -1.705749
    7        1.913921
    8        2.523780
    9        6.141398
   10        6.743101
   11       11.883527
   12       12.234679
 
  0.0000000E+00  0.0000000E+00  0.2500000E+00  0.1736111E-02
    1      -14.956068
    2      -14.752540
    3       -3.609649
    4       -2.271022
    5        1.621619
    6        1.634241
    7        1.638076
    8        1.650302
    9        9.621399
   10       12.966924
   11       12.987282
   12       13.004739
 
  0.8333333E-01  0.6938894E-17  0.2500000E+00  0.6944444E-02
    1      -14.790855
    2      -14.589354
    3       -3.410139
    4       -2.080324
    5        0.977013
    6        0.999529
    7        1.283745
    8        1.302705
    9        9.815838
   10       13.009855
   11       13.082051
   12       13.685059
 
  0.1666667E+00  0.1387779E-16  0.2500000E+00  0.6944444E-02
    1      -14.296968
    2      -14.101570
    3       -2.816049
    4       -1.514322
    5       -0.673148
    6       -0.629845
    7        0.486516
    8        0.513598
    9       10.398342
   10       12.908363
   11       13.056159
   12       13.866717
 
  0.2500000E+00  0.0000000E+00  0.2500000E+00  0.6944444E-02
    1      -13.480324
    2      -13.294938
    3       -2.786026
    4       -2.719016
    5       -1.843739
    6       -0.595022
    7       -0.396196
    8       -0.363962
    9       11.282193
   10       11.739814
   11       12.077647
   12       12.608072
 
  0.3333333E+00  0.2775558E-16  0.2500000E+00  0.6944444E-02
    1      -12.353213
    2      -12.181598
    3       -5.003356
    4       -4.913006
    5       -1.131066
    6       -1.095945
    7       -0.535653
    8        0.616574
    9        9.247598
   10        9.868565
   11       12.209498
   12       12.372019
 