  32  32   0   0
  0.9254429E+01  0.4932875E-09  0.4932875E-09  0.1405931E-08  0.5000000E-15
  1.000000000000000E-004
  CAR 
 graphite                                
     14.70064173    -17.31513336  301      4.27613028      1.00000000
    -17.315  0.0000E+00  0.0000E+00
    -17.208  0.0000E+00  0.0000E+00
    -17.102  0.0000E+00  0.0000E+00
    -16.995  0.0000E+00  0.0000E+00
    -16.888  0.0000E+00  0.0000E+00
    -16.782  0.0000E+00  0.0000E+00
    -16.675  0.0000E+00  0.0000E+00
    -16.568  0.0000E+00  0.0000E+00
    -16.461  0.0000E+00  0.0000E+00
    -16.355  0.0000E+00  0.0000E+00
    -16.248  0.0000E+00  0.0000E+00
    -16.141  0.0000E+00  0.0000E+00
    -16.035  0.0000E+00  0.0000E+00
    -15.928  0.0000E+00  0.0000E+00
    -15.821  0.0000E+00  0.0000E+00
    -15.714  0.0000E+00  0.0000E+00
    -15.608  0.0000E+00  0.0000E+00
    -15.501  0.0000E+00  0.0000E+00
    -15.394  0.0000E+00  0.0000E+00
    -15.287  0.2040E+00  0.2150E-02
    -15.181  0.2468E+01  0.1281E+00
    -15.074  0.4212E+01  0.4920E+00
    -14.967  0.5104E+01  0.1011E+01
    -14.861  0.4855E+01  0.1515E+01
    -14.754  0.5145E+01  0.2053E+01
    -14.647  0.5033E+01  0.2599E+01
    -14.540  0.4794E+01  0.3123E+01
    -14.434  0.4836E+01  0.3633E+01
    -14.327  0.5055E+01  0.4160E+01
    -14.220  0.5275E+01  0.4712E+01
    -14.114  0.7096E+01  0.5343E+01
    -14.007  0.8067E+01  0.6158E+01
    -13.900  0.6310E+01  0.7012E+01
    -13.793  0.2579E+01  0.7465E+01
    -13.687  0.1885E+01  0.7689E+01
    -13.580  0.2150E+01  0.7900E+01
    -13.473  0.2508E+01  0.8149E+01
    -13.367  0.2865E+01  0.8436E+01
    -13.260  0.6446E+01  0.8837E+01
    -13.153  0.9944E+01  0.9938E+01
    -13.046  0.7343E+01  0.1090E+02
    -12.940  0.3984E+01  0.1139E+02
    -12.833  0.4082E+01  0.1182E+02
    -12.726  0.4180E+01  0.1226E+02
    -12.619  0.4302E+01  0.1271E+02
    -12.513  0.4432E+01  0.1318E+02
    -12.406  0.4556E+01  0.1366E+02
    -12.299  0.4679E+01  0.1415E+02
    -12.193  0.5343E+01  0.1468E+02
    -12.086  0.6270E+01  0.1529E+02
    -11.979  0.6213E+01  0.1598E+02
    -11.872  0.5674E+01  0.1661E+02
    -11.766  0.5380E+01  0.1720E+02
    -11.659  0.5540E+01  0.1778E+02
    -11.552  0.5702E+01  0.1838E+02
    -11.446  0.5864E+01  0.1900E+02
    -11.339  0.6027E+01  0.1963E+02
    -11.232  0.5637E+01  0.2026E+02
    -11.125  0.5307E+01  0.2084E+02
    -11.019  0.5357E+01  0.2141E+02
    -10.912  0.4522E+01  0.2195E+02
    -10.805  0.4302E+01  0.2240E+02
    -10.699  0.4986E+01  0.2290E+02
    -10.592  0.5162E+01  0.2344E+02
    -10.485  0.5339E+01  0.2400E+02
    -10.378  0.7274E+01  0.2464E+02
    -10.272  0.1159E+02  0.2567E+02
    -10.165  0.9321E+01  0.2679E+02
    -10.058  0.7048E+01  0.2766E+02
     -9.952  0.4965E+01  0.2829E+02
     -9.845  0.4414E+01  0.2879E+02
     -9.738  0.3967E+01  0.2924E+02
     -9.631  0.3520E+01  0.2964E+02
     -9.525  0.6665E+01  0.3029E+02
     -9.418  0.2068E+01  0.3085E+02
     -9.311  0.1869E+01  0.3106E+02
     -9.204  0.1670E+01  0.3125E+02
     -9.098  0.1471E+01  0.3142E+02
     -8.991  0.1272E+01  0.3157E+02
     -8.884  0.1402E+01  0.3170E+02
     -8.778  0.1899E+01  0.3188E+02
     -8.671  0.2395E+01  0.3211E+02
     -8.564  0.2892E+01  0.3239E+02
     -8.457  0.6003E+01  0.3282E+02
     -8.351  0.1053E+02  0.3370E+02
     -8.244  0.5051E+01  0.3458E+02
     -8.137  0.5296E+01  0.3511E+02
     -8.031  0.6420E+01  0.3573E+02
     -7.924  0.7543E+01  0.3648E+02
     -7.817  0.8666E+01  0.3734E+02
     -7.710  0.9789E+01  0.3833E+02
     -7.604  0.5958E+01  0.3922E+02
     -7.497  0.5540E+01  0.3982E+02
     -7.390  0.5609E+01  0.4042E+02
     -7.284  0.5558E+01  0.4102E+02
     -7.177  0.5410E+01  0.4160E+02
     -7.070  0.5237E+01  0.4217E+02
     -6.963  0.5111E+01  0.4272E+02
     -6.857  0.4993E+01  0.4326E+02
     -6.750  0.4874E+01  0.4379E+02
     -6.643  0.4756E+01  0.4430E+02
     -6.536  0.4638E+01  0.4480E+02
     -6.430  0.4519E+01  0.4529E+02
     -6.323  0.4400E+01  0.4577E+02
     -6.216  0.4596E+01  0.4624E+02
     -6.110  0.5191E+01  0.4676E+02
     -6.003  0.5767E+01  0.4735E+02
     -5.896  0.6342E+01  0.4799E+02
     -5.789  0.6917E+01  0.4870E+02
     -5.683  0.7493E+01  0.4947E+02
     -5.576  0.8068E+01  0.5030E+02
     -5.469  0.8644E+01  0.5119E+02
     -5.363  0.6923E+01  0.5211E+02
     -5.256  0.4248E+01  0.5261E+02
     -5.149  0.7561E+01  0.5321E+02
     -5.042  0.6220E+01  0.5395E+02
     -4.936  0.4805E+01  0.5454E+02
     -4.829  0.3390E+01  0.5497E+02
     -4.722  0.1975E+01  0.5526E+02
     -4.616  0.1261E+01  0.5541E+02
     -4.509  0.2688E+01  0.5562E+02
     -4.402  0.4115E+01  0.5598E+02
     -4.295  0.5541E+01  0.5650E+02
     -4.189  0.9578E+01  0.5724E+02
     -4.082  0.1113E+02  0.5844E+02
     -3.975  0.1044E+02  0.5958E+02
     -3.869  0.1204E+02  0.6077E+02
     -3.762  0.6670E+01  0.6187E+02
     -3.655  0.5123E+01  0.6245E+02
     -3.548  0.5948E+01  0.6304E+02
     -3.442  0.7034E+01  0.6373E+02
     -3.335  0.1210E+02  0.6475E+02
     -3.228  0.1742E+02  0.6631E+02
     -3.121  0.8304E+01  0.6859E+02
     -3.015  0.6597E+01  0.6930E+02
     -2.908  0.6843E+01  0.7002E+02
     -2.801  0.7202E+01  0.7077E+02
     -2.695  0.8054E+01  0.7157E+02
     -2.588  0.1206E+02  0.7263E+02
     -2.481  0.1573E+02  0.7440E+02
     -2.374  0.1309E+02  0.7593E+02
     -2.268  0.1035E+02  0.7722E+02
     -2.161  0.2101E+02  0.7883E+02
     -2.054  0.1587E+02  0.8189E+02
     -1.948  0.2065E+02  0.8397E+02
     -1.841  0.1312E+02  0.8548E+02
     -1.734  0.1486E+02  0.8696E+02
     -1.627  0.1456E+02  0.8857E+02
     -1.521  0.8027E+01  0.8964E+02
     -1.414  0.7012E+01  0.9038E+02
     -1.307  0.8370E+01  0.9122E+02
     -1.201  0.8682E+01  0.9212E+02
     -1.094  0.9742E+01  0.9310E+02
     -0.987  0.1001E+02  0.9417E+02
     -0.880  0.9990E+01  0.9523E+02
     -0.774  0.1142E+02  0.9638E+02
     -0.667  0.1172E+02  0.9819E+02
     -0.560  0.1131E+02  0.9940E+02
     -0.453  0.1181E+02  0.1006E+03
     -0.347  0.1002E+02  0.1019E+03
     -0.240  0.1058E+02  0.1030E+03
     -0.133  0.9956E+01  0.1041E+03
     -0.027  0.9661E+01  0.1051E+03
      0.080  0.9548E+01  0.1061E+03
      0.187  0.9577E+01  0.1072E+03
      0.294  0.9320E+01  0.1082E+03
      0.400  0.9074E+01  0.1092E+03
      0.507  0.8993E+01  0.1101E+03
      0.614  0.9309E+01  0.1111E+03
      0.720  0.9729E+01  0.1121E+03
      0.827  0.9849E+01  0.1132E+03
      0.934  0.1095E+02  0.1143E+03
      1.041  0.1031E+02  0.1154E+03
      1.147  0.8909E+01  0.1164E+03
      1.254  0.7357E+01  0.1173E+03
      1.361  0.6161E+01  0.1180E+03
      1.467  0.5782E+01  0.1186E+03
      1.574  0.4476E+01  0.1192E+03
      1.681  0.3229E+01  0.1196E+03
      1.788  0.2863E+01  0.1199E+03
      1.894  0.4384E+01  0.1203E+03
      2.001  0.6433E+01  0.1208E+03
      2.108  0.9633E+01  0.1217E+03
      2.214  0.8577E+01  0.1228E+03
      2.321  0.7091E+01  0.1236E+03
      2.428  0.6201E+01  0.1243E+03
      2.535  0.5439E+01  0.1250E+03
      2.641  0.4093E+01  0.1255E+03
      2.748  0.3462E+01  0.1259E+03
      2.855  0.3102E+01  0.1262E+03
      2.962  0.2751E+01  0.1265E+03
      3.068  0.2399E+01  0.1268E+03
      3.175  0.2083E+01  0.1270E+03
      3.282  0.1755E+01  0.1272E+03
      3.388  0.1459E+01  0.1274E+03
      3.495  0.1254E+01  0.1276E+03
      3.602  0.1048E+01  0.1277E+03
      3.709  0.8431E+00  0.1278E+03
      3.815  0.6388E+00  0.1279E+03
      3.922  0.4628E+00  0.1279E+03
      4.029  0.3069E+00  0.1280E+03
      4.135  0.1652E+00  0.1280E+03
      4.242  0.3581E-01  0.1280E+03
      4.349  0.6566E-01  0.1280E+03
      4.456  0.1827E+00  0.1280E+03
      4.562  0.3142E+00  0.1280E+03
      4.669  0.4626E+00  0.1281E+03
      4.776  0.6352E+00  0.1281E+03
      4.882  0.8499E+00  0.1282E+03
      4.989  0.1070E+01  0.1283E+03
      5.096  0.1291E+01  0.1284E+03
      5.203  0.1511E+01  0.1286E+03
      5.309  0.1732E+01  0.1288E+03
      5.416  0.2435E+01  0.1290E+03
      5.523  0.3566E+01  0.1293E+03
      5.630  0.3978E+01  0.1297E+03
      5.736  0.4669E+01  0.1302E+03
      5.843  0.7520E+01  0.1308E+03
      5.950  0.1106E+02  0.1318E+03
      6.056  0.9952E+01  0.1330E+03
      6.163  0.7773E+01  0.1339E+03
      6.270  0.6517E+01  0.1347E+03
      6.377  0.6008E+01  0.1353E+03
      6.483  0.5699E+01  0.1360E+03
      6.590  0.4963E+01  0.1365E+03
      6.697  0.4538E+01  0.1370E+03
      6.803  0.4098E+01  0.1375E+03
      6.910  0.3771E+01  0.1379E+03
      7.017  0.3875E+01  0.1383E+03
      7.124  0.4298E+01  0.1387E+03
      7.230  0.4704E+01  0.1392E+03
      7.337  0.4809E+01  0.1397E+03
      7.444  0.4685E+01  0.1402E+03
      7.550  0.4555E+01  0.1407E+03
      7.657  0.4374E+01  0.1412E+03
      7.764  0.4224E+01  0.1417E+03
      7.871  0.4125E+01  0.1421E+03
      7.977  0.4060E+01  0.1426E+03
      8.084  0.4017E+01  0.1430E+03
      8.191  0.3985E+01  0.1434E+03
      8.297  0.4023E+01  0.1438E+03
      8.404  0.4338E+01  0.1443E+03
      8.511  0.4339E+01  0.1448E+03
      8.618  0.4073E+01  0.1452E+03
      8.724  0.4019E+01  0.1456E+03
      8.831  0.3950E+01  0.1461E+03
      8.938  0.3884E+01  0.1465E+03
      9.045  0.3856E+01  0.1469E+03
      9.151  0.3900E+01  0.1473E+03
      9.258  0.3944E+01  0.1477E+03
      9.365  0.3984E+01  0.1481E+03
      9.471  0.4028E+01  0.1486E+03
      9.578  0.4046E+01  0.1490E+03
      9.685  0.4194E+01  0.1494E+03
      9.792  0.4599E+01  0.1499E+03
      9.898  0.4798E+01  0.1504E+03
     10.005  0.6594E+01  0.1510E+03
     10.112  0.5378E+01  0.1516E+03
     10.218  0.5527E+01  0.1522E+03
     10.325  0.6266E+01  0.1528E+03
     10.432  0.5487E+01  0.1534E+03
     10.539  0.5842E+01  0.1541E+03
     10.645  0.3820E+01  0.1546E+03
     10.752  0.2929E+01  0.1549E+03
     10.859  0.4281E+01  0.1553E+03
     10.965  0.3199E+01  0.1557E+03
     11.072  0.2961E+01  0.1561E+03
     11.179  0.3047E+01  0.1564E+03
     11.286  0.3218E+01  0.1567E+03
     11.392  0.3374E+01  0.1571E+03
     11.499  0.4391E+01  0.1575E+03
     11.606  0.7192E+01  0.1580E+03
     11.713  0.8307E+01  0.1589E+03
     11.819  0.9651E+01  0.1599E+03
     11.926  0.1154E+02  0.1610E+03
     12.033  0.1255E+02  0.1623E+03
     12.139  0.1299E+02  0.1637E+03
     12.246  0.1358E+02  0.1651E+03
     12.353  0.1231E+02  0.1665E+03
     12.460  0.7267E+01  0.1676E+03
     12.566  0.7460E+00  0.1680E+03
     12.673  0.5532E-02  0.1680E+03
     12.780  0.0000E+00  0.1680E+03
     12.886  0.0000E+00  0.1680E+03
     12.993  0.0000E+00  0.1680E+03
     13.100  0.0000E+00  0.1680E+03
     13.207  0.0000E+00  0.1680E+03
     13.313  0.0000E+00  0.1680E+03
     13.420  0.0000E+00  0.1680E+03
     13.527  0.0000E+00  0.1680E+03
     13.633  0.0000E+00  0.1680E+03
     13.740  0.0000E+00  0.1680E+03
     13.847  0.0000E+00  0.1680E+03
     13.954  0.0000E+00  0.1680E+03
     14.060  0.0000E+00  0.1680E+03
     14.167  0.0000E+00  0.1680E+03
     14.274  0.0000E+00  0.1680E+03
     14.380  0.0000E+00  0.1680E+03
     14.487  0.0000E+00  0.1680E+03
     14.594  0.0000E+00  0.1680E+03
     14.701  0.0000E+00  0.1680E+03
