   32   32    1    1
  0.9254429E+01  0.4932875E-09  0.4932875E-09  0.1405931E-08  0.5000000E-15
  1.000000000000000E-004
  CAR 
 graphite                                
    128     76     84
 
  0.0000000E+00  0.0000000E+00  0.0000000E+00  0.6944444E-02
    1      -15.315133
    2      -15.214643
    3      -15.213370
    4      -15.107894
    5      -10.017811
    6      -10.009401
    7      -10.006394
    8       -9.978468
    9       -9.977786
   10       -9.970550
   11       -9.966319
   12       -9.966310
   13       -9.965188
   14       -9.942885
   15       -9.932408
   16       -9.929988
   17       -8.955595
   18       -8.951744
   19       -8.950118
   20       -8.933364
   21       -8.929076
   22       -8.927719
   23       -8.926162
   24       -8.926150
   25       -8.923792
   26       -8.898080
   27       -8.893515
   28       -8.891117
   29       -4.043357
   30       -3.341070
   31       -3.339316
   32       -2.502524
   33       -2.130136
   34       -2.127253
   35       -2.114477
   36       -2.110463
   37       -2.109760
   38       -2.109756
   39       -2.107402
   40       -2.094422
   41       -2.092887
   42       -2.090960
   43       -2.089044
   44       -2.072695
   45        1.252323
   46        1.262299
   47        1.266390
   48        1.270342
   49        1.277842
   50        1.282760
   51        1.285091
   52        1.294052
   53        1.620759
   54        1.621621
   55        1.623856
   56        1.918107
   57        1.918932
   58        1.921393
   59        1.925637
   60        1.925667
   61        1.926122
   62        2.143105
   63        2.155258
   64        2.157138
   65        5.783819
   66        5.785220
   67        5.786398
   68        5.930821
   69        5.936993
   70        5.940995
   71        5.942333
   72        5.942767
   73        5.947412
   74        6.336507
   75        6.349241
   76        6.352225
   77        8.230034
   78       10.519640
   79       10.522151
   80       11.525017
   81       11.528755
   82       11.562551
   83       11.664366
   84       11.667101
 
  0.1666667E+00 -0.1387779E-16  0.0000000E+00  0.1388889E-01
    1      -15.149914
    2      -15.050436
    3      -15.049170
    4      -14.944845
    5      -11.305527
    6      -11.230716
    7      -11.229434
    8      -11.152023
    9      -10.437127
   10      -10.430179
   11      -10.371888
   12      -10.370420
   13      -10.364126
   14      -10.363387
   15      -10.303468
   16      -10.296111
   17       -8.322284
   18       -8.314106
   19       -8.271241
   20       -8.267874
   21       -8.261766
   22       -8.260667
   23       -8.214127
   24       -8.205842
   25       -7.473784
   26       -7.420262
   27       -7.419779
   28       -7.364689
   29       -3.843045
   30       -3.145286
   31       -3.143524
   32       -2.617681
   33       -2.599143
   34       -2.595937
   35       -2.595082
   36       -2.577117
   37       -2.576483
   38       -2.572954
   39       -2.554231
   40       -2.313014
   41       -1.966712
   42       -1.951098
   43       -1.947472
   44       -1.931872
   45        0.569596
   46        0.617473
   47        0.627070
   48        0.629973
   49        0.640709
   50        0.917898
   51        0.927102
   52        0.931870
   53        0.938712
   54        1.076212
   55        1.078739
   56        1.412853
   57        1.416155
   58        1.625680
   59        1.810700
   60        1.811186
   61        1.816612
   62        1.817293
   63        2.186961
   64        2.196458
   65        5.995458
   66        5.998818
   67        6.211149
   68        6.216988
   69        6.221311
   70        6.223424
   71        6.615221
   72        6.625252
   73        6.725654
   74        7.042952
   75        7.045789
   76        7.499891
   77        8.433875
   78       10.704935
   79       10.707429
   80       11.614840
   81       11.745289
   82       11.747707
   83       11.875248
   84       12.267366
 
  0.3333333E+00 -0.2775558E-16  0.0000000E+00  0.1388889E-01
    1      -14.656004
    2      -14.559620
    3      -14.558372
    4      -14.457460
    5      -12.712198
    6      -12.627835
    7      -12.626659
    8      -12.538959
    9      -10.857648
   10      -10.854042
   11      -10.786397
   12      -10.784397
   13      -10.781711
   14      -10.781146
   15      -10.710469
   16      -10.706782
   17       -7.150079
   18       -7.139325
   19       -7.103142
   20       -7.099751
   21       -7.091426
   22       -7.089981
   23       -7.051446
   24       -7.040921
   25       -5.361877
   26       -5.318297
   27       -5.317629
   28       -5.273129
   29       -3.770999
   30       -3.755053
   31       -3.742096
   32       -3.741287
   33       -3.726171
   34       -3.724977
   35       -3.711460
   36       -3.695293
   37       -3.246523
   38       -2.563170
   39       -2.561375
   40       -1.750739
   41       -1.493450
   42       -1.478531
   43       -1.474636
   44       -1.459839
   45       -1.032307
   46       -1.012299
   47       -1.010468
   48       -0.990544
   49       -0.954406
   50       -0.346387
   51       -0.344412
   52        0.122616
   53        0.134034
   54        0.138786
   55        0.149511
   56        0.359724
   57        1.125970
   58        1.128729
   59        1.621756
   60        1.622515
   61        1.625615
   62        1.626892
   63        2.161036
   64        2.165868
   65        6.531936
   66        6.537431
   67        6.786387
   68        6.791673
   69        6.794536
   70        6.796434
   71        7.109184
   72        7.114185
   73        8.883382
   74        9.046209
   75        9.180991
   76        9.183657
   77        9.568235
   78       11.250479
   79       11.253071
   80       11.427423
   81       11.900434
   82       11.968012
   83       11.970672
   84       12.186691
 
  0.5000000E+00  0.0000000E+00  0.0000000E+00  0.6944444E-02
    1      -13.840721
    2      -13.838026
    3      -13.750682
    4      -13.746828
    5      -13.746810
    6      -13.745288
    7      -13.652772
    8      -13.650059
    9      -11.005780
   10      -11.004093
   11      -10.933426
   12      -10.930485
   13      -10.930444
   14      -10.930025
   15      -10.855617
   16      -10.853939
   17       -6.248510
   18       -6.245978
   19       -6.224761
   20       -6.220917
   21       -6.219356
   22       -6.219355
   23       -6.196793
   24       -6.195217
   25       -4.659590
   26       -4.658645
   27       -4.642111
   28       -4.642065
   29       -4.642035
   30       -4.639468
   31       -4.621767
   32       -4.619965
   33       -3.146086
   34       -3.143578
   35       -3.114669
   36       -3.112967
   37       -3.112963
   38       -3.108829
   39       -3.080973
   40       -3.077416
   41       -2.271161
   42       -2.268987
   43       -1.615771
   44       -1.612215
   45       -1.611923
   46       -1.610452
   47       -0.840080
   48       -0.837638
   49       -0.764261
   50       -0.756195
   51       -0.748523
   52       -0.741268
   53       -0.741248
   54       -0.741075
   55       -0.728959
   56       -0.725942
   57        1.011848
   58        1.013745
   59        1.537224
   60        1.539146
   61        1.539454
   62        1.541761
   63        2.128545
   64        2.130770
   65        6.867593
   66        6.870265
   67        7.091172
   68        7.096306
   69        7.097130
   70        7.097141
   71        7.322497
   72        7.324967
   73       10.062210
   74       10.063057
   75       11.296293
   76       11.299140
   77       11.426010
   78       11.431742
   79       11.433282
   80       11.441069
   81       11.765399
   82       11.768601
   83       12.096436
   84       12.099762
 
  0.0000000E+00  0.1666667E+00  0.0000000E+00  0.1388889E-01
    1      -15.149917
    2      -15.050443
    3      -15.049170
    4      -14.944849
    5      -11.305535
    6      -11.230730
    7      -11.229433
    8      -11.152028
    9      -10.437209
   10      -10.430271
   11      -10.372138
   12      -10.370421
   13      -10.364150
   14      -10.363391
   15      -10.303494
   16      -10.296201
   17       -8.322462
   18       -8.313065
   19       -8.271620
   20       -8.267874
   21       -8.260671
   22       -8.259384
   23       -8.214197
   24       -8.204636
   25       -7.474600
   26       -7.421469
   27       -7.420246
   28       -7.365546
   29       -3.843034
   30       -3.145267
   31       -3.143519
   32       -2.618977
   33       -2.599387
   34       -2.597880
   35       -2.595086
   36       -2.577118
   37       -2.576398
   38       -2.574264
   39       -2.554372
   40       -2.313000
   41       -1.965188
   42       -1.948670
   43       -1.947469
   44       -1.930832
   45        0.570104
   46        0.615906
   47        0.625637
   48        0.627066
   49        0.636872
   50        0.922726
   51        0.930955
   52        0.931875
   53        0.940186
   54        1.077540
   55        1.078827
   56        1.412609
   57        1.415312
   58        1.626508
   59        1.810500
   60        1.810965
   61        1.814982
   62        1.817059
   63        2.186927
   64        2.195318
   65        5.995686
   66        6.000460
   67        6.211574
   68        6.216954
   69        6.222469
   70        6.225865
   71        6.615377
   72        6.627190
   73        6.724128
   74        7.041623
   75        7.044192
   76        7.498421
   77        8.433883
   78       10.704966
   79       10.707459
   80       11.615329
   81       11.746243
   82       11.747718
   83       11.875722
   84       12.258832
 
  0.1666667E+00  0.1666667E+00  0.0000000E+00  0.1388889E-01
    1      -14.820105
    2      -14.722696
    3      -14.721444
    4      -14.619384
    5      -11.925860
    6      -11.923005
    7      -11.847911
    8      -11.843852
    9      -11.843833
   10      -11.842222
   11      -11.762989
   12      -11.760134
   13       -9.593030
   14       -9.555216
   15       -9.555075
   16       -9.521694
   17       -8.553136
   18       -8.533821
   19       -8.529761
   20       -8.502518
   21       -6.367615
   22       -6.364402
   23       -6.321416
   24       -6.317618
   25       -6.317599
   26       -6.314856
   27       -6.270282
   28       -6.266867
   29       -3.941014
   30       -3.910558
   31       -3.909790
   32       -3.878537
   33       -3.444268
   34       -2.755980
   35       -2.754199
   36       -2.291406
   37       -2.288195
   38       -2.272200
   39       -2.267348
   40       -2.267343
   41       -2.266842
   42       -2.248225
   43       -2.245784
   44       -1.936714
   45       -0.416565
   46       -0.407043
   47       -0.404525
   48       -0.394404
   49       -0.062928
   50       -0.060566
   51        0.240528
   52        0.248894
   53        0.253246
   54        0.259078
   55        0.501892
   56        0.505284
   57        0.505481
   58        0.506800
   59        1.145690
   60        1.148025
   61        2.221121
   62        2.515726
   63        2.517086
   64        2.732294
   65        5.678640
   66        5.716674
   67        5.721781
   68        5.945563
   69        7.683312
   70        7.685573
   71        7.991647
   72        7.994185
   73        7.994929
   74        7.997601
   75        8.383751
   76        8.386217
   77        8.843658
   78       11.076863
   79       11.079362
   80       12.335517
   81       12.338642
   82       12.514945
   83       12.530113
   84       12.555022
 
  0.3333333E+00  0.1666667E+00  0.0000000E+00  0.1388889E-01
    1      -14.164576
    2      -14.071246
    3      -14.070019
    4      -13.972477
    5      -13.193977
    6      -13.106666
    7      -13.105453
    8      -13.014495
    9      -12.240653
   10      -12.159377
   11      -12.158047
   12      -12.073650
   13       -9.570733
   14       -9.510909
   15       -9.510099
   16       -9.449106
   17       -7.685759
   18       -7.647125
   19       -7.643519
   20       -7.603795
   21       -5.375247
   22       -5.344856
   23       -5.343971
   24       -5.311582
   25       -5.214284
   26       -5.181325
   27       -5.178690
   28       -5.145433
   29       -4.228850
   30       -4.193080
   31       -4.192439
   32       -4.156101
   33       -3.187275
   34       -3.164490
   35       -3.164110
   36       -3.140223
   37       -2.656644
   38       -2.141969
   39       -2.121437
   40       -2.119007
   41       -2.096931
   42       -1.987850
   43       -1.986204
   44       -1.653527
   45       -1.636295
   46       -1.632648
   47       -1.615295
   48       -1.507404
   49       -1.197831
   50       -0.875225
   51       -0.873406
   52       -0.760952
   53       -0.748330
   54       -0.743296
   55       -0.731191
   56       -0.393861
   57       -0.134891
   58        0.197704
   59        0.198944
   60        0.880556
   61        2.527989
   62        2.924140
   63        2.925220
   64        3.306355
   65        5.399765
   66        5.573125
   67        5.577463
   68        5.813362
   69        8.478364
   70        8.706188
   71        8.709237
   72        8.950993
   73        9.662287
   74        9.970039
   75       10.200976
   76       10.203414
   77       10.491077
   78       10.876919
   79       11.782495
   80       11.787494
   81       12.089445
   82       12.211966
   83       12.382688
   84       12.386927
 
  0.5000000E+00  0.1666667E+00  0.0000000E+00  0.1388889E-01
    1      -14.165806
    2      -14.072492
    3      -14.071227
    4      -13.973701
    5      -13.192242
    6      -13.104916
    7      -13.103756
    8      -13.012774
    9      -12.241891
   10      -12.160632
   11      -12.159272
   12      -12.074892
   13       -9.568202
   14       -9.508386
   15       -9.507239
   16       -9.446214
   17       -7.679261
   18       -7.639932
   19       -7.637881
   20       -7.597470
   21       -5.384915
   22       -5.354618
   23       -5.354105
   24       -5.321789
   25       -5.224959
   26       -5.192251
   27       -5.188432
   28       -5.155434
   29       -4.231857
   30       -4.196382
   31       -4.195112
   32       -4.159045
   33       -3.174637
   34       -3.152253
   35       -3.150446
   36       -3.126937
   37       -2.657828
   38       -2.141843
   39       -2.120648
   40       -2.120000
   41       -2.097361
   42       -1.988955
   43       -1.987404
   44       -1.651000
   45       -1.633913
   46       -1.629579
   47       -1.612498
   48       -1.505839
   49       -1.198945
   50       -0.873778
   51       -0.871824
   52       -0.760138
   53       -0.747709
   54       -0.744380
   55       -0.731729
   56       -0.394932
   57       -0.133459
   58        0.196580
   59        0.197735
   60        0.879230
   61        2.528402
   62        2.926676
   63        2.927173
   64        3.312015
   65        5.399646
   66        5.575488
   67        5.578156
   68        5.814357
   69        8.473682
   70        8.702051
   71        8.705794
   72        8.948893
   73        9.660672
   74        9.970914
   75       10.200698
   76       10.203165
   77       10.489889
   78       10.879143
   79       11.781671
   80       11.786639
   81       12.087989
   82       12.208934
   83       12.380981
   84       12.385139
 
 -0.3333333E+00  0.1666667E+00  0.0000000E+00  0.1388889E-01
    1      -14.820842
    2      -14.723442
    3      -14.722167
    4      -14.620116
    5      -11.928113
    6      -11.922148
    7      -11.848890
    8      -11.847539
    9      -11.842830
   10      -11.841656
   11      -11.765410
   12      -11.759431
   13       -9.583787
   14       -9.545720
   15       -9.544487
   16       -9.510775
   17       -8.550268
   18       -8.529249
   19       -8.527984
   20       -8.498924
   21       -6.378258
   22       -6.368814
   23       -6.331690
   24       -6.328618
   25       -6.321111
   26       -6.320479
   27       -6.280886
   28       -6.271625
   29       -3.956589
   30       -3.926437
   31       -3.925214
   32       -3.894254
   33       -3.445001
   34       -2.756674
   35       -2.754938
   36       -2.288199
   37       -2.269848
   38       -2.268797
   39       -2.265010
   40       -2.249338
   41       -2.248054
   42       -2.245520
   43       -2.227309
   44       -1.937410
   45       -0.426192
   46       -0.416372
   47       -0.414881
   48       -0.405371
   49       -0.064576
   50       -0.060189
   51        0.253214
   52        0.259803
   53        0.260975
   54        0.268064
   55        0.501141
   56        0.502190
   57        0.505246
   58        0.507431
   59        1.143173
   60        1.148015
   61        2.221719
   62        2.521396
   63        2.522518
   64        2.745003
   65        5.677092
   66        5.722315
   67        5.724510
   68        5.952359
   69        7.675817
   70        7.684707
   71        7.983455
   72        7.987829
   73        7.992985
   74        7.995351
   75        8.377200
   76        8.383833
   77        8.842660
   78       11.075984
   79       11.078475
   80       12.336233
   81       12.349369
   82       12.515421
   83       12.553293
   84       12.560415
 
 -0.1666667E+00  0.1666667E+00  0.0000000E+00  0.1388889E-01
    1      -15.150164
    2      -15.050691
    3      -15.049411
    4      -14.945094
    5      -11.311820
    6      -11.237049
    7      -11.235772
    8      -11.158422
    9      -10.429019
   10      -10.427019
   11      -10.364435
   12      -10.361074
   13      -10.361057
   14      -10.360460
   15      -10.295016
   16      -10.293052
   17       -8.317243
   18       -8.315583
   19       -8.265454
   20       -8.263495
   21       -8.263484
   22       -8.262000
   23       -8.209115
   24       -8.207326
   25       -7.483673
   26       -7.431302
   27       -7.428439
   28       -7.374496
   29       -3.843282
   30       -3.145503
   31       -3.143768
   32       -2.618894
   33       -2.616305
   34       -2.598789
   35       -2.594478
   36       -2.594252
   37       -2.594247
   38       -2.574143
   39       -2.572217
   40       -2.313236
   41       -1.945622
   42       -1.928952
   43       -1.927794
   44       -1.910970
   45        0.565333
   46        0.599515
   47        0.609441
   48        0.614277
   49        0.622941
   50        0.936903
   51        0.944791
   52        0.947479
   53        0.956962
   54        1.072432
   55        1.073416
   56        1.415560
   57        1.417830
   58        1.619771
   59        1.813659
   60        1.817944
   61        1.818171
   62        1.818397
   63        2.195282
   64        2.197381
   65        5.998207
   66        6.000474
   67        6.219434
   68        6.221330
   69        6.221732
   70        6.225952
   71        6.623282
   72        6.626105
   73        6.717754
   74        7.032054
   75        7.036756
   76        7.489403
   77        8.433538
   78       10.704645
   79       10.707136
   80       11.649375
   81       11.780936
   82       11.781350
   83       11.909591
   84       12.256650
 
 -0.2710505E-19  0.3333333E+00  0.0000000E+00  0.1388889E-01
    1      -14.656017
    2      -14.559646
    3      -14.558373
    4      -14.457473
    5      -12.712250
    6      -12.627938
    7      -12.626660
    8      -12.539011
    9      -10.857925
   10      -10.853803
   11      -10.787104
   12      -10.784399
   13      -10.781201
   14      -10.780880
   15      -10.710667
   16      -10.706487
   17       -7.150126
   18       -7.138304
   19       -7.103264
   20       -7.099749
   21       -7.089983
   22       -7.088933
   23       -7.051322
   24       -7.039650
   25       -5.362791
   26       -5.319545
   27       -5.318290
   28       -5.274125
   29       -3.772325
   30       -3.755308
   31       -3.744468
   32       -3.741293
   33       -3.726174
   34       -3.725480
   35       -3.712586
   36       -3.695589
   37       -3.246478
   38       -2.563086
   39       -2.561356
   40       -1.750675
   41       -1.491719
   42       -1.475898
   43       -1.474633
   44       -1.458738
   45       -1.033839
   46       -1.013938
   47       -1.012302
   48       -0.992519
   49       -0.954236
   50       -0.345852
   51       -0.344331
   52        0.125638
   53        0.137584
   54        0.138790
   55        0.150890
   56        0.360096
   57        1.125327
   58        1.128457
   59        1.620249
   60        1.622555
   61        1.625561
   62        1.626391
   63        2.160588
   64        2.165171
   65        6.532305
   66        6.539145
   67        6.787011
   68        6.791663
   69        6.796003
   70        6.798434
   71        7.109448
   72        7.115936
   73        8.882302
   74        9.046222
   75        9.180033
   76        9.182689
   77        9.567275
   78       11.250607
   79       11.253192
   80       11.427505
   81       11.901117
   82       11.969359
   83       11.970676
   84       12.187274
 
  0.1666667E+00  0.3333333E+00  0.0000000E+00  0.1388889E-01
    1      -14.164584
    2      -14.071260
    3      -14.070019
    4      -13.972483
    5      -13.194034
    6      -13.106779
    7      -13.105454
    8      -13.014551
    9      -12.240596
   10      -12.159265
   11      -12.158047
   12      -12.073593
   13       -9.570777
   14       -9.511002
   15       -9.510102
   16       -9.449157
   17       -7.685342
   18       -7.646368
   19       -7.643515
   20       -7.603436
   21       -5.375593
   22       -5.344875
   23       -5.344705
   24       -5.311993
   25       -5.212921
   26       -5.178721
   27       -5.178608
   28       -5.144107
   29       -4.230087
   30       -4.194995
   31       -4.193077
   32       -4.157421
   33       -3.188897
   34       -3.167277
   35       -3.164491
   36       -3.141781
   37       -2.656604
   38       -2.142732
   39       -2.121466
   40       -2.120898
   41       -2.098193
   42       -1.987778
   43       -1.986198
   44       -1.651629
   45       -1.633039
   46       -1.632642
   47       -1.613827
   48       -1.507200
   49       -1.197776
   50       -0.874839
   51       -0.873333
   52       -0.759073
   53       -0.746503
   54       -0.743294
   55       -0.730524
   56       -0.394168
   57       -0.134610
   58        0.197134
   59        0.198809
   60        0.880135
   61        2.527547
   62        2.923997
   63        2.924457
   64        3.305935
   65        5.400323
   66        5.574438
   67        5.577479
   68        5.814084
   69        8.479599
   70        8.708251
   71        8.709403
   72        8.951999
   73        9.662285
   74        9.968969
   75       10.199622
   76       10.202905
   77       10.490172
   78       10.876957
   79       11.782679
   80       11.787666
   81       12.089413
   82       12.211646
   83       12.382272
   84       12.386488
 
  0.3333333E+00  0.3333333E+00  0.0000000E+00  0.1388889E-01
    1      -13.358013
    2      -13.355398
    3      -13.352827
    4      -13.271404
    5      -13.266867
    6      -13.266785
    7      -13.266674
    8      -13.263892
    9      -13.262944
   10      -13.176286
   11      -13.173781
   12      -13.171135
   13       -8.353408
   14       -8.294264
   15       -8.293946
   16       -8.288811
   17       -8.286967
   18       -8.284676
   19       -8.282299
   20       -8.225771
   21       -6.245776
   22       -6.244567
   23       -6.243681
   24       -6.242251
   25       -3.478564
   26       -3.474293
   27       -3.471510
   28       -3.461830
   29       -3.456684
   30       -3.455689
   31       -3.455681
   32       -3.454615
   33       -3.451220
   34       -3.440523
   35       -3.438488
   36       -3.434419
   37       -2.122409
   38       -2.115628
   39       -2.112994
   40       -2.109586
   41       -2.104428
   42       -2.103769
   43       -2.101727
   44       -2.101710
   45       -2.097558
   46       -2.092864
   47       -2.089176
   48       -2.083438
   49       -1.695493
   50       -1.693405
   51       -1.691170
   52       -1.057353
   53       -1.053753
   54       -1.053328
   55       -1.052729
   56       -1.050873
   57       -1.049255
   58       -0.304914
   59       -0.302608
   60       -0.300446
   61        3.796976
   62        4.264850
   63        4.271503
   64        4.275778
   65        4.276079
   66        4.287709
   67        4.288949
   68        4.813713
   69       10.474813
   70       10.477915
   71       10.483458
   72       10.638707
   73       10.651591
   74       10.653171
   75       10.653266
   76       10.654427
   77       10.655081
   78       10.682130
   79       10.684447
   80       10.695394
   81       10.832854
   82       10.833838
   83       10.837306
   84       12.700642
 
  0.5000000E+00  0.3333333E+00  0.0000000E+00  0.1388889E-01
    1      -14.166548
    2      -14.073254
    3      -14.071947
    4      -13.974441
    5      -13.195972
    6      -13.108725
    7      -13.107381
    8      -13.016486
    9      -12.236687
   10      -12.155329
   11      -12.154172
   12      -12.069691
   13       -9.561108
   14       -9.501447
   15       -9.500090
   16       -9.439253
   17       -7.686072
   18       -7.646267
   19       -7.645760
   20       -7.604895
   21       -5.384812
   22       -5.355276
   23       -5.353298
   24       -5.321724
   25       -5.217988
   26       -5.184431
   27       -5.183029
   28       -5.149155
   29       -4.243876
   30       -4.209471
   31       -4.205708
   32       -4.170764
   33       -3.186823
   34       -3.165709
   35       -3.161425
   36       -3.139358
   37       -2.658508
   38       -2.154803
   39       -2.134436
   40       -2.131277
   41       -2.109664
   42       -1.989668
   43       -1.988208
   44       -1.633983
   45       -1.615894
   46       -1.614055
   47       -1.595646
   48       -1.509025
   49       -1.199602
   50       -0.876606
   51       -0.875259
   52       -0.745719
   53       -0.732061
   54       -0.731138
   55       -0.717096
   56       -0.390831
   57       -0.136531
   58        0.200155
   59        0.202202
   60        0.883153
   61        2.532018
   62        2.928901
   63        2.930990
   64        3.313604
   65        5.403798
   66        5.575052
   67        5.575864
   68        5.807976
   69        8.482074
   70        8.707829
   71        8.709094
   72        8.948597
   73        9.659733
   74        9.961114
   75       10.192207
   76       10.196295
   77       10.485297
   78       10.874646
   79       11.779986
   80       11.785024
   81       12.094559
   82       12.204053
   83       12.379239
   84       12.384021
 
 -0.3333333E+00  0.3333333E+00  0.0000000E+00  0.1388889E-01
    1      -14.656997
    2      -14.560639
    3      -14.559334
    4      -14.458448
    5      -12.716162
    6      -12.631888
    7      -12.630538
    8      -12.542925
    9      -10.850358
   10      -10.848631
   11      -10.779389
   12      -10.776461
   13      -10.776438
   14      -10.775914
   15      -10.703119
   16      -10.701390
   17       -7.145818
   18       -7.144106
   19       -7.098272
   20       -7.096400
   21       -7.096393
   22       -7.094669
   23       -7.047585
   24       -7.045689
   25       -5.374771
   26       -5.332334
   27       -5.329203
   28       -5.285851
   29       -3.770689
   30       -3.768577
   31       -3.743385
   32       -3.739732
   33       -3.738914
   34       -3.738910
   35       -3.710885
   36       -3.709235
   37       -3.247452
   38       -2.564015
   39       -2.562344
   40       -1.751613
   41       -1.472861
   42       -1.456939
   43       -1.455575
   44       -1.439526
   45       -1.049585
   46       -1.030632
   47       -1.025771
   48       -1.007119
   49       -0.957897
   50       -0.349302
   51       -0.348084
   52        0.141732
   53        0.153464
   54        0.155864
   55        0.168193
   56        0.356323
   57        1.130273
   58        1.132331
   59        1.624839
   60        1.628955
   61        1.629243
   62        1.629653
   63        2.166400
   64        2.168617
   65        6.537334
   66        6.539725
   67        6.791790
   68        6.793522
   69        6.793716
   70        6.797393
   71        7.109501
   72        7.112069
   73        8.873241
   74        9.044901
   75        9.170714
   76        9.174500
   77        9.559903
   78       11.249540
   79       11.252128
   80       11.426049
   81       11.933002
   82       12.001229
   83       12.001365
   84       12.216862
 
 -0.1666667E+00  0.3333333E+00  0.0000000E+00  0.1388889E-01
    1      -14.820852
    2      -14.723462
    3      -14.722167
    4      -14.620127
    5      -11.928472
    6      -11.921915
    7      -11.849954
    8      -11.847543
    9      -11.841824
   10      -11.841588
   11      -11.765645
   12      -11.759075
   13       -9.584523
   14       -9.547089
   15       -9.544496
   16       -9.511407
   17       -8.548958
   18       -8.527975
   19       -8.526224
   20       -8.497260
   21       -6.378580
   22       -6.369460
   23       -6.332395
   24       -6.328617
   25       -6.321246
   26       -6.321070
   27       -6.280924
   28       -6.272110
   29       -3.957718
   30       -3.928483
   31       -3.925219
   32       -3.895202
   33       -3.444970
   34       -2.756617
   35       -2.754924
   36       -2.286984
   37       -2.270557
   38       -2.266301
   39       -2.265006
   40       -2.249340
   41       -2.248610
   42       -2.243930
   43       -2.227246
   44       -1.937366
   45       -0.430029
   46       -0.419861
   47       -0.414887
   48       -0.406644
   49       -0.064862