   4   4   0   0
  0.8817899E+01  0.2466437E-09  0.2466437E-09  0.6698068E-09  0.5000000E-15
  1.000000000000000E-004
  CAR 
 graphite                                
     18.55610997    -16.94043545  301      4.68785511      1.00000000
    -16.940  0.0000E+00  0.0000E+00
    -16.822  0.0000E+00  0.0000E+00
    -16.704  0.0000E+00  0.0000E+00
    -16.585  0.0000E+00  0.0000E+00
    -16.467  0.0000E+00  0.0000E+00
    -16.349  0.0000E+00  0.0000E+00
    -16.231  0.0000E+00  0.0000E+00
    -16.112  0.0000E+00  0.0000E+00
    -15.994  0.0000E+00  0.0000E+00
    -15.876  0.0000E+00  0.0000E+00
    -15.757  0.0000E+00  0.0000E+00
    -15.639  0.0000E+00  0.0000E+00
    -15.521  0.0000E+00  0.0000E+00
    -15.402  0.0000E+00  0.0000E+00
    -15.284  0.0000E+00  0.0000E+00
    -15.166  0.0000E+00  0.0000E+00
    -15.047  0.0000E+00  0.0000E+00
    -14.929  0.2294E-04  0.8786E-07
    -14.811  0.1164E-02  0.5874E-04
    -14.692  0.1882E-02  0.2496E-03
    -14.574  0.2954E-02  0.5321E-03
    -14.456  0.2985E-02  0.9018E-03
    -14.337  0.3130E-02  0.1267E-02
    -14.219  0.3114E-02  0.1636E-02
    -14.101  0.3036E-02  0.2001E-02
    -13.982  0.3021E-02  0.2358E-02
    -13.864  0.3131E-02  0.2722E-02
    -13.746  0.3172E-02  0.3097E-02
    -13.627  0.3157E-02  0.3471E-02
    -13.509  0.3080E-02  0.3842E-02
    -13.391  0.3057E-02  0.4204E-02
    -13.272  0.3076E-02  0.4567E-02
    -13.154  0.3120E-02  0.4933E-02
    -13.036  0.3177E-02  0.5305E-02
    -12.917  0.3218E-02  0.5684E-02
    -12.799  0.3192E-02  0.6064E-02
    -12.681  0.3150E-02  0.6440E-02
    -12.563  0.3117E-02  0.6810E-02
    -12.444  0.3132E-02  0.7180E-02
    -12.326  0.3148E-02  0.7551E-02
    -12.208  0.3171E-02  0.7925E-02
    -12.089  0.3202E-02  0.8302E-02
    -11.971  0.3240E-02  0.8683E-02
    -11.853  0.3275E-02  0.9068E-02
    -11.734  0.3264E-02  0.9455E-02
    -11.616  0.3241E-02  0.9840E-02
    -11.498  0.3226E-02  0.1022E-01
    -11.379  0.3233E-02  0.1060E-01
    -11.261  0.3256E-02  0.1099E-01
    -11.143  0.3285E-02  0.1138E-01
    -11.024  0.3314E-02  0.1177E-01
    -10.906  0.3343E-02  0.1216E-01
    -10.788  0.3386E-02  0.1256E-01
    -10.669  0.3445E-02  0.1296E-01
    -10.551  0.3510E-02  0.1337E-01
    -10.433  0.3565E-02  0.1379E-01
    -10.314  0.3653E-02  0.1422E-01
    -10.196  0.3793E-02  0.1466E-01
    -10.078  0.3952E-02  0.1512E-01
     -9.959  0.5171E-02  0.1565E-01
     -9.841  0.6136E-02  0.1631E-01
     -9.723  0.4942E-02  0.1697E-01
     -9.604  0.3605E-02  0.1748E-01
     -9.486  0.2778E-02  0.1784E-01
     -9.368  0.2497E-02  0.1816E-01
     -9.250  0.2215E-02  0.1844E-01
     -9.131  0.3638E-02  0.1882E-01
     -9.013  0.3098E-02  0.1923E-01
     -8.895  0.1188E-02  0.1940E-01
     -8.776  0.1048E-02  0.1954E-01
     -8.658  0.9073E-03  0.1965E-01
     -8.540  0.7667E-03  0.1975E-01
     -8.421  0.9110E-03  0.1985E-01
     -8.303  0.1198E-02  0.1997E-01
     -8.185  0.1485E-02  0.2013E-01
     -8.066  0.2540E-02  0.2034E-01
     -7.948  0.5135E-02  0.2080E-01
     -7.830  0.4506E-02  0.2139E-01
     -7.711  0.3669E-02  0.2185E-01
     -7.593  0.4408E-02  0.2233E-01
     -7.475  0.5147E-02  0.2290E-01
     -7.356  0.5886E-02  0.2355E-01
     -7.238  0.5306E-02  0.2426E-01
     -7.120  0.3580E-02  0.2477E-01
     -7.001  0.3472E-02  0.2519E-01
     -6.883  0.3381E-02  0.2560E-01
     -6.765  0.3295E-02  0.2599E-01
     -6.646  0.3210E-02  0.2638E-01
     -6.528  0.3118E-02  0.2675E-01
     -6.410  0.3024E-02  0.2711E-01
     -6.291  0.2929E-02  0.2747E-01
     -6.173  0.2834E-02  0.2781E-01
     -6.055  0.2740E-02  0.2814E-01
     -5.937  0.2645E-02  0.2846E-01
     -5.818  0.2550E-02  0.2876E-01
     -5.700  0.2760E-02  0.2908E-01
     -5.582  0.2990E-02  0.2942E-01
     -5.463  0.3220E-02  0.2978E-01
     -5.345  0.3451E-02  0.3018E-01
     -5.227  0.3681E-02  0.3060E-01
     -5.108  0.3911E-02  0.3105E-01
     -4.990  0.4141E-02  0.3153E-01
     -4.872  0.4159E-02  0.3202E-01
     -4.753  0.3972E-02  0.3250E-01
     -4.635  0.3824E-02  0.3296E-01
     -4.517  0.3822E-02  0.3341E-01
     -4.398  0.3820E-02  0.3386E-01
     -4.280  0.3819E-02  0.3431E-01
     -4.162  0.3853E-02  0.3477E-01
     -4.043  0.3933E-02  0.3523E-01
     -3.925  0.4012E-02  0.3570E-01
     -3.807  0.4095E-02  0.3618E-01
     -3.688  0.4449E-02  0.3668E-01
     -3.570  0.4814E-02  0.3723E-01
     -3.452  0.5059E-02  0.3782E-01
     -3.333  0.5414E-02  0.3843E-01
     -3.215  0.5688E-02  0.3909E-01
     -3.097  0.5862E-02  0.3978E-01
     -2.978  0.6030E-02  0.4048E-01
     -2.860  0.6392E-02  0.4121E-01
     -2.742  0.7064E-02  0.4200E-01
     -2.623  0.7296E-02  0.4286E-01
     -2.505  0.7165E-02  0.4372E-01
     -2.387  0.6772E-02  0.4455E-01
     -2.269  0.6466E-02  0.4533E-01
     -2.150  0.7097E-02  0.4610E-01
     -2.032  0.8179E-02  0.4702E-01
     -1.914  0.9065E-02  0.4804E-01
     -1.795  0.1041E-01  0.4919E-01
     -1.677  0.2159E-01  0.5059E-01
     -1.559  0.1115E-01  0.5215E-01
     -1.440  0.9531E-02  0.5336E-01
     -1.322  0.8568E-02  0.5443E-01
     -1.204  0.7403E-02  0.5537E-01
     -1.085  0.5601E-02  0.5617E-01
     -0.967  0.4681E-02  0.5675E-01
     -0.849  0.4719E-02  0.5730E-01
     -0.730  0.5225E-02  0.5789E-01
     -0.612  0.5877E-02  0.5854E-01
     -0.494  0.6862E-02  0.5934E-01
     -0.375  0.6888E-02  0.6014E-01
     -0.257  0.9010E-02  0.6109E-01
     -0.139  0.7807E-02  0.6208E-01
     -0.020  0.7115E-02  0.6296E-01
      0.098  0.6658E-02  0.6377E-01
      0.216  0.6340E-02  0.6454E-01
      0.335  0.6066E-02  0.6527E-01
      0.453  0.5823E-02  0.6598E-01
      0.571  0.5699E-02  0.6666E-01
      0.690  0.6006E-02  0.6735E-01
      0.808  0.5886E-02  0.6805E-01
      0.926  0.5762E-02  0.6874E-01
      1.044  0.5812E-02  0.6942E-01
      1.163  0.5839E-02  0.7012E-01
      1.281  0.5529E-02  0.7079E-01
      1.399  0.6213E-02  0.7147E-01
      1.518  0.5274E-02  0.7215E-01
      1.636  0.4376E-02  0.7272E-01
      1.754  0.4458E-02  0.7321E-01
      1.873  0.4615E-02  0.7375E-01
      1.991  0.4376E-02  0.7428E-01
      2.109  0.4317E-02  0.7480E-01
      2.228  0.4321E-02  0.7530E-01
      2.346  0.4309E-02  0.7582E-01
      2.464  0.4329E-02  0.7633E-01
      2.583  0.4462E-02  0.7683E-01
      2.701  0.3838E-02  0.7734E-01
      2.819  0.3439E-02  0.7776E-01
      2.938  0.2786E-02  0.7812E-01
      3.056  0.2339E-02  0.7842E-01
      3.174  0.1966E-02  0.7868E-01
      3.293  0.1778E-02  0.7890E-01
      3.411  0.1600E-02  0.7910E-01
      3.529  0.1419E-02  0.7928E-01
      3.648  0.1238E-02  0.7943E-01
      3.766  0.1054E-02  0.7957E-01
      3.884  0.8712E-03  0.7968E-01
      4.003  0.7116E-03  0.7978E-01
      4.121  0.5577E-03  0.7985E-01
      4.239  0.4231E-03  0.7991E-01
      4.357  0.2995E-03  0.7995E-01
      4.476  0.1843E-03  0.7998E-01
      4.594  0.7607E-04  0.8000E-01
      4.712  0.1328E-04  0.8000E-01
      4.831  0.9239E-04  0.8001E-01
      4.949  0.1793E-03  0.8002E-01
      5.067  0.2751E-03  0.8005E-01
      5.186  0.3812E-03  0.8009E-01
      5.304  0.5013E-03  0.8014E-01
      5.422  0.6455E-03  0.8021E-01
      5.541  0.8132E-03  0.8029E-01
      5.659  0.9813E-03  0.8040E-01
      5.777  0.1258E-02  0.8053E-01
      5.896  0.1922E-02  0.8072E-01
      6.014  0.2275E-02  0.8097E-01
      6.132  0.2460E-02  0.8124E-01
      6.251  0.3899E-02  0.8160E-01
      6.369  0.6191E-02  0.8222E-01
      6.487  0.4542E-02  0.8281E-01
      6.606  0.4462E-02  0.8334E-01
      6.724  0.4390E-02  0.8387E-01
      6.842  0.4317E-02  0.8438E-01
      6.961  0.4352E-02  0.8489E-01
      7.079  0.4145E-02  0.8540E-01
      7.197  0.3409E-02  0.8585E-01
      7.316  0.3202E-02  0.8624E-01
      7.434  0.3030E-02  0.8661E-01
      7.552  0.2881E-02  0.8695E-01
      7.671  0.2755E-02  0.8729E-01
      7.789  0.2651E-02  0.8761E-01
      7.907  0.2580E-02  0.8792E-01
      8.025  0.2516E-02  0.8822E-01
      8.144  0.2463E-02  0.8851E-01
      8.262  0.2412E-02  0.8880E-01
      8.380  0.2362E-02  0.8908E-01
      8.499  0.2312E-02  0.8936E-01
      8.617  0.2263E-02  0.8963E-01
      8.735  0.2214E-02  0.8990E-01
      8.854  0.2149E-02  0.9015E-01
      8.972  0.2088E-02  0.9040E-01
      9.090  0.2078E-02  0.9065E-01
      9.209  0.2251E-02  0.9090E-01
      9.327  0.2322E-02  0.9118E-01
      9.445  0.2321E-02  0.9145E-01
      9.564  0.2394E-02  0.9173E-01
      9.682  0.2468E-02  0.9202E-01
      9.800  0.2512E-02  0.9231E-01
      9.919  0.2530E-02  0.9261E-01
     10.037  0.2563E-02  0.9291E-01
     10.155  0.2610E-02  0.9322E-01
     10.274  0.2660E-02  0.9353E-01
     10.392  0.3093E-02  0.9386E-01
     10.510  0.3581E-02  0.9426E-01
     10.629  0.3568E-02  0.9469E-01
     10.747  0.3210E-02  0.9509E-01
     10.865  0.2697E-02  0.9544E-01
     10.984  0.2470E-02  0.9574E-01
     11.102  0.2193E-02  0.9602E-01
     11.220  0.2058E-02  0.9627E-01
     11.338  0.1965E-02  0.9651E-01
     11.457  0.1893E-02  0.9674E-01
     11.575  0.1922E-02  0.9696E-01
     11.693  0.2057E-02  0.9720E-01
     11.812  0.2227E-02  0.9745E-01
     11.930  0.2607E-02  0.9773E-01
     12.048  0.3986E-02  0.9811E-01
     12.167  0.5417E-02  0.9867E-01
     12.285  0.6792E-02  0.9941E-01
     12.403  0.8352E-02  0.1003E+00
     12.522  0.9127E-02  0.1013E+00
     12.640  0.9821E-02  0.1025E+00
     12.758  0.9784E-02  0.1036E+00
     12.877  0.1053E-01  0.1048E+00
     12.995  0.1029E-01  0.1060E+00
     13.113  0.1363E-01  0.1075E+00
     13.232  0.1122E-01  0.1090E+00
     13.350  0.7672E-02  0.1101E+00
     13.468  0.6082E-02  0.1109E+00
     13.587  0.5199E-02  0.1116E+00
     13.705  0.4900E-02  0.1122E+00
     13.823  0.4886E-02  0.1128E+00
     13.942  0.4714E-02  0.1133E+00
     14.060  0.4255E-02  0.1139E+00
     14.178  0.3829E-02  0.1144E+00
     14.297  0.3435E-02  0.1148E+00
     14.415  0.3103E-02  0.1152E+00
     14.533  0.3109E-02  0.1155E+00
     14.651  0.3922E-02  0.1159E+00
     14.770  0.4141E-02  0.1165E+00
     14.888  0.3662E-02  0.1169E+00
     15.006  0.3830E-02  0.1174E+00
     15.125  0.4427E-02  0.1178E+00
     15.243  0.3647E-02  0.1184E+00
     15.361  0.2645E-02  0.1187E+00
     15.480  0.2116E-02  0.1190E+00
     15.598  0.1763E-02  0.1192E+00
     15.716  0.1595E-02  0.1194E+00
     15.835  0.1410E-02  0.1196E+00
     15.953  0.1012E-02  0.1198E+00
     16.071  0.6428E-03  0.1199E+00
     16.190  0.4771E-03  0.1199E+00
     16.308  0.2885E-03  0.1200E+00
     16.426  0.9717E-04  0.1200E+00
     16.545  0.5761E-06  0.1200E+00
     16.663  0.0000E+00  0.1200E+00
     16.781  0.0000E+00  0.1200E+00
     16.900  0.0000E+00  0.1200E+00
     17.018  0.0000E+00  0.1200E+00
     17.136  0.0000E+00  0.1200E+00
     17.255  0.0000E+00  0.1200E+00
     17.373  0.0000E+00  0.1200E+00
     17.491  0.0000E+00  0.1200E+00
     17.610  0.0000E+00  0.1200E+00
     17.728  0.0000E+00  0.1200E+00
     17.846  0.0000E+00  0.1200E+00
     17.965  0.0000E+00  0.1200E+00
     18.083  0.0000E+00  0.1200E+00
     18.201  0.0000E+00  0.1200E+00
     18.319  0.0000E+00  0.1200E+00
     18.438  0.0000E+00  0.1200E+00
     18.556  0.0000E+00  0.1200E+00
