   4   4   0   0
  0.8817899E+01  0.2466437E-09  0.2466437E-09  0.6698068E-09  0.5000000E-15
  1.000000000000000E-004
  CAR 
 graphite                                
     18.55086084    -16.94130588  301      4.68517997      1.00000000
    -16.941  0.0000E+00  0.0000E+00
    -16.823  0.0000E+00  0.0000E+00
    -16.705  0.0000E+00  0.0000E+00
    -16.586  0.0000E+00  0.0000E+00
    -16.468  0.0000E+00  0.0000E+00
    -16.350  0.0000E+00  0.0000E+00
    -16.231  0.0000E+00  0.0000E+00
    -16.113  0.0000E+00  0.0000E+00
    -15.995  0.0000E+00  0.0000E+00
    -15.877  0.0000E+00  0.0000E+00
    -15.758  0.0000E+00  0.0000E+00
    -15.640  0.0000E+00  0.0000E+00
    -15.522  0.0000E+00  0.0000E+00
    -15.403  0.0000E+00  0.0000E+00
    -15.285  0.0000E+00  0.0000E+00
    -15.167  0.0000E+00  0.0000E+00
    -15.048  0.0000E+00  0.0000E+00
    -14.930  0.2202E-04  0.8243E-07
    -14.812  0.1161E-02  0.5850E-04
    -14.693  0.1881E-02  0.2492E-03
    -14.575  0.2953E-02  0.5315E-03
    -14.457  0.2986E-02  0.9013E-03
    -14.339  0.3132E-02  0.1266E-02
    -14.220  0.3115E-02  0.1636E-02
    -14.102  0.3037E-02  0.2001E-02
    -13.984  0.3023E-02  0.2358E-02
    -13.865  0.3133E-02  0.2722E-02
    -13.747  0.3173E-02  0.3097E-02
    -13.629  0.3159E-02  0.3472E-02
    -13.510  0.3081E-02  0.3843E-02
    -13.392  0.3059E-02  0.4205E-02
    -13.274  0.3077E-02  0.4567E-02
    -13.155  0.3121E-02  0.4934E-02
    -13.037  0.3179E-02  0.5306E-02
    -12.919  0.3219E-02  0.5685E-02
    -12.801  0.3193E-02  0.6065E-02
    -12.682  0.3151E-02  0.6441E-02
    -12.564  0.3118E-02  0.6811E-02
    -12.446  0.3133E-02  0.7181E-02
    -12.327  0.3149E-02  0.7552E-02
    -12.209  0.3172E-02  0.7926E-02
    -12.091  0.3202E-02  0.8303E-02
    -11.972  0.3240E-02  0.8684E-02
    -11.854  0.3275E-02  0.9070E-02
    -11.736  0.3264E-02  0.9457E-02
    -11.617  0.3241E-02  0.9842E-02
    -11.499  0.3226E-02  0.1022E-01
    -11.381  0.3234E-02  0.1061E-01
    -11.263  0.3256E-02  0.1099E-01
    -11.144  0.3285E-02  0.1138E-01
    -11.026  0.3314E-02  0.1177E-01
    -10.908  0.3344E-02  0.1216E-01
    -10.789  0.3387E-02  0.1256E-01
    -10.671  0.3446E-02  0.1296E-01
    -10.553  0.3510E-02  0.1337E-01
    -10.434  0.3565E-02  0.1379E-01
    -10.316  0.3654E-02  0.1422E-01
    -10.198  0.3794E-02  0.1466E-01
    -10.079  0.3953E-02  0.1512E-01
     -9.961  0.5175E-02  0.1565E-01
     -9.843  0.6144E-02  0.1631E-01
     -9.725  0.4938E-02  0.1697E-01
     -9.606  0.3601E-02  0.1748E-01
     -9.488  0.2777E-02  0.1785E-01
     -9.370  0.2496E-02  0.1816E-01
     -9.251  0.2215E-02  0.1844E-01
     -9.133  0.3635E-02  0.1882E-01
     -9.015  0.3084E-02  0.1923E-01
     -8.896  0.1188E-02  0.1941E-01
     -8.778  0.1047E-02  0.1954E-01
     -8.660  0.9069E-03  0.1965E-01
     -8.541  0.7663E-03  0.1975E-01
     -8.423  0.9141E-03  0.1985E-01
     -8.305  0.1201E-02  0.1997E-01
     -8.187  0.1487E-02  0.2013E-01
     -8.068  0.2556E-02  0.2035E-01
     -7.950  0.5154E-02  0.2080E-01
     -7.832  0.4501E-02  0.2139E-01
     -7.713  0.3674E-02  0.2186E-01
     -7.595  0.4413E-02  0.2234E-01
     -7.477  0.5152E-02  0.2290E-01
     -7.358  0.5892E-02  0.2355E-01
     -7.240  0.5299E-02  0.2426E-01
     -7.122  0.3580E-02  0.2478E-01
     -7.003  0.3472E-02  0.2519E-01
     -6.885  0.3381E-02  0.2560E-01
     -6.767  0.3295E-02  0.2599E-01
     -6.649  0.3211E-02  0.2638E-01
     -6.530  0.3118E-02  0.2675E-01
     -6.412  0.3024E-02  0.2712E-01
     -6.294  0.2929E-02  0.2747E-01
     -6.175  0.2834E-02  0.2781E-01
     -6.057  0.2740E-02  0.2814E-01
     -5.939  0.2645E-02  0.2846E-01
     -5.820  0.2551E-02  0.2877E-01
     -5.702  0.2762E-02  0.2908E-01
     -5.584  0.2992E-02  0.2942E-01
     -5.466  0.3223E-02  0.2979E-01
     -5.347  0.3453E-02  0.3018E-01
     -5.229  0.3683E-02  0.3060E-01
     -5.111  0.3914E-02  0.3105E-01
     -4.992  0.4144E-02  0.3153E-01
     -4.874  0.4159E-02  0.3202E-01
     -4.756  0.3971E-02  0.3251E-01
     -4.637  0.3824E-02  0.3296E-01
     -4.519  0.3823E-02  0.3341E-01
     -4.401  0.3821E-02  0.3387E-01
     -4.282  0.3820E-02  0.3432E-01
     -4.164  0.3855E-02  0.3477E-01
     -4.046  0.3935E-02  0.3523E-01
     -3.928  0.4014E-02  0.3570E-01
     -3.809  0.4097E-02  0.3618E-01
     -3.691  0.4450E-02  0.3668E-01
     -3.573  0.4815E-02  0.3724E-01
     -3.454  0.5062E-02  0.3782E-01
     -3.336  0.5416E-02  0.3844E-01
     -3.218  0.5689E-02  0.3910E-01
     -3.099  0.5864E-02  0.3978E-01
     -2.981  0.6032E-02  0.4049E-01
     -2.863  0.6395E-02  0.4122E-01
     -2.744  0.7073E-02  0.4201E-01
     -2.626  0.7296E-02  0.4287E-01
     -2.508  0.7166E-02  0.4372E-01
     -2.390  0.6775E-02  0.4455E-01
     -2.271  0.6468E-02  0.4533E-01
     -2.153  0.7122E-02  0.4611E-01
     -2.035  0.8192E-02  0.4703E-01
     -1.916  0.9078E-02  0.4805E-01
     -1.798  0.1042E-01  0.4920E-01
     -1.680  0.2095E-01  0.5062E-01
     -1.561  0.1112E-01  0.5216E-01
     -1.443  0.9521E-02  0.5336E-01
     -1.325  0.8559E-02  0.5443E-01
     -1.206  0.7401E-02  0.5538E-01
     -1.088  0.5569E-02  0.5617E-01
     -0.970  0.4675E-02  0.5676E-01
     -0.852  0.4719E-02  0.5731E-01
     -0.733  0.5228E-02  0.5789E-01
     -0.615  0.5885E-02  0.5855E-01
     -0.497  0.6866E-02  0.5935E-01
     -0.378  0.6904E-02  0.6014E-01
     -0.260  0.8985E-02  0.6110E-01
     -0.142  0.7798E-02  0.6209E-01
     -0.023  0.7108E-02  0.6296E-01
      0.095  0.6654E-02  0.6378E-01
      0.213  0.6337E-02  0.6454E-01
      0.332  0.6064E-02  0.6528E-01
      0.450  0.5821E-02  0.6598E-01
      0.568  0.5701E-02  0.6666E-01
      0.686  0.6007E-02  0.6735E-01
      0.805  0.5884E-02  0.6806E-01
      0.923  0.5760E-02  0.6874E-01
      1.041  0.5826E-02  0.6942E-01
      1.160  0.5834E-02  0.7012E-01
      1.278  0.5524E-02  0.7080E-01
      1.396  0.6198E-02  0.7147E-01
      1.515  0.5258E-02  0.7215E-01
      1.633  0.4360E-02  0.7272E-01
      1.751  0.4457E-02  0.7321E-01
      1.870  0.4617E-02  0.7375E-01
      1.988  0.4377E-02  0.7428E-01
      2.106  0.4318E-02  0.7479E-01
      2.224  0.4321E-02  0.7530E-01
      2.343  0.4309E-02  0.7581E-01
      2.461  0.4330E-02  0.7632E-01
      2.579  0.4452E-02  0.7683E-01
      2.698  0.3851E-02  0.7734E-01
      2.816  0.3444E-02  0.7776E-01
      2.934  0.2789E-02  0.7812E-01
      3.053  0.2341E-02  0.7842E-01
      3.171  0.1968E-02  0.7868E-01
      3.289  0.1779E-02  0.7890E-01
      3.408  0.1601E-02  0.7910E-01
      3.526  0.1420E-02  0.7928E-01
      3.644  0.1239E-02  0.7943E-01
      3.762  0.1055E-02  0.7957E-01
      3.881  0.8723E-03  0.7968E-01
      3.999  0.7126E-03  0.7978E-01
      4.117  0.5587E-03  0.7985E-01
      4.236  0.4240E-03  0.7991E-01
      4.354  0.3003E-03  0.7995E-01
      4.472  0.1851E-03  0.7998E-01
      4.591  0.7683E-04  0.8000E-01
      4.709  0.1273E-04  0.8000E-01
      4.827  0.9176E-04  0.8001E-01
      4.946  0.1786E-03  0.8002E-01
      5.064  0.2743E-03  0.8005E-01
      5.182  0.3803E-03  0.8009E-01
      5.300  0.5002E-03  0.8014E-01
      5.419  0.6442E-03  0.8021E-01
      5.537  0.8118E-03  0.8029E-01
      5.655  0.9798E-03  0.8040E-01
      5.774  0.1240E-02  0.8052E-01
      5.892  0.1917E-02  0.8072E-01
      6.010  0.2273E-02  0.8097E-01
      6.129  0.2452E-02  0.8124E-01
      6.247  0.3871E-02  0.8160E-01
      6.365  0.6171E-02  0.8221E-01
      6.484  0.4547E-02  0.8281E-01
      6.602  0.4464E-02  0.8334E-01
      6.720  0.4391E-02  0.8386E-01
      6.838  0.4318E-02  0.8438E-01
      6.957  0.4352E-02  0.8489E-01
      7.075  0.4149E-02  0.8540E-01
      7.193  0.3412E-02  0.8584E-01
      7.312  0.3204E-02  0.8623E-01
      7.430  0.3032E-02  0.8660E-01
      7.548  0.2883E-02  0.8695E-01
      7.667  0.2756E-02  0.8728E-01
      7.785  0.2652E-02  0.8760E-01
      7.903  0.2581E-02  0.8791E-01
      8.022  0.2517E-02  0.8821E-01
      8.140  0.2463E-02  0.8851E-01
      8.258  0.2412E-02  0.8880E-01
      8.376  0.2362E-02  0.8908E-01
      8.495  0.2313E-02  0.8936E-01
      8.613  0.2264E-02  0.8963E-01
      8.731  0.2215E-02  0.8989E-01
      8.850  0.2150E-02  0.9015E-01
      8.968  0.2089E-02  0.9040E-01
      9.086  0.2076E-02  0.9065E-01
      9.205  0.2245E-02  0.9090E-01
      9.323  0.2321E-02  0.9117E-01
      9.441  0.2319E-02  0.9145E-01
      9.560  0.2392E-02  0.9172E-01
      9.678  0.2466E-02  0.9201E-01
      9.796  0.2512E-02  0.9231E-01
      9.914  0.2529E-02  0.9261E-01
     10.033  0.2562E-02  0.9291E-01
     10.151  0.2609E-02  0.9321E-01
     10.269  0.2658E-02  0.9352E-01
     10.388  0.3081E-02  0.9386E-01
     10.506  0.3575E-02  0.9425E-01
     10.624  0.3573E-02  0.9468E-01
     10.743  0.3220E-02  0.9509E-01
     10.861  0.2702E-02  0.9543E-01
     10.979  0.2474E-02  0.9574E-01
     11.098  0.2201E-02  0.9602E-01
     11.216  0.2060E-02  0.9627E-01
     11.334  0.1967E-02  0.9651E-01
     11.452  0.1894E-02  0.9673E-01
     11.571  0.1919E-02  0.9696E-01
     11.689  0.2053E-02  0.9719E-01
     11.807  0.2221E-02  0.9744E-01
     11.926  0.2586E-02  0.9772E-01
     12.044  0.3951E-02  0.9810E-01
     12.162  0.5384E-02  0.9866E-01
     12.281  0.6766E-02  0.9939E-01
     12.399  0.8331E-02  0.1003E+00
     12.517  0.9114E-02  0.1013E+00
     12.635  0.9812E-02  0.1024E+00
     12.754  0.9786E-02  0.1036E+00
     12.872  0.1048E-01  0.1048E+00
     12.990  0.1037E-01  0.1060E+00
     13.109  0.1348E-01  0.1075E+00
     13.227  0.1128E-01  0.1090E+00
     13.345  0.7726E-02  0.1101E+00
     13.464  0.6077E-02  0.1109E+00
     13.582  0.5238E-02  0.1116E+00
     13.700  0.4927E-02  0.1122E+00
     13.819  0.4927E-02  0.1128E+00
     13.937  0.4759E-02  0.1133E+00
     14.055  0.4270E-02  0.1139E+00
     14.173  0.3818E-02  0.1144E+00
     14.292  0.3402E-02  0.1148E+00
     14.410  0.3054E-02  0.1152E+00
     14.528  0.3096E-02  0.1155E+00
     14.647  0.3886E-02  0.1159E+00
     14.765  0.4192E-02  0.1165E+00
     14.883  0.3664E-02  0.1169E+00
     15.002  0.3815E-02  0.1173E+00
     15.120  0.4403E-02  0.1178E+00
     15.238  0.3679E-02  0.1184E+00
     15.357  0.2671E-02  0.1187E+00
     15.475  0.2129E-02  0.1190E+00
     15.593  0.1775E-02  0.1192E+00
     15.711  0.1599E-02  0.1194E+00
     15.830  0.1428E-02  0.1196E+00
     15.948  0.1063E-02  0.1198E+00
     16.066  0.6801E-03  0.1199E+00
     16.185  0.4795E-03  0.1199E+00
     16.303  0.2368E-03  0.1200E+00
     16.421  0.6214E-04  0.1200E+00
     16.540  0.3178E-06  0.1200E+00
     16.658  0.0000E+00  0.1200E+00
     16.776  0.0000E+00  0.1200E+00
     16.895  0.0000E+00  0.1200E+00
     17.013  0.0000E+00  0.1200E+00
     17.131  0.0000E+00  0.1200E+00
     17.249  0.0000E+00  0.1200E+00
     17.368  0.0000E+00  0.1200E+00
     17.486  0.0000E+00  0.1200E+00
     17.604  0.0000E+00  0.1200E+00
     17.723  0.0000E+00  0.1200E+00
     17.841  0.0000E+00  0.1200E+00
     17.959  0.0000E+00  0.1200E+00
     18.078  0.0000E+00  0.1200E+00
     18.196  0.0000E+00  0.1200E+00
     18.314  0.0000E+00  0.1200E+00
     18.433  0.0000E+00  0.1200E+00
     18.551  0.0000E+00  0.1200E+00
