mesh: [     9,     9,     4 ]
nqpoint: 50     
reciprocal_lattice:
- [   0.40553429,   0.23434576,   0.00000000 ] # a*
- [   0.00018224,   0.46837588,   0.00000000 ] # b*
- [   0.00000000,   0.00000000,   0.14929678 ] # c*
natom:   4      
lattice:
- [     2.466437248995937,    -0.000959642981403,     0.000000000000000 ] # a
- [    -1.234049699648306,     2.135517492938035,     0.000000000000000 ] # b
- [     0.000000000000000,     0.000000000000000,     6.698068235427160 ] # c
points:
- symbol: C  # 1
  coordinates: [  0.999346608899160,  0.000653437440448,  0.250000000000000 ]
  mass: 12.010700
- symbol: C  # 2
  coordinates: [  0.000653437440448,  0.999346608899160,  0.750000000000000 ]
  mass: 12.010700
- symbol: C  # 3
  coordinates: [  0.332584924946424,  0.667415057713967,  0.250000000000000 ]
  mass: 12.010700
- symbol: C  # 4
  coordinates: [  0.667415057713967,  0.332584924946424,  0.750000000000000 ]
  mass: 12.010700
phonon:
- q-position: [    0.0000000,    0.0000000,    0.1250000 ]
  weight: 2    
  band:
  - # 1
    frequency:    -2.4379723844
  - # 2
    frequency:    -0.8073842114
  - # 3
    frequency:    -0.7514338464
  - # 4
    frequency:     0.7546946087
  - # 5
    frequency:     0.8961479100
  - # 6
    frequency:     2.3186915081
  - # 7
    frequency:    22.8440558177
  - # 8
    frequency:    26.2195125383
  - # 9
    frequency:    42.8935640078
  - # 10
    frequency:    43.1105341843
  - # 11
    frequency:    43.1472704026
  - # 12
    frequency:    43.2644995483

- q-position: [    0.1111111,    0.0000000,    0.1250000 ]
  weight: 8    
  band:
  - # 1
    frequency:     3.6304279585
  - # 2
    frequency:     5.2032753970
  - # 3
    frequency:     5.9673762422
  - # 4
    frequency:     6.1051130199
  - # 5
    frequency:    11.3292231439
  - # 6
    frequency:    11.4954523426
  - # 7
    frequency:    22.5159310758
  - # 8
    frequency:    25.6248104186
  - # 9
    frequency:    42.9495749589
  - # 10
    frequency:    43.0739107555
  - # 11
    frequency:    43.3383817291
  - # 12
    frequency:    43.5855557927

- q-position: [    0.2222222,    0.0000000,    0.1250000 ]
  weight: 8    
  band:
  - # 1
    frequency:     7.4183772144
  - # 2
    frequency:     8.8780747996
  - # 3
    frequency:    11.5684075305
  - # 4
    frequency:    11.6753691978
  - # 5
    frequency:    21.6008933850
  - # 6
    frequency:    22.0664232863
  - # 7
    frequency:    22.1658978480
  - # 8
    frequency:    23.9689500087
  - # 9
    frequency:    42.6890247741
  - # 10
    frequency:    42.7749695791
  - # 11
    frequency:    43.9919604425
  - # 12
    frequency:    44.1867370851

- q-position: [    0.3333333,    0.0000000,    0.1250000 ]
  weight: 8    
  band:
  - # 1
    frequency:    10.8610157673
  - # 2
    frequency:    12.0201521603
  - # 3
    frequency:    15.9789099990
  - # 4
    frequency:    16.0468930303
  - # 5
    frequency:    20.2967896851
  - # 6
    frequency:    21.6267428808
  - # 7
    frequency:    31.0959625103
  - # 8
    frequency:    31.1748532945
  - # 9
    frequency:    42.2680560499
  - # 10
    frequency:    42.3177244993
  - # 11
    frequency:    43.9261531721
  - # 12
    frequency:    44.0513735409

- q-position: [    0.4444444,    0.0000000,    0.1250000 ]
  weight: 8    
  band:
  - # 1
    frequency:    13.5764518749
  - # 2
    frequency:    14.1208559613
  - # 3
    frequency:    18.4924056544
  - # 4
    frequency:    18.5154282388
  - # 5
    frequency:    19.0288083448
  - # 6
    frequency:    19.3615403169
  - # 7
    frequency:    37.8587321431
  - # 8
    frequency:    37.9238035959
  - # 9
    frequency:    41.9131373784
  - # 10
    frequency:    41.9302959869
  - # 11
    frequency:    42.1079493710
  - # 12
    frequency:    42.1889090766

- q-position: [    0.1111111,    0.1111111,    0.1250000 ]
  weight: 4    
  band:
  - # 1
    frequency:     7.1830672359
  - # 2
    frequency:     7.6380115253
  - # 3
    frequency:    10.6385662299
  - # 4
    frequency:    10.6530572559
  - # 5
    frequency:    18.9088907157
  - # 6
    frequency:    19.0430967609
  - # 7
    frequency:    21.8702084357
  - # 8
    frequency:    24.3991463113
  - # 9
    frequency:    42.9565781493
  - # 10
    frequency:    42.9996291803
  - # 11
    frequency:    43.7582186598
  - # 12
    frequency:    44.0158948567

- q-position: [    0.2222222,    0.1111111,    0.1250000 ]
  weight: 8    
  band:
  - # 1
    frequency:    10.3277827902
  - # 2
    frequency:    10.8929948201
  - # 3
    frequency:    15.8757048877
  - # 4
    frequency:    15.9054189864
  - # 5
    frequency:    20.7219799715
  - # 6
    frequency:    22.3145237945
  - # 7
    frequency:    27.2513560912
  - # 8
    frequency:    27.3356735587
  - # 9
    frequency:    42.7834707277
  - # 10
    frequency:    42.8409358943
  - # 11
    frequency:    43.9514755275
  - # 12
    frequency:    44.1008209530

- q-position: [    0.3333333,    0.1111111,    0.1250000 ]
  weight: 8    
  band:
  - # 1
    frequency:    13.1465646883
  - # 2
    frequency:    13.5184409638
  - # 3
    frequency:    19.3405743676
  - # 4
    frequency:    19.7024733605
  - # 5
    frequency:    19.7196836492
  - # 6
    frequency:    19.8991422074
  - # 7
    frequency:    34.3712782007
  - # 8
    frequency:    34.4302961259
  - # 9
    frequency:    42.2790043440
  - # 10
    frequency:    42.3334201566
  - # 11
    frequency:    43.1557387375
  - # 12
    frequency:    43.2309524425

- q-position: [   -0.5555556,    0.1111111,    0.1250000 ]
  weight: 8    
  band:
  - # 1
    frequency:    14.2788983394
  - # 2
    frequency:    14.8349296600
  - # 3
    frequency:    18.5548571062
  - # 4
    frequency:    18.6233904877
  - # 5
    frequency:    21.2029092507
  - # 6
    frequency:    21.2216276067
  - # 7
    frequency:    39.4349582662
  - # 8
    frequency:    39.4627014329
  - # 9
    frequency:    39.7528616373
  - # 10
    frequency:    39.8160430384
  - # 11
    frequency:    42.6418648366
  - # 12
    frequency:    42.6656621454

- q-position: [   -0.4444444,    0.1111111,    0.1250000 ]
  weight: 8    
  band:
  - # 1
    frequency:    12.2397273814
  - # 2
    frequency:    13.5597358519
  - # 3
    frequency:    19.4771252642
  - # 4
    frequency:    19.9564313099
  - # 5
    frequency:    20.0253765213
  - # 6
    frequency:    20.3209276202
  - # 7
    frequency:    34.5434330150
  - # 8
    frequency:    34.6128722741
  - # 9
    frequency:    42.1453221673
  - # 10
    frequency:    42.1631248302
  - # 11
    frequency:    43.0101598403
  - # 12
    frequency:    43.1155570151

- q-position: [   -0.3333333,    0.1111111,    0.1250000 ]
  weight: 8    
  band:
  - # 1
    frequency:     9.0973459251
  - # 2
    frequency:    10.9836718244
  - # 3
    frequency:    16.2606232158
  - # 4
    frequency:    16.3816214655
  - # 5
    frequency:    20.8211171613
  - # 6
    frequency:    22.7220308957
  - # 7
    frequency:    27.4531535973
  - # 8
    frequency:    27.5269176355
  - # 9
    frequency:    42.6075647606
  - # 10
    frequency:    42.6868316052
  - # 11
    frequency:    43.8267881153
  - # 12
    frequency:    43.9598273113

- q-position: [   -0.2222222,    0.1111111,    0.1250000 ]
  weight: 8    
  band:
  - # 1
    frequency:     5.5136576158
  - # 2
    frequency:     8.0025894214
  - # 3
    frequency:    10.9027288517
  - # 4
    frequency:    11.0923700178
  - # 5
    frequency:    19.2155789680
  - # 6
    frequency:    19.2718410422
  - # 7
    frequency:    21.9215261238
  - # 8
    frequency:    24.6790248271
  - # 9
    frequency:    42.7398692067
  - # 10
    frequency:    42.9551617910
  - # 11
    frequency:    43.7499165615
  - # 12
    frequency:    43.8498158823

- q-position: [   -0.1111111,    0.1111111,    0.1250000 ]
  weight: 4    
  band:
  - # 1
    frequency:     2.2025147225
  - # 2
    frequency:     5.4604174002
  - # 3
    frequency:     5.7354963899
  - # 4
    frequency:     6.1768933698
  - # 5
    frequency:    11.6823352220
  - # 6
    frequency:    11.7769739773
  - # 7
    frequency:    22.5311712802
  - # 8
    frequency:    25.7240094193
  - # 9
    frequency:    42.7992443770
  - # 10
    frequency:    43.1469444085
  - # 11
    frequency:    43.4042758280
  - # 12
    frequency:    43.4389028289

- q-position: [    0.2222222,    0.2222222,    0.1250000 ]
  weight: 4    
  band:
  - # 1
    frequency:    13.0316817240
  - # 2
    frequency:    13.2600814632
  - # 3
    frequency:    19.4483789459
  - # 4
    frequency:    20.0914545740
  - # 5
    frequency:    21.6437720749
  - # 6
    frequency:    21.6552738197
  - # 7
    frequency:    31.9886003471
  - # 8
    frequency:    32.0442951645
  - # 9
    frequency:    42.7735504756
  - # 10
    frequency:    42.8478486267
  - # 11
    frequency:    43.1918989408
  - # 12
    frequency:    43.2368894519

- q-position: [    0.3333333,    0.2222222,    0.1250000 ]
  weight: 8    
  band:
  - # 1
    frequency:    15.0223867586
  - # 2
    frequency:    15.3016403106
  - # 3
    frequency:    17.9652306821
  - # 4
    frequency:    18.1343171934
  - # 5
    frequency:    25.5613328984
  - # 6
    frequency:    25.5679163690
  - # 7
    frequency:    36.1414324097
  - # 8
    frequency:    36.1706033866
  - # 9
    frequency:    40.1616065662
  - # 10
    frequency:    40.1800764510
  - # 11
    frequency:    43.5339914601
  - # 12
    frequency:    43.5668035671

- q-position: [   -0.5555556,    0.2222222,    0.1250000 ]
  weight: 8    
  band:
  - # 1
    frequency:    14.1766083303
  - # 2
    frequency:    15.2119646981
  - # 3
    frequency:    18.3191223711
  - # 4
    frequency:    18.5420352830
  - # 5
    frequency:    25.7605861860
  - # 6
    frequency:    25.8085676625
  - # 7
    frequency:    36.3137882367
  - # 8
    frequency:    36.3508821697
  - # 9
    frequency:    39.9234136000
  - # 10
    frequency:    39.9527400341
  - # 11
    frequency:    43.4650511584
  - # 12
    frequency:    43.4938191079

- q-position: [   -0.4444444,    0.2222222,    0.1250000 ]
  weight: 8    
  band:
  - # 1
    frequency:    11.6780930446
  - # 2
    frequency:    13.2069710020
  - # 3
    frequency:    19.6195344531
  - # 4
    frequency:    20.8026257876
  - # 5
    frequency:    22.0603356451
  - # 6
    frequency:    22.1484813997
  - # 7
    frequency:    32.2210906584
  - # 8
    frequency:    32.2756273218
  - # 9
    frequency:    42.5318811341
  - # 10
    frequency:    42.5721343806
  - # 11
    frequency:    43.0026707671
  - # 12
    frequency:    43.0872348309

- q-position: [   -0.3333333,    0.2222222,    0.1250000 ]
  weight: 8    
  band:
  - # 1
    frequency:     8.8562120696
  - # 2
    frequency:    10.8848058475
  - # 3
    frequency:    16.2035762966
  - # 4
    frequency:    16.3304387987
  - # 5
    frequency:    20.8069270654
  - # 6
    frequency:    22.8880009122
  - # 7
    frequency:    27.6144673414
  - # 8
    frequency:    27.6764191810
  - # 9
    frequency:    42.5621150254
  - # 10
    frequency:    42.7610882000
  - # 11
    frequency:    43.7726302302
  - # 12
    frequency:    43.8077122677

- q-position: [   -0.2222222,    0.2222222,    0.1250000 ]
  weight: 4    
  band:
  - # 1
    frequency:     6.2866624803
  - # 2
    frequency:     8.8515594237
  - # 3
    frequency:    11.5964823038
  - # 4
    frequency:    11.8005705471
  - # 5
    frequency:    21.6308898392
  - # 6
    frequency:    22.4347406814
  - # 7
    frequency:    22.5155643431
  - # 8
    frequency:    24.2873973970
  - # 9
    frequency:    42.5271954981
  - # 10
    frequency:    42.8089743923
  - # 11
    frequency:    43.9156006729
  - # 12
    frequency:    43.9505256133

- q-position: [   -0.6666667,    0.3333333,    0.1250000 ]
  weight: 4    
  band:
  - # 1
    frequency:    16.0629775921
  - # 2
    frequency:    16.3811318622
  - # 3
    frequency:    16.8953598579
  - # 4
    frequency:    17.1568161048
  - # 5
    frequency:    29.2065084066
  - # 6
    frequency:    29.2377439562
  - # 7
    frequency:    37.2762500165
  - # 8
    frequency:    37.2766191232
  - # 9
    frequency:    37.3330989750
  - # 10
    frequency:    37.3357956557
  - # 11
    frequency:    43.9148225561
  - # 12
    frequency:    43.9332361084

- q-position: [   -0.5555556,    0.3333333,    0.1250000 ]
  weight: 8    
  band:
  - # 1
    frequency:    14.2856640590
  - # 2
    frequency:    15.0758737727
  - # 3
    frequency:    18.2781057747
  - # 4
    frequency:    18.6247457653
  - # 5
    frequency:    25.8231582192
  - # 6
    frequency:    25.8694087122
  - # 7
    frequency:    36.2430305786
  - # 8
    frequency:    36.2757098900
  - # 9
    frequency:    39.9450700018
  - # 10
    frequency:    39.9694274511
  - # 11
    frequency:    43.4625924371
  - # 12
    frequency:    43.4832991895

- q-position: [   -0.4444444,    0.3333333,    0.1250000 ]
  weight: 8    
  band:
  - # 1
    frequency:    12.2863877953
  - # 2
    frequency:    13.3954851427
  - # 3
    frequency:    19.3818772543
  - # 4
    frequency:    19.9209261346
  - # 5
    frequency:    19.9825592026
  - # 6
    frequency:    20.5174867178
  - # 7
    frequency:    34.6182541317
  - # 8
    frequency:    34.6801473583
  - # 9
    frequency:    42.1271572929
  - # 10
    frequency:    42.2217503172
  - # 11
    frequency:    42.9587244166
  - # 12
    frequency:    42.9994347764

- q-position: [   -0.3333333,    0.3333333,    0.1250000 ]
  weight: 4    
  band:
  - # 1
    frequency:    10.2333057225
  - # 2
    frequency:    11.8279302777
  - # 3
    frequency:    16.0267872513
  - # 4
    frequency:    16.1309831499
  - # 5
    frequency:    20.2791922117
  - # 6
    frequency:    22.0791965558
  - # 7
    frequency:    31.3752563145
  - # 8
    frequency:    31.4513400368
  - # 9
    frequency:    42.1510571428
  - # 10
    frequency:    42.3340751468
  - # 11
    frequency:    43.7633216451
  - # 12
    frequency:    43.8086928168

- q-position: [   -0.5555556,    0.4444444,    0.1250000 ]
  weight: 4    
  band:
  - # 1
    frequency:    14.3156149200
  - # 2
    frequency:    14.6841079133
  - # 3
    frequency:    18.6087592321
  - # 4
    frequency:    18.6985345883
  - # 5
    frequency:    21.2709054862
  - # 6
    frequency:    21.2855722541
  - # 7
    frequency:    39.4412811522
  - # 8
    frequency:    39.4669709966
  - # 9
    frequency:    39.7041014066
  - # 10
    frequency:    39.7674954091
  - # 11
    frequency:    42.6250886552
  - # 12
    frequency:    42.6297355833

- q-position: [   -0.4444444,    0.4444444,    0.1250000 ]
  weight: 4    
  band:
  - # 1
    frequency:    13.4980327705
  - # 2
    frequency:    14.0287530154
  - # 3
    frequency:    18.4954574748
  - # 4
    frequency:    18.5273243384
  - # 5
    frequency:    18.9399405869
  - # 6
    frequency:    19.6101388375
  - # 7
    frequency:    37.9494386121
  - # 8
    frequency:    38.0162682658
  - # 9
    frequency:    41.8737384067
  - # 10
    frequency:    41.9385630034
  - # 11
    frequency:    42.0081635098
  - # 12
    frequency:    42.0698070826

- q-position: [    0.0000000,    0.0000000,    0.3750000 ]
  weight: 2    
  band:
  - # 1
    frequency:    -2.5587798268
  - # 2
    frequency:    -2.0808372264
  - # 3
    frequency:    -1.7954537626
  - # 4
    frequency:    -1.6239806860
  - # 5
    frequency:     2.1183403105
  - # 6
    frequency:     3.0343277592
  - # 7
    frequency:    25.0869618976
  - # 8
    frequency:    26.4704261660
  - # 9
    frequency:    41.3801069199
  - # 10
    frequency:    41.5400608455
  - # 11
    frequency:    41.7661946879
  - # 12
    frequency:    41.7816637936

- q-position: [    0.1111111,    0.0000000,    0.3750000 ]
  weight: 8    
  band:
  - # 1
    frequency:     4.4141074364
  - # 2
    frequency:     5.1395970921
  - # 3
    frequency:     5.8586146527
  - # 4
    frequency:     5.9158213857
  - # 5
    frequency:    11.2747623538
  - # 6
    frequency:    11.3452372054
  - # 7
    frequency:    24.5688323938
  - # 8
    frequency:    25.8432881420
  - # 9
    frequency:    41.6779993233
  - # 10
    frequency:    41.7621740226
  - # 11
    frequency:    42.0985938330
  - # 12
    frequency:    42.1731128633

- q-position: [    0.2222222,    0.0000000,    0.3750000 ]
  weight: 8    
  band:
  - # 1
    frequency:     7.8871833583
  - # 2
    frequency:     8.5028715862
  - # 3
    frequency:    11.6098140138
  - # 4
    frequency:    11.6536939670
  - # 5
    frequency:    22.0781569827
  - # 6
    frequency:    22.1197724588
  - # 7
    frequency:    23.1344074535
  - # 8
    frequency:    24.1055739863
  - # 9
    frequency:    41.8508766418
  - # 10
    frequency:    41.8906310188
  - # 11
    frequency:    43.1604622496
  - # 12
    frequency:    43.2392220042

- q-position: [    0.3333333,    0.0000000,    0.3750000 ]
  weight: 8    
  band:
  - # 1
    frequency:    11.1400151135
  - # 2
    frequency:    11.6156511937
  - # 3
    frequency:    16.0323195241
  - # 4
    frequency:    16.0602687085
  - # 5
    frequency:    21.1246295817
  - # 6
    frequency:    21.6719935235
  - # 7
    frequency:    31.1654174203
  - # 8
    frequency:    31.1978818021
  - # 9
    frequency:    41.9027104186
  - # 10
    frequency:    41.9238565233
  - # 11
    frequency:    43.5456480771
  - # 12
    frequency:    43.5976032120

- q-position: [    0.4444444,    0.0000000,    0.3750000 ]
  weight: 8    
  band:
  - # 1
    frequency:    13.7169434089
  - # 2
    frequency:    13.9416262107
  - # 3
    frequency:    18.5054402666
  - # 4
    frequency:    18.5149568525
  - # 5
    frequency:    19.2041812060
  - # 6
    frequency:    19.3431003384
  - # 7
    frequency:    37.9236865813
  - # 8
    frequency:    37.9504718423
  - # 9
    frequency:    41.8707372895
  - # 10
    frequency:    41.8779050944
  - # 11
    frequency:    42.0385794322
  - # 12
    frequency:    42.0723437446

- q-position: [    0.1111111,    0.1111111,    0.3750000 ]
  weight: 4    
  band:
  - # 1
    frequency:     7.4174939815
  - # 2
    frequency:     7.6963968378
  - # 3
    frequency:    10.4916125287
  - # 4
    frequency:    10.4976537486
  - # 5
    frequency:    18.8697193714
  - # 6
    frequency:    18.9257336448
  - # 7
    frequency:    23.5226165612
  - # 8
    frequency:    24.5602045002
  - # 9
    frequency:    42.0709426718
  - # 10
    frequency:    42.0891872849
  - # 11
    frequency:    42.7774413081
  - # 12
    frequency:    42.8869045783

- q-position: [    0.2222222,    0.1111111,    0.3750000 ]
  weight: 8    
  band:
  - # 1
    frequency:    10.5199935969
  - # 2
    frequency:    10.7631921776
  - # 3
    frequency:    15.8153895059
  - # 4
    frequency:    15.8277026049
  - # 5
    frequency:    21.7270579522
  - # 6
    frequency:    22.3811400260
  - # 7
    frequency:    27.2304872685
  - # 8
    frequency:    27.2653138178
  - # 9
    frequency:    42.3249813652
  - # 10
    frequency:    42.3499751984
  - # 11
    frequency:    43.4504764230
  - # 12
    frequency:    43.5125364057

- q-position: [    0.3333333,    0.1111111,    0.3750000 ]
  weight: 8    
  band:
  - # 1
    frequency:    13.2580807654
  - # 2
    frequency:    13.4107636250
  - # 3
    frequency:    19.6493513410
  - # 4
    frequency:    19.6818023321
  - # 5
    frequency:    19.6895919589
  - # 6
    frequency:    19.8802489571
  - # 7
    frequency:    34.3866946142
  - # 8
    frequency:    34.4110122100
  - # 9
    frequency:    42.1785354236
  - # 10
    frequency:    42.2011678966
  - # 11
    frequency:    43.0582469389
  - # 12
    frequency:    43.0890890306

- q-position: [   -0.5555556,    0.1111111,    0.3750000 ]
  weight: 8    
  band:
  - # 1
    frequency:    14.4166688121
  - # 2
    frequency:    14.6500712952
  - # 3
    frequency:    18.5577639060
  - # 4
    frequency:    18.5891272718
  - # 5
    frequency:    21.2480361099
  - # 6
    frequency:    21.2557469627
  - # 7
    frequency:    39.4311949637
  - # 8
    frequency:    39.4443076166
  - # 9
    frequency:    39.8302350567
  - # 10
    frequency:    39.8549528665
  - # 11
    frequency:    42.6663074791
  - # 12
    frequency:    42.6760671071

- q-position: [   -0.4444444,    0.1111111,    0.3750000 ]
  weight: 8    
  band:
  - # 1
    frequency:    12.4563573226
  - # 2
    frequency:    13.0031550035
  - # 3
    frequency:    19.9872308974
  - # 4
    frequency:    20.1341143311
  - # 5
    frequency:    20.1620083885
  - # 6
    frequency:    20.3370621656
  - # 7
    frequency:    34.6737632978
  - # 8
    frequency:    34.7021384438
  - # 9
    frequency:    41.9680380631
  - # 10
    frequency:    41.9754293345
  - # 11
    frequency:    42.8098100211
  - # 12
    frequency:    42.8535530979

- q-position: [   -0.3333333,    0.1111111,    0.3750000 ]
  weight: 8    
  band:
  - # 1
    frequency:     9.4909594339
  - # 2
    frequency:    10.2810491425
  - # 3
    frequency:    16.5305603983
  - # 4
    frequency:    16.5795449618
  - # 5
    frequency:    22.0152095184
  - # 6
    frequency:    22.7947653207
  - # 7
    frequency:    27.5395975889
  - # 8
    frequency:    27.5700569311
  - # 9
    frequency:    42.0203564711
  - # 10
    frequency:    42.0549923843
  - # 11
    frequency:    43.2652990806
  - # 12
    frequency:    43.3194357528

- q-position: [   -0.2222222,    0.1111111,    0.3750000 ]
  weight: 8    
  band:
  - # 1
    frequency:     6.2619745990
  - # 2
    frequency:     7.3130731505
  - # 3
    frequency:    11.1186237316
  - # 4
    frequency:    11.1950659334
  - # 5
    frequency:    19.2800077316
  - # 6
    frequency:    19.3025559390
  - # 7
    frequency:    23.7038535273
  - # 8
    frequency:    24.8335415882
  - # 9
    frequency:    41.6991904970
  - # 10
    frequency:    41.7961396294
  - # 11
    frequency:    42.7843710815
  - # 12
    frequency:    42.8212991943

- q-position: [   -0.1111111,    0.1111111,    0.3750000 ]
  weight: 4    
  band:
  - # 1
    frequency:     3.6805865836
  - # 2
    frequency:     4.9607603157
  - # 3
    frequency:     5.8277205048
  - # 4
    frequency:     6.0121225845
  - # 5
    frequency:    11.7304877751
  - # 6
    frequency:    11.7697929602
  - # 7
    frequency:    24.6302213498
  - # 8
    frequency:    25.9383813258
  - # 9
    frequency:    41.4512818410
  - # 10
    frequency:    41.6005977428
  - # 11
    frequency:    42.1904420230
  - # 12
    frequency:    42.2049848751

- q-position: [    0.2222222,    0.2222222,    0.3750000 ]
  weight: 4    
  band:
  - # 1
    frequency:    13.1113581182
  - # 2
    frequency:    13.2060439084
  - # 3
    frequency:    19.8072514361
  - # 4
    frequency:    20.0714691452
  - # 5
    frequency:    21.6228465668
  - # 6
    frequency:    21.6276147955
  - # 7
    frequency:    31.9716387182
  - # 8
    frequency:    31.9946108142
  - # 9
    frequency:    42.6404862519
  - # 10
    frequency:    42.6713394031
  - # 11
    frequency:    43.0880042750
  - # 12
    frequency:    43.1067478008

- q-position: [    0.3333333,    0.2222222,    0.3750000 ]
  weight: 8    
  band:
  - # 1
    frequency:    15.1115075783
  - # 2
    frequency:    15.2340452317
  - # 3
    frequency:    17.9033466777
  - # 4
    frequency:    17.9699304901
  - # 5
    frequency:    25.5965467258
  - # 6
    frequency:    25.5992274905
  - # 7
    frequency:    36.1739700196
  - # 8
    frequency:    36.1862428980
  - # 9
    frequency:    40.2683782375
  - # 10
    frequency:    40.2758950209
  - # 11
    frequency:    43.6025715682
  - # 12
    frequency:    43.6160443044

- q-position: [   -0.5555556,    0.2222222,    0.3750000 ]
  weight: 8    
  band:
  - # 1
    frequency:    14.2737905940
  - # 2
    frequency:    14.7116744064
  - # 3
    frequency:    18.4460014320
  - # 4
    frequency:    18.5423312070
  - # 5
    frequency:    25.9522250752
  - # 6
    frequency:    25.9717893685
  - # 7
    frequency:    36.4591432517
  - # 8
    frequency:    36.4739195358
  - # 9
    frequency:    39.8921295108
  - # 10
    frequency:    39.9047752478
  - # 11
    frequency:    43.4844098470
  - # 12
    frequency:    43.4960996770

- q-position: [   -0.4444444,    0.2222222,    0.3750000 ]
  weight: 8    
  band:
  - # 1
    frequency:    11.8555649504
  - # 2
    frequency:    12.5023033540
  - # 3
    frequency:    20.3181899251
  - # 4
    frequency:    20.8022173122
  - # 5
    frequency:    22.3750265802
  - # 6
    frequency:    22.4106700666
  - # 7
    frequency:    32.3312019605
  - # 8
    frequency:    32.3535550144
  - # 9
    frequency:    42.2610184246
  - # 10
    frequency:    42.2782126257
  - # 11
    frequency:    42.7772590728
  - # 12
    frequency:    42.8125307256

- q-position: [   -0.3333333,    0.2222222,    0.3750000 ]
  weight: 8    
  band:
  - # 1
    frequency:     9.2143650659
  - # 2
    frequency:    10.0868504800
  - # 3
    frequency:    16.4475303297
  - # 4
    frequency:    16.4982470324
  - # 5
    frequency:    22.0857412908
  - # 6
    frequency:    22.9371413885
  - # 7
    frequency:    27.7861771888
  - # 8
    frequency:    27.8114760844
  - # 9
    frequency:    41.9793981635
  - # 10
    frequency:    42.0627758604
  - # 11
    frequency:    43.1647596459
  - # 12
    frequency:    43.1793183536

- q-position: [   -0.2222222,    0.2222222,    0.3750000 ]
  weight: 4    
  band:
  - # 1
    frequency:     6.9182306251
  - # 2
    frequency:     8.0218157609
  - # 3
    frequency:    11.7601373869
  - # 4
    frequency:    11.8429299724
  - # 5
    frequency:    22.6397016911
  - # 6
    frequency:    22.6732870543
  - # 7
    frequency:    23.3180983379
  - # 8
    frequency:    24.4046037138
  - # 9
    frequency:    41.6120777708
  - # 10
    frequency:    41.7317559951
  - # 11
    frequency:    43.0330449114
  - # 12
    frequency:    43.0476932925

- q-position: [   -0.6666667,    0.3333333,    0.3750000 ]
  weight: 4    
  band:
  - # 1
    frequency:    15.9978080942
  - # 2
    frequency:    16.2150566187
  - # 3
    frequency:    16.9020755976
  - # 4
    frequency:    16.9306033898
  - # 5
    frequency:    29.3551223891
  - # 6
    frequency:    29.3678351564
  - # 7
    frequency:    37.3609162031
  - # 8
    frequency:    37.3615835594
  - # 9
    frequency:    37.4634545816
  - # 10
    frequency:    37.4648794583
  - # 11
    frequency:    44.0062237878
  - # 12
    frequency:    44.0135142886

- q-position: [   -0.5555556,    0.3333333,    0.3750000 ]
  weight: 8    
  band:
  - # 1
    frequency:    14.3071812712
  - # 2
    frequency:    14.6462858472
  - # 3
    frequency:    18.4453020077
  - # 4
    frequency:    18.5841385870
  - # 5
    frequency:    26.0647187228
  - # 6
    frequency:    26.0836178727
  - # 7
    frequency:    36.3328218226
  - # 8
    frequency:    36.3459222184
  - # 9
    frequency:    39.9276342828
  - # 10
    frequency:    39.9377793890
  - # 11
    frequency:    43.4806958689
  - # 12
    frequency:    43.4893151632

- q-position: [   -0.4444444,    0.3333333,    0.3750000 ]
  weight: 8    
  band:
  - # 1
    frequency:    12.3973667242
  - # 2
    frequency:    12.8768800655
  - # 3
    frequency:    20.0016417176
  - # 4
    frequency:    20.0785535480
  - # 5
    frequency:    20.1029552943
  - # 6
    frequency:    20.4645351803
  - # 7
    frequency:    34.7812699099
  - # 8
    frequency:    34.8066290594
  - # 9
    frequency:    41.9615711627
  - # 10
    frequency:    41.9992603829
  - # 11
    frequency:    42.7305240513
  - # 12
    frequency:    42.7474636289

- q-position: [   -0.3333333,    0.3333333,    0.3750000 ]
  weight: 4    
  band:
  - # 1
    frequency:    10.4581045140
  - # 2
    frequency:    11.1536118279
  - # 3
    frequency:    16.1409577361
  - # 4
    frequency:    16.1832524134
  - # 5
    frequency:    21.3363884785
  - # 6
    frequency:    22.0721434975
  - # 7
    frequency:    31.6067642859
  - # 8
    frequency:    31.6379682043
  - # 9
    frequency:    41.7581089033
  - # 10
    frequency:    41.8347658685
  - # 11
    frequency:    43.2838278401
  - # 12
    frequency:    43.3028321533

- q-position: [   -0.5555556,    0.4444444,    0.3750000 ]
  weight: 4    
  band:
  - # 1
    frequency:    14.3733832684
  - # 2
    frequency:    14.5279717717
  - # 3
    frequency:    18.6379579994
  - # 4
    frequency:    18.6762493875
  - # 5
    frequency:    21.3649990079
  - # 6
    frequency:    21.3710535487
  - # 7
    frequency:    39.4493716318
  - # 8
    frequency:    39.4598063530
  - # 9
    frequency:    39.7508783592
  - # 10
    frequency:    39.7767118711
  - # 11
    frequency:    42.6361264474
  - # 12
    frequency:    42.6382422391

- q-position: [   -0.4444444,    0.4444444,    0.3750000 ]
  weight: 4    
  band:
  - # 1
    frequency:    13.5848858398
  - # 2
    frequency:    13.8155532274
  - # 3
    frequency:    18.5178930391
  - # 4
    frequency:    18.5310158290
  - # 5
    frequency:    19.2496032127
  - # 6
    frequency:    19.5225356145
  - # 7
    frequency:    38.0715247493
  - # 8
    frequency:    38.0990372219
  - # 9
    frequency:    41.8359680630
  - # 10
    frequency:    41.8628442881
  - # 11
    frequency:    41.8877480768
  - # 12
    frequency:    41.9134519981

