# Thermal properties / unit cell (natom)

unit:
  temperature:   K
  free_energy:   kJ/mol
  entropy:       J/K/mol
  heat_capacity: J/K/mol

natom:     4
num_modes: 3888
num_integrated_modes: 3874

zero_point_energy:      65.6909237
high_T_entropy:        229.7124874

thermal_properties:
- temperature:         0.0000000
  free_energy:        65.6909237
  entropy:             0.0000000
  heat_capacity:       0.0000000
  energy:             65.6909237

- temperature:        10.0000000
  free_energy:        65.6909027
  entropy:             0.0102925
  heat_capacity:       0.0328256
  energy:             65.6910056

- temperature:        20.0000000
  free_energy:        65.6905907
  entropy:             0.0556349
  heat_capacity:       0.1107007
  energy:             65.6917034

- temperature:        30.0000000
  free_energy:        65.6897205
  entropy:             0.1225943
  heat_capacity:       0.2417236
  energy:             65.6933983

- temperature:        40.0000000
  free_energy:        65.6880331
  entropy:             0.2212892
  heat_capacity:       0.4755898
  energy:             65.6968847

- temperature:        50.0000000
  free_energy:        65.6851486
  entropy:             0.3636273
  heat_capacity:       0.8347524
  energy:             65.7033300

- temperature:        60.0000000
  free_energy:        65.6805903
  entropy:             0.5569286
  heat_capacity:       1.3219166
  energy:             65.7140061

- temperature:        70.0000000
  free_energy:        65.6738261
  entropy:             0.8053912
  heat_capacity:       1.9396530
  energy:             65.7302034

- temperature:        80.0000000
  free_energy:        65.6642887
  entropy:             1.1119646
  heat_capacity:       2.6912935
  energy:             65.7532459

- temperature:        90.0000000
  free_energy:        65.6513859
  entropy:             1.4787768
  heat_capacity:       3.5766929
  energy:             65.7844758

- temperature:       100.0000000
  free_energy:        65.6345084
  entropy:             1.9070016
  heat_capacity:       4.5905631
  energy:             65.8252085

- temperature:       110.0000000
  free_energy:        65.6130407
  entropy:             2.3967439
  heat_capacity:       5.7229537
  energy:             65.8766825

- temperature:       120.0000000
  free_energy:        65.5863715
  entropy:             2.9470577
  heat_capacity:       6.9605208
  energy:             65.9400184

- temperature:       130.0000000
  free_energy:        65.5539038
  entropy:             3.5560669
  heat_capacity:       8.2879345
  energy:             66.0161925

- temperature:       140.0000000
  free_energy:        65.5150632
  entropy:             4.2211426
  heat_capacity:       9.6891816
  energy:             66.1060232

- temperature:       150.0000000
  free_energy:        65.4693046
  entropy:             4.9391028
  heat_capacity:      11.1486472
  energy:             66.2101700

- temperature:       160.0000000
  free_energy:        65.4161166
  entropy:             5.7064080
  heat_capacity:      12.6519123
  energy:             66.3291419

- temperature:       170.0000000
  free_energy:        65.3550244
  entropy:             6.5193369
  heat_capacity:      14.1862505
  energy:             66.4633116

- temperature:       180.0000000
  free_energy:        65.2855903
  entropy:             7.3741328
  heat_capacity:      15.7408517
  energy:             66.6129342

- temperature:       190.0000000
  free_energy:        65.2074144
  entropy:             8.2671156
  heat_capacity:      17.3068298
  energy:             66.7781664

- temperature:       200.0000000
  free_energy:        65.1201325
  entropy:             9.1947620
  heat_capacity:      18.8770790
  energy:             66.9590849

- temperature:       210.0000000
  free_energy:        65.0234147
  entropy:            10.1537563
  heat_capacity:      20.4460431
  energy:             67.1557035

- temperature:       220.0000000
  free_energy:        64.9169632
  entropy:            11.1410179
  heat_capacity:      22.0094494
  energy:             67.3679871

- temperature:       230.0000000
  free_energy:        64.8005096
  entropy:            12.1537106
  heat_capacity:      23.5640414
  energy:             67.5958631

- temperature:       240.0000000
  free_energy:        64.6738129
  entropy:            13.1892390
  heat_capacity:      25.1073373
  energy:             67.8392302

- temperature:       250.0000000
  free_energy:        64.5366566
  entropy:            14.2452364
  heat_capacity:      26.6374237
  energy:             68.0979657

- temperature:       260.0000000
  free_energy:        64.3888471
  entropy:            15.3195480
  heat_capacity:      28.1527886
  energy:             68.3719296

- temperature:       270.0000000
  free_energy:        64.2302112
  entropy:            16.4102115
  heat_capacity:      29.6521949
  energy:             68.6609683

- temperature:       280.0000000
  free_energy:        64.0605944
  entropy:            17.5154371
  heat_capacity:      31.1345865
  energy:             68.9649168

- temperature:       290.0000000
  free_energy:        63.8798594
  entropy:            18.6335889
  heat_capacity:      32.5990250
  energy:             69.2836002

- temperature:       300.0000000
  free_energy:        63.6878845
  entropy:            19.7631668
  heat_capacity:      34.0446479
  energy:             69.6168346

- temperature:       310.0000000
  free_energy:        63.4845626
  entropy:            20.9027908
  heat_capacity:      35.4706447
  energy:             69.9644277

- temperature:       320.0000000
  free_energy:        63.2697995
  entropy:            22.0511874
  heat_capacity:      36.8762457
  energy:             70.3261795

- temperature:       330.0000000
  free_energy:        63.0435135
  entropy:            23.2071778
  heat_capacity:      38.2607181
  energy:             70.7018822

- temperature:       340.0000000
  free_energy:        62.8056343
  entropy:            24.3696671
  heat_capacity:      39.6233687
  energy:             71.0913211

- temperature:       350.0000000
  free_energy:        62.5561019
  entropy:            25.5376364
  heat_capacity:      40.9635489
  energy:             71.4942746

- temperature:       360.0000000
  free_energy:        62.2948664
  entropy:            26.7101353
  heat_capacity:      42.2806604
  energy:             71.9105152

- temperature:       370.0000000
  free_energy:        62.0218871
  entropy:            27.8862759
  heat_capacity:      43.5741617
  energy:             72.3398091

- temperature:       380.0000000
  free_energy:        61.7371316
  entropy:            29.0652277
  heat_capacity:      44.8435735
  energy:             72.7819181

- temperature:       390.0000000
  free_energy:        61.4405757
  entropy:            30.2462133
  heat_capacity:      46.0884830
  energy:             73.2365989

- temperature:       400.0000000
  free_energy:        61.1322030
  entropy:            31.4285049
  heat_capacity:      47.3085468
  energy:             73.7036049

- temperature:       410.0000000
  free_energy:        60.8120036
  entropy:            32.6114209
  heat_capacity:      48.5034921
  energy:             74.1826861

- temperature:       420.0000000
  free_energy:        60.4799746
  entropy:            33.7943232
  heat_capacity:      49.6731174
  energy:             74.6735903

- temperature:       430.0000000
  free_energy:        60.1361191
  entropy:            34.9766151
  heat_capacity:      50.8172910
  energy:             75.1760636

- temperature:       440.0000000
  free_energy:        59.7804462
  entropy:            36.1577385
  heat_capacity:      51.9359492
  energy:             75.6898511

- temperature:       450.0000000
  free_energy:        59.4129700
  entropy:            37.3371723
  heat_capacity:      53.0290936
  energy:             76.2146976

- temperature:       460.0000000
  free_energy:        59.0337100
  entropy:            38.5144308
  heat_capacity:      54.0967873
  energy:             76.7503481

- temperature:       470.0000000
  free_energy:        58.6426902
  entropy:            39.6890611
  heat_capacity:      55.1391508
  energy:             77.2965489

- temperature:       480.0000000
  free_energy:        58.2399389
  entropy:            40.8606424
  heat_capacity:      56.1563581
  energy:             77.8530473

- temperature:       490.0000000
  free_energy:        57.8254888
  entropy:            42.0287840
  heat_capacity:      57.1486320
  energy:             78.4195929

- temperature:       500.0000000
  free_energy:        57.3993759
  entropy:            43.1931236
  heat_capacity:      58.1162393
  energy:             78.9959377

- temperature:       510.0000000
  free_energy:        56.9616401
  entropy:            44.3533263
  heat_capacity:      59.0594864
  energy:             79.5818365

- temperature:       520.0000000
  free_energy:        56.5123242
  entropy:            45.5090830
  heat_capacity:      59.9787148
  energy:             80.1770474

- temperature:       530.0000000
  free_energy:        56.0514742
  entropy:            46.6601090
  heat_capacity:      60.8742968
  energy:             80.7813320

- temperature:       540.0000000
  free_energy:        55.5791387
  entropy:            47.8061428
  heat_capacity:      61.7466311
  energy:             81.3944558

- temperature:       550.0000000
  free_energy:        55.0953688
  entropy:            48.9469449
  heat_capacity:      62.5961392
  energy:             82.0161885

- temperature:       560.0000000
  free_energy:        54.6002180
  entropy:            50.0822965
  heat_capacity:      63.4232616
  energy:             82.6463040

- temperature:       570.0000000
  free_energy:        54.0937417
  entropy:            51.2119981
  heat_capacity:      64.2284542
  energy:             83.2845806

- temperature:       580.0000000
  free_energy:        53.5759974
  entropy:            52.3358691
  heat_capacity:      65.0121855
  energy:             83.9308015

- temperature:       590.0000000
  free_energy:        53.0470443
  entropy:            53.4537459
  heat_capacity:      65.7749333
  energy:             84.5847544

- temperature:       600.0000000
  free_energy:        52.5069430
  entropy:            54.5654814
  heat_capacity:      66.5171823
  energy:             85.2462319

- temperature:       610.0000000
  free_energy:        51.9557556
  entropy:            55.6709439
  heat_capacity:      67.2394218
  energy:             85.9150314

- temperature:       620.0000000
  free_energy:        51.3935454
  entropy:            56.7700158
  heat_capacity:      67.9421434
  energy:             86.5909552

- temperature:       630.0000000
  free_energy:        50.8203769
  entropy:            57.8625935
  heat_capacity:      68.6258390
  energy:             87.2738108

- temperature:       640.0000000
  free_energy:        50.2363155
  entropy:            58.9485855
  heat_capacity:      69.2909993
  energy:             87.9634102

- temperature:       650.0000000
  free_energy:        49.6414274
  entropy:            60.0279126
  heat_capacity:      69.9381122
  energy:             88.6595706

- temperature:       660.0000000
  free_energy:        49.0357797
  entropy:            61.1005064
  heat_capacity:      70.5676616
  energy:             89.3621139

- temperature:       670.0000000
  free_energy:        48.4194399
  entropy:            62.1663089
  heat_capacity:      71.1801260
  energy:             90.0708669

- temperature:       680.0000000
  free_energy:        47.7924763
  entropy:            63.2252717
  heat_capacity:      71.7759777
  energy:             90.7856611

- temperature:       690.0000000
  free_energy:        47.1549574
  entropy:            64.2773554
  heat_capacity:      72.3556818
  energy:             91.5063326

- temperature:       700.0000000
  free_energy:        46.5069522
  entropy:            65.3225288
  heat_capacity:      72.9196958
  energy:             92.2327224

- temperature:       710.0000000
  free_energy:        45.8485300
  entropy:            66.3607687
  heat_capacity:      73.4684686
  energy:             92.9646758

- temperature:       720.0000000
  free_energy:        45.1797600
  entropy:            67.3920589
  heat_capacity:      74.0024402
  energy:             93.7020424

- temperature:       730.0000000
  free_energy:        44.5007120
  entropy:            68.4163899
  heat_capacity:      74.5220414
  energy:             94.4446767

- temperature:       740.0000000
  free_energy:        43.8114554
  entropy:            69.4337586
  heat_capacity:      75.0276934
  energy:             95.1924368

- temperature:       750.0000000
  free_energy:        43.1120600
  entropy:            70.4441672
  heat_capacity:      75.5198072
  energy:             95.9451854

- temperature:       760.0000000
  free_energy:        42.4025953
  entropy:            71.4476235
  heat_capacity:      75.9987842
  energy:             96.7027891

- temperature:       770.0000000
  free_energy:        41.6831307
  entropy:            72.4441401
  heat_capacity:      76.4650155
  energy:             97.4651186

- temperature:       780.0000000
  free_energy:        40.9537356
  entropy:            73.4337342
  heat_capacity:      76.9188817
  energy:             98.2320482

- temperature:       790.0000000
  free_energy:        40.2144790
  entropy:            74.4164269
  heat_capacity:      77.3607537
  energy:             99.0034563

- temperature:       800.0000000
  free_energy:        39.4654299
  entropy:            75.3922432
  heat_capacity:      77.7909919
  energy:             99.7792245

- temperature:       810.0000000
  free_energy:        38.7066570
  entropy:            76.3612117
  heat_capacity:      78.2099465
  energy:            100.5592385

- temperature:       820.0000000
  free_energy:        37.9382284
  entropy:            77.3233641
  heat_capacity:      78.6179580
  energy:            101.3433870

- temperature:       830.0000000
  free_energy:        37.1602123
  entropy:            78.2787349
  heat_capacity:      79.0153566
  energy:            102.1315623

- temperature:       840.0000000
  free_energy:        36.3726762
  entropy:            79.2273614
  heat_capacity:      79.4024630
  energy:            102.9236598

- temperature:       850.0000000
  free_energy:        35.5756874
  entropy:            80.1692833
  heat_capacity:      79.7795882
  energy:            103.7195783

- temperature:       860.0000000
  free_energy:        34.7693127
  entropy:            81.1045425
  heat_capacity:      80.1470338
  energy:            104.5192193

- temperature:       870.0000000
  free_energy:        33.9536186
  entropy:            82.0331828
  heat_capacity:      80.5050922
  energy:            105.3224876

- temperature:       880.0000000
  free_energy:        33.1286710
  entropy:            82.9552498
  heat_capacity:      80.8540465
  energy:            106.1292908

- temperature:       890.0000000
  free_energy:        32.2945354
  entropy:            83.8707907
  heat_capacity:      81.1941713
  energy:            106.9395391

- temperature:       900.0000000
  free_energy:        31.4512768
  entropy:            84.7798543
  heat_capacity:      81.5257323
  energy:            107.7531457

- temperature:       910.0000000
  free_energy:        30.5989597
  entropy:            85.6824905
  heat_capacity:      81.8489870
  energy:            108.5700261

- temperature:       920.0000000
  free_energy:        29.7376482
  entropy:            86.5787504
  heat_capacity:      82.1641844
  energy:            109.3900986

- temperature:       930.0000000
  free_energy:        28.8674058
  entropy:            87.4686860
  heat_capacity:      82.4715660
  energy:            110.2132837

- temperature:       940.0000000
  free_energy:        27.9882954
  entropy:            88.3523502
  heat_capacity:      82.7713651
  energy:            111.0395046

- temperature:       950.0000000
  free_energy:        27.1003795
  entropy:            89.2297968
  heat_capacity:      83.0638076
  energy:            111.8686865

- temperature:       960.0000000
  free_energy:        26.2037200
  entropy:            90.1010802
  heat_capacity:      83.3491123
  energy:            112.7007570

- temperature:       970.0000000
  free_energy:        25.2983783
  entropy:            90.9662551
  heat_capacity:      83.6274907
  energy:            113.5356457

- temperature:       980.0000000
  free_energy:        24.3844151
  entropy:            91.8253768
  heat_capacity:      83.8991474
  energy:            114.3732844

- temperature:       990.0000000
  free_energy:        23.4618907
  entropy:            92.6785012
  heat_capacity:      84.1642804
  energy:            115.2136069

- temperature:      1000.0000000
  free_energy:        22.5308649
  entropy:            93.5256840
  heat_capacity:      84.4230813
  energy:            116.0565489
