   2   2   0   0
  0.6584890E+01  0.2650724E-09  0.2650724E-09  0.2650724E-09  0.5000000E-15
  1.000000000000000E-004
  CAR 
 graphite                                
     24.35656906    -13.86382348  301      7.79838025      1.00000000
    -13.864  0.0000E+00  0.0000E+00
    -13.736  0.0000E+00  0.0000E+00
    -13.609  0.0000E+00  0.0000E+00
    -13.482  0.0000E+00  0.0000E+00
    -13.354  0.0000E+00  0.0000E+00
    -13.227  0.0000E+00  0.0000E+00
    -13.099  0.0000E+00  0.0000E+00
    -12.972  0.0000E+00  0.0000E+00
    -12.845  0.0000E+00  0.0000E+00
    -12.717  0.0000E+00  0.0000E+00
    -12.590  0.0000E+00  0.0000E+00
    -12.462  0.0000E+00  0.0000E+00
    -12.335  0.0000E+00  0.0000E+00
    -12.208  0.0000E+00  0.0000E+00
    -12.080  0.0000E+00  0.0000E+00
    -11.953  0.0000E+00  0.0000E+00
    -11.825  0.9187E-05  0.1177E-06
    -11.698  0.1711E-03  0.9459E-05
    -11.571  0.3165E-03  0.4198E-04
    -11.443  0.3768E-03  0.8653E-04
    -11.316  0.4509E-03  0.1393E-03
    -11.188  0.5124E-03  0.2008E-03
    -11.061  0.5554E-03  0.2687E-03
    -10.934  0.6098E-03  0.3429E-03
    -10.806  0.6692E-03  0.4243E-03
    -10.679  0.7113E-03  0.5124E-03
    -10.551  0.7515E-03  0.6056E-03
    -10.424  0.7865E-03  0.7037E-03
    -10.297  0.8186E-03  0.8059E-03
    -10.169  0.8574E-03  0.9126E-03
    -10.042  0.8965E-03  0.1024E-02
     -9.914  0.9337E-03  0.1141E-02
     -9.787  0.9687E-03  0.1262E-02
     -9.660  0.1007E-02  0.1388E-02
     -9.532  0.1048E-02  0.1519E-02
     -9.405  0.1080E-02  0.1655E-02
     -9.277  0.1111E-02  0.1794E-02
     -9.150  0.1143E-02  0.1938E-02
     -9.023  0.1175E-02  0.2085E-02
     -8.895  0.1207E-02  0.2237E-02
     -8.768  0.1241E-02  0.2393E-02
     -8.640  0.1276E-02  0.2553E-02
     -8.513  0.1314E-02  0.2718E-02
     -8.386  0.1353E-02  0.2888E-02
     -8.258  0.1393E-02  0.3063E-02
     -8.131  0.1435E-02  0.3243E-02
     -8.003  0.1478E-02  0.3429E-02
     -7.876  0.1525E-02  0.3620E-02
     -7.749  0.1576E-02  0.3818E-02
     -7.621  0.1635E-02  0.4022E-02
     -7.494  0.1703E-02  0.4234E-02
     -7.366  0.1784E-02  0.4456E-02
     -7.239  0.1904E-02  0.4691E-02
     -7.112  0.2062E-02  0.4943E-02
     -6.984  0.2241E-02  0.5217E-02
     -6.857  0.2334E-02  0.5519E-02
     -6.729  0.2169E-02  0.5804E-02
     -6.602  0.2120E-02  0.6077E-02
     -6.475  0.2092E-02  0.6344E-02
     -6.347  0.2069E-02  0.6610E-02
     -6.220  0.1995E-02  0.6869E-02
     -6.092  0.1913E-02  0.7118E-02
     -5.965  0.1875E-02  0.7359E-02
     -5.838  0.1855E-02  0.7598E-02
     -5.710  0.1773E-02  0.7829E-02
     -5.583  0.1688E-02  0.8049E-02
     -5.455  0.1632E-02  0.8260E-02
     -5.328  0.1604E-02  0.8466E-02
     -5.201  0.1601E-02  0.8670E-02
     -5.073  0.1602E-02  0.8874E-02
     -4.946  0.1584E-02  0.9077E-02
     -4.818  0.1564E-02  0.9278E-02
     -4.691  0.1429E-02  0.9470E-02
     -4.564  0.1234E-02  0.9640E-02
     -4.436  0.1032E-02  0.9782E-02
     -4.309  0.5421E-03  0.9886E-02
     -4.181  0.2968E-03  0.9936E-02
     -4.054  0.1901E-03  0.9966E-02
     -3.927  0.1946E-03  0.9989E-02
     -3.799  0.3153E-03  0.1002E-01
     -3.672  0.5189E-03  0.1007E-01
     -3.544  0.7844E-03  0.1015E-01
     -3.417  0.1132E-02  0.1028E-01
     -3.290  0.1482E-02  0.1044E-01
     -3.162  0.2190E-02  0.1068E-01
     -3.035  0.2942E-02  0.1100E-01
     -2.907  0.3630E-02  0.1142E-01
     -2.780  0.4429E-02  0.1193E-01
     -2.653  0.4308E-02  0.1250E-01
     -2.525  0.3603E-02  0.1300E-01
     -2.398  0.2981E-02  0.1342E-01
     -2.270  0.2639E-02  0.1378E-01
     -2.143  0.2357E-02  0.1410E-01
     -2.016  0.2137E-02  0.1438E-01
     -1.888  0.1976E-02  0.1464E-01
     -1.761  0.1838E-02  0.1488E-01
     -1.633  0.1720E-02  0.1511E-01
     -1.506  0.1642E-02  0.1533E-01
     -1.378  0.1583E-02  0.1553E-01
     -1.251  0.1531E-02  0.1573E-01
     -1.124  0.1479E-02  0.1592E-01
     -0.996  0.1415E-02  0.1610E-01
     -0.869  0.1340E-02  0.1628E-01
     -0.741  0.1257E-02  0.1645E-01
     -0.614  0.1187E-02  0.1660E-01
     -0.487  0.1135E-02  0.1675E-01
     -0.359  0.1096E-02  0.1689E-01
     -0.232  0.1106E-02  0.1703E-01
     -0.104  0.1405E-02  0.1719E-01
      0.023  0.1889E-02  0.1740E-01
      0.150  0.2624E-02  0.1768E-01
      0.278  0.3216E-02  0.1806E-01
      0.405  0.3406E-02  0.1849E-01
      0.533  0.3239E-02  0.1891E-01
      0.660  0.3101E-02  0.1931E-01
      0.787  0.3059E-02  0.1971E-01
      0.915  0.3022E-02  0.2009E-01
      1.042  0.2992E-02  0.2048E-01
      1.170  0.2968E-02  0.2086E-01
      1.297  0.2994E-02  0.2123E-01
      1.424  0.3064E-02  0.2162E-01
      1.552  0.3121E-02  0.2201E-01
      1.679  0.3329E-02  0.2242E-01
      1.807  0.3485E-02  0.2286E-01
      1.934  0.3643E-02  0.2332E-01
      2.061  0.3784E-02  0.2379E-01
      2.189  0.4072E-02  0.2429E-01
      2.316  0.4493E-02  0.2483E-01
      2.444  0.4729E-02  0.2542E-01
      2.571  0.4558E-02  0.2601E-01
      2.698  0.4501E-02  0.2659E-01
      2.826  0.4459E-02  0.2716E-01
      2.953  0.4436E-02  0.2773E-01
      3.081  0.4380E-02  0.2829E-01
      3.208  0.4335E-02  0.2884E-01
      3.335  0.4270E-02  0.2939E-01
      3.463  0.4194E-02  0.2993E-01
      3.590  0.4148E-02  0.3046E-01
      3.718  0.4132E-02  0.3099E-01
      3.845  0.4120E-02  0.3152E-01
      3.972  0.4093E-02  0.3204E-01
      4.100  0.4055E-02  0.3256E-01
      4.227  0.4016E-02  0.3307E-01
      4.355  0.3985E-02  0.3358E-01
      4.482  0.3944E-02  0.3409E-01
      4.609  0.3913E-02  0.3459E-01
      4.737  0.3882E-02  0.3508E-01
      4.864  0.3825E-02  0.3558E-01
      4.992  0.3755E-02  0.3606E-01
      5.119  0.3598E-02  0.3653E-01
      5.246  0.3193E-02  0.3697E-01
      5.374  0.2695E-02  0.3734E-01
      5.501  0.2379E-02  0.3766E-01
      5.629  0.2127E-02  0.3795E-01
      5.756  0.1951E-02  0.3821E-01
      5.883  0.1808E-02  0.3845E-01
      6.011  0.1658E-02  0.3867E-01
      6.138  0.1491E-02  0.3887E-01
      6.266  0.1332E-02  0.3905E-01
      6.393  0.1204E-02  0.3921E-01
      6.520  0.1081E-02  0.3936E-01
      6.648  0.9596E-03  0.3949E-01
      6.775  0.8471E-03  0.3960E-01
      6.903  0.7698E-03  0.3971E-01
      7.030  0.6556E-03  0.3980E-01
      7.157  0.5648E-03  0.3987E-01
      7.285  0.4053E-03  0.3994E-01
      7.412  0.2494E-03  0.3998E-01
      7.540  0.7326E-04  0.4000E-01
      7.667  0.4613E-05  0.4000E-01
      7.794  0.0000E+00  0.4000E-01
      7.922  0.0000E+00  0.4000E-01
      8.049  0.0000E+00  0.4000E-01
      8.177  0.0000E+00  0.4000E-01
      8.304  0.0000E+00  0.4000E-01
      8.431  0.0000E+00  0.4000E-01
      8.559  0.0000E+00  0.4000E-01
      8.686  0.0000E+00  0.4000E-01
      8.814  0.0000E+00  0.4000E-01
      8.941  0.0000E+00  0.4000E-01
      9.068  0.0000E+00  0.4000E-01
      9.196  0.0000E+00  0.4000E-01
      9.323  0.0000E+00  0.4000E-01
      9.451  0.0000E+00  0.4000E-01
      9.578  0.0000E+00  0.4000E-01
      9.705  0.0000E+00  0.4000E-01
      9.833  0.0000E+00  0.4000E-01
      9.960  0.0000E+00  0.4000E-01
     10.088  0.0000E+00  0.4000E-01
     10.215  0.0000E+00  0.4000E-01
     10.342  0.0000E+00  0.4000E-01
     10.470  0.0000E+00  0.4000E-01
     10.597  0.0000E+00  0.4000E-01
     10.725  0.0000E+00  0.4000E-01
     10.852  0.0000E+00  0.4000E-01
     10.979  0.0000E+00  0.4000E-01
     11.107  0.0000E+00  0.4000E-01
     11.234  0.0000E+00  0.4000E-01
     11.362  0.0000E+00  0.4000E-01
     11.489  0.0000E+00  0.4000E-01
     11.616  0.1223E-04  0.4000E-01
     11.744  0.1425E-03  0.4001E-01
     11.871  0.3799E-03  0.4004E-01
     11.999  0.6350E-03  0.4011E-01
     12.126  0.8896E-03  0.4020E-01
     12.253  0.1090E-02  0.4033E-01
     12.381  0.1257E-02  0.4048E-01
     12.508  0.1432E-02  0.4065E-01
     12.636  0.1648E-02  0.4085E-01
     12.763  0.1844E-02  0.4107E-01
     12.890  0.2113E-02  0.4132E-01
     13.018  0.2415E-02  0.4161E-01
     13.145  0.2644E-02  0.4193E-01
     13.273  0.2703E-02  0.4227E-01
     13.400  0.2857E-02  0.4263E-01
     13.527  0.3017E-02  0.4300E-01
     13.655  0.3174E-02  0.4339E-01
     13.782  0.3301E-02  0.4381E-01
     13.910  0.3457E-02  0.4424E-01
     14.037  0.3640E-02  0.4469E-01
     14.164  0.3845E-02  0.4516E-01
     14.292  0.4110E-02  0.4567E-01
     14.419  0.4558E-02  0.4622E-01
     14.547  0.5301E-02  0.4684E-01
     14.674  0.6689E-02  0.4760E-01
     14.801  0.7747E-02  0.4853E-01
     14.929  0.7703E-02  0.4953E-01
     15.056  0.6024E-02  0.5041E-01
     15.184  0.4799E-02  0.5109E-01
     15.311  0.4481E-02  0.5166E-01
     15.438  0.4424E-02  0.5223E-01
     15.566  0.5411E-02  0.5285E-01
     15.693  0.5157E-02  0.5354E-01
     15.821  0.4959E-02  0.5420E-01
     15.948  0.4999E-02  0.5483E-01
     16.075  0.5235E-02  0.5548E-01
     16.203  0.5568E-02  0.5617E-01
     16.330  0.5914E-02  0.5690E-01
     16.458  0.5678E-02  0.5765E-01
     16.585  0.5331E-02  0.5834E-01
     16.712  0.5356E-02  0.5902E-01
     16.840  0.5077E-02  0.5969E-01
     16.967  0.4656E-02  0.6031E-01
     17.095  0.4082E-02  0.6087E-01
     17.222  0.3726E-02  0.6136E-01
     17.349  0.3637E-02  0.6183E-01
     17.477  0.3901E-02  0.6231E-01
     17.604  0.4001E-02  0.6282E-01
     17.732  0.3274E-02  0.6327E-01
     17.859  0.2876E-02  0.6366E-01
     17.987  0.2798E-02  0.6402E-01
     18.114  0.3444E-02  0.6442E-01
     18.241  0.4070E-02  0.6490E-01
     18.369  0.4843E-02  0.6546E-01
     18.496  0.4957E-02  0.6608E-01
     18.624  0.5101E-02  0.6672E-01
     18.751  0.5364E-02  0.6739E-01
     18.878  0.5547E-02  0.6809E-01
     19.006  0.5256E-02  0.6879E-01
     19.133  0.4627E-02  0.6942E-01
     19.261  0.4281E-02  0.6998E-01
     19.388  0.4205E-02  0.7052E-01
     19.515  0.3972E-02  0.7105E-01
     19.643  0.3844E-02  0.7154E-01
     19.770  0.3748E-02  0.7202E-01
     19.898  0.3958E-02  0.7251E-01
     20.025  0.4470E-02  0.7304E-01
     20.152  0.5208E-02  0.7366E-01
     20.280  0.6066E-02  0.7438E-01
     20.407  0.6383E-02  0.7518E-01
     20.535  0.5672E-02  0.7596E-01
     20.662  0.4712E-02  0.7661E-01
     20.789  0.4009E-02  0.7716E-01
     20.917  0.3568E-02  0.7764E-01
     21.044  0.3111E-02  0.7807E-01
     21.172  0.2715E-02  0.7844E-01
     21.299  0.2427E-02  0.7877E-01
     21.426  0.2241E-02  0.7906E-01
     21.554  0.2081E-02  0.7934E-01
     21.681  0.1790E-02  0.7959E-01
     21.809  0.1244E-02  0.7979E-01
     21.936  0.6761E-03  0.7991E-01
     22.063  0.3225E-03  0.7997E-01
     22.191  0.1031E-03  0.7999E-01
     22.318  0.5537E-05  0.8000E-01
     22.446  0.0000E+00  0.8000E-01
     22.573  0.0000E+00  0.8000E-01
     22.700  0.0000E+00  0.8000E-01
     22.828  0.0000E+00  0.8000E-01
     22.955  0.0000E+00  0.8000E-01
     23.083  0.0000E+00  0.8000E-01
     23.210  0.0000E+00  0.8000E-01
     23.337  0.0000E+00  0.8000E-01
     23.465  0.0000E+00  0.8000E-01
     23.592  0.0000E+00  0.8000E-01
     23.720  0.0000E+00  0.8000E-01
     23.847  0.0000E+00  0.8000E-01
     23.974  0.0000E+00  0.8000E-01
     24.102  0.0000E+00  0.8000E-01
     24.229  0.0000E+00  0.8000E-01
     24.357  0.0000E+00  0.8000E-01
