<?xml version="1.0" encoding="ISO-8859-1"?>
<modeling>
 <generator>
  <i name="program" type="string">vasp </i>
  <i name="version" type="string">5.3.5  </i>
  <i name="subversion" type="string">31Mar14 (build Nov 02 2014 15:17:37) complex                          parallel </i>
  <i name="platform" type="string">ion-Intel-MKL </i>
  <i name="date" type="string">2017 02 12 </i>
  <i name="time" type="string">19:07:51 </i>
 </generator>
 <incar>
  <i type="string" name="SYSTEM">graphite</i>
  <i type="string" name="PREC">accurate</i>
  <i type="int" name="NELM">   200</i>
  <i type="int" name="IBRION">     2</i>
  <i name="EDIFF">      0.00000001</i>
  <i name="EDIFFG">      0.00100000</i>
  <i type="int" name="NSW">   200</i>
  <i type="int" name="ISIF">     2</i>
  <i name="ENCUT">    800.00000000</i>
  <i type="int" name="ISMEAR">    -5</i>
  <i type="logical" name="LWAVE"> F  </i>
  <i type="logical" name="LCHARG"> F  </i>
  <i type="int" name="NELM">   200</i>
  <i type="string" name="GGA">PE</i>
 </incar>
 <kpoints>
  <generation param="Gamma">
   <v type="int" name="divisions">      12       12        8 </v>
   <v name="usershift">      0.00000000       0.00000000       0.00000000 </v>
   <v name="genvec1">      0.08333333       0.00000000      -0.00000000 </v>
   <v name="genvec2">      0.00000000       0.08333333      -0.00000000 </v>
   <v name="genvec3">      0.00000000       0.00000000       0.12500000 </v>
   <v name="shift">      0.00000000       0.00000000       0.00000000 </v>
  </generation>
  <varray name="kpointlist" >
   <v>       0.00000000       0.00000000       0.00000000 </v>
   <v>       0.08333333       0.00000000      -0.00000000 </v>
   <v>       0.16666667      -0.00000000      -0.00000000 </v>
   <v>       0.25000000      -0.00000000      -0.00000000 </v>
   <v>       0.33333333       0.00000000      -0.00000000 </v>
   <v>       0.41666667      -0.00000000      -0.00000000 </v>
   <v>       0.50000000      -0.00000000      -0.00000000 </v>
   <v>       0.08333333       0.08333333      -0.00000000 </v>
   <v>       0.16666667       0.08333333      -0.00000000 </v>
   <v>       0.25000000       0.08333333      -0.00000000 </v>
   <v>       0.33333333       0.08333333       0.00000000 </v>
   <v>       0.41666667       0.08333333      -0.00000000 </v>
   <v>       0.50000000       0.08333333      -0.00000000 </v>
   <v>      -0.41666667       0.08333333       0.00000000 </v>
   <v>      -0.33333333       0.08333333       0.00000000 </v>
   <v>      -0.25000000       0.08333333       0.00000000 </v>
   <v>      -0.16666667       0.08333333       0.00000000 </v>
   <v>      -0.08333333       0.08333333       0.00000000 </v>
   <v>       0.16666667       0.16666667      -0.00000000 </v>
   <v>       0.25000000       0.16666667      -0.00000000 </v>
   <v>       0.33333333       0.16666667      -0.00000000 </v>
   <v>       0.41666667       0.16666667      -0.00000000 </v>
   <v>       0.50000000       0.16666667      -0.00000000 </v>
   <v>      -0.41666667       0.16666667       0.00000000 </v>
   <v>      -0.33333333       0.16666667       0.00000000 </v>
   <v>      -0.25000000       0.16666667       0.00000000 </v>
   <v>      -0.16666667       0.16666667       0.00000000 </v>
   <v>       0.25000000       0.25000000      -0.00000000 </v>
   <v>       0.33333333       0.25000000       0.00000000 </v>
   <v>       0.41666667       0.25000000      -0.00000000 </v>
   <v>       0.50000000       0.25000000      -0.00000000 </v>
   <v>      -0.41666667       0.25000000       0.00000000 </v>
   <v>      -0.33333333       0.25000000      -0.00000000 </v>
   <v>      -0.25000000       0.25000000       0.00000000 </v>
   <v>       0.33333333       0.33333333      -0.00000000 </v>
   <v>       0.41666667       0.33333333      -0.00000000 </v>
   <v>       0.50000000       0.33333333      -0.00000000 </v>
   <v>      -0.41666667       0.33333333       0.00000000 </v>
   <v>      -0.33333333       0.33333333       0.00000000 </v>
   <v>       0.41666667       0.41666667      -0.00000000 </v>
   <v>       0.50000000       0.41666667      -0.00000000 </v>
   <v>      -0.41666667       0.41666667       0.00000000 </v>
   <v>       0.50000000       0.50000000      -0.00000000 </v>
   <v>       0.00000000       0.00000000       0.12500000 </v>
   <v>       0.08333333       0.00000000       0.12500000 </v>
   <v>       0.16666667      -0.00000000       0.12500000 </v>
   <v>       0.25000000      -0.00000000       0.12500000 </v>
   <v>       0.33333333       0.00000000       0.12500000 </v>
   <v>       0.41666667      -0.00000000       0.12500000 </v>
   <v>       0.50000000      -0.00000000       0.12500000 </v>
   <v>      -0.41666667       0.00000000       0.12500000 </v>
   <v>      -0.33333333      -0.00000000       0.12500000 </v>
   <v>      -0.25000000       0.00000000       0.12500000 </v>
   <v>      -0.16666667      -0.00000000       0.12500000 </v>
   <v>      -0.08333333      -0.00000000       0.12500000 </v>
   <v>       0.08333333       0.08333333       0.12500000 </v>
   <v>       0.16666667       0.08333333       0.12500000 </v>
   <v>       0.25000000       0.08333333       0.12500000 </v>
   <v>       0.33333333       0.08333333       0.12500000 </v>
   <v>       0.41666667       0.08333333       0.12500000 </v>
   <v>       0.50000000       0.08333333       0.12500000 </v>
   <v>      -0.41666667       0.08333333       0.12500000 </v>
   <v>      -0.33333333       0.08333333       0.12500000 </v>
   <v>      -0.25000000       0.08333333       0.12500000 </v>
   <v>      -0.16666667       0.08333333       0.12500000 </v>
   <v>      -0.08333333       0.08333333       0.12500000 </v>
   <v>       0.16666667       0.16666667       0.12500000 </v>
   <v>       0.33333333       0.16666667       0.12500000 </v>
   <v>       0.41666667       0.16666667       0.12500000 </v>
   <v>       0.50000000       0.16666667       0.12500000 </v>
   <v>      -0.41666667       0.16666667       0.12500000 </v>
   <v>      -0.33333333       0.16666667       0.12500000 </v>
   <v>      -0.25000000       0.16666667       0.12500000 </v>
   <v>      -0.16666667       0.16666667       0.12500000 </v>
   <v>      -0.08333333       0.16666667       0.12500000 </v>
   <v>       0.33333333       0.25000000       0.12500000 </v>
   <v>       0.41666667       0.25000000       0.12500000 </v>
   <v>       0.50000000       0.25000000       0.12500000 </v>
   <v>      -0.41666667       0.25000000       0.12500000 </v>
   <v>       0.33333333       0.33333333       0.12500000 </v>
   <v>       0.41666667       0.33333333       0.12500000 </v>
   <v>       0.50000000       0.33333333       0.12500000 </v>
   <v>      -0.41666667       0.33333333       0.12500000 </v>
   <v>      -0.33333333       0.33333333       0.12500000 </v>
   <v>      -0.25000000       0.33333333       0.12500000 </v>
   <v>      -0.16666667       0.33333333       0.12500000 </v>
   <v>      -0.08333333       0.33333333       0.12500000 </v>
   <v>       0.41666667       0.41666667       0.12500000 </v>
   <v>       0.50000000       0.41666667       0.12500000 </v>
   <v>      -0.41666667       0.41666667       0.12500000 </v>
   <v>      -0.33333333       0.41666667       0.12500000 </v>
   <v>      -0.25000000       0.41666667       0.12500000 </v>
   <v>      -0.16666667       0.41666667       0.12500000 </v>
   <v>      -0.08333333       0.41666667       0.12500000 </v>
   <v>       0.50000000       0.50000000       0.12500000 </v>
   <v>      -0.41666667       0.50000000       0.12500000 </v>
   <v>      -0.33333333       0.50000000       0.12500000 </v>
   <v>      -0.25000000       0.50000000       0.12500000 </v>
   <v>      -0.16666667       0.50000000       0.12500000 </v>
   <v>      -0.08333333       0.50000000       0.12500000 </v>
   <v>      -0.41666667      -0.41666667       0.12500000 </v>
   <v>      -0.33333333      -0.41666667       0.12500000 </v>
   <v>      -0.25000000      -0.41666667       0.12500000 </v>
   <v>      -0.16666667      -0.41666667       0.12500000 </v>
   <v>      -0.08333333      -0.41666667       0.12500000 </v>
   <v>      -0.33333333      -0.33333333       0.12500000 </v>
   <v>      -0.25000000      -0.33333333       0.12500000 </v>
   <v>      -0.16666667      -0.33333333       0.12500000 </v>
   <v>      -0.08333333      -0.33333333       0.12500000 </v>
   <v>      -0.25000000      -0.25000000       0.12500000 </v>
   <v>      -0.16666667      -0.25000000       0.12500000 </v>
   <v>      -0.08333333      -0.25000000       0.12500000 </v>
   <v>      -0.16666667      -0.16666667       0.12500000 </v>
   <v>      -0.08333333      -0.16666667       0.12500000 </v>
   <v>      -0.08333333      -0.08333333       0.12500000 </v>
   <v>       0.16666667       0.08333333       0.25000000 </v>
   <v>       0.33333333       0.08333333       0.25000000 </v>
   <v>       0.41666667       0.08333333       0.25000000 </v>
   <v>       0.50000000       0.08333333       0.25000000 </v>
   <v>      -0.41666667       0.08333333       0.25000000 </v>
   <v>      -0.33333333       0.08333333       0.25000000 </v>
   <v>      -0.25000000       0.08333333       0.25000000 </v>
   <v>      -0.16666667       0.08333333       0.25000000 </v>
   <v>      -0.08333333       0.08333333       0.25000000 </v>
   <v>       0.41666667       0.33333333       0.25000000 </v>
   <v>      -0.41666667       0.33333333       0.25000000 </v>
   <v>      -0.33333333       0.33333333       0.25000000 </v>
   <v>      -0.25000000       0.33333333       0.25000000 </v>
   <v>      -0.16666667       0.33333333       0.25000000 </v>
   <v>      -0.08333333       0.33333333       0.25000000 </v>
   <v>      -0.41666667       0.41666667       0.25000000 </v>
   <v>      -0.33333333       0.41666667       0.25000000 </v>
   <v>      -0.25000000       0.41666667       0.25000000 </v>
   <v>      -0.16666667       0.41666667       0.25000000 </v>
   <v>      -0.25000000       0.50000000       0.25000000 </v>
   <v>      -0.33333333      -0.41666667       0.25000000 </v>
   <v>       0.00000000       0.00000000       0.37500000 </v>
   <v>       0.08333333       0.00000000       0.37500000 </v>
   <v>       0.16666667      -0.00000000       0.37500000 </v>
   <v>       0.33333333       0.00000000       0.37500000 </v>
   <v>       0.41666667      -0.00000000       0.37500000 </v>
   <v>      -0.41666667       0.00000000       0.37500000 </v>
   <v>      -0.33333333      -0.00000000       0.37500000 </v>
   <v>      -0.25000000       0.00000000       0.37500000 </v>
   <v>      -0.16666667      -0.00000000       0.37500000 </v>
   <v>      -0.08333333      -0.00000000       0.37500000 </v>
   <v>       0.08333333       0.08333333       0.37500000 </v>
   <v>       0.16666667       0.08333333       0.37500000 </v>
   <v>       0.33333333       0.08333333       0.37500000 </v>
   <v>       0.41666667       0.08333333       0.37500000 </v>
   <v>      -0.41666667       0.08333333       0.37500000 </v>
   <v>      -0.33333333       0.08333333       0.37500000 </v>
   <v>      -0.25000000       0.08333333       0.37500000 </v>
   <v>      -0.16666667       0.08333333       0.37500000 </v>
   <v>      -0.08333333       0.08333333       0.37500000 </v>
   <v>       0.16666667       0.16666667       0.37500000 </v>
   <v>       0.33333333       0.16666667       0.37500000 </v>
   <v>       0.41666667       0.16666667       0.37500000 </v>
   <v>      -0.41666667       0.16666667       0.37500000 </v>
   <v>      -0.33333333       0.16666667       0.37500000 </v>
   <v>      -0.25000000       0.16666667       0.37500000 </v>
   <v>      -0.16666667       0.16666667       0.37500000 </v>
   <v>      -0.08333333       0.16666667       0.37500000 </v>
   <v>       0.33333333       0.33333333       0.37500000 </v>
   <v>       0.41666667       0.33333333       0.37500000 </v>
   <v>      -0.41666667       0.33333333       0.37500000 </v>
   <v>      -0.33333333       0.33333333       0.37500000 </v>
   <v>      -0.25000000       0.33333333       0.37500000 </v>
   <v>      -0.16666667       0.33333333       0.37500000 </v>
   <v>      -0.08333333       0.33333333       0.37500000 </v>
   <v>       0.41666667       0.41666667       0.37500000 </v>
   <v>      -0.41666667       0.41666667       0.37500000 </v>
   <v>      -0.33333333       0.41666667       0.37500000 </v>
   <v>      -0.16666667       0.41666667       0.37500000 </v>
   <v>      -0.08333333       0.41666667       0.37500000 </v>
   <v>      -0.41666667      -0.41666667       0.37500000 </v>
   <v>      -0.33333333      -0.41666667       0.37500000 </v>
   <v>      -0.16666667      -0.41666667       0.37500000 </v>
   <v>      -0.08333333      -0.41666667       0.37500000 </v>
   <v>      -0.33333333      -0.33333333       0.37500000 </v>
   <v>      -0.16666667      -0.33333333       0.37500000 </v>
   <v>      -0.08333333      -0.33333333       0.37500000 </v>
   <v>      -0.16666667      -0.25000000       0.37500000 </v>
   <v>      -0.16666667      -0.16666667       0.37500000 </v>
   <v>      -0.08333333      -0.16666667       0.37500000 </v>
   <v>      -0.08333333      -0.08333333       0.37500000 </v>
   <v>       0.16666667       0.08333333       0.50000000 </v>
   <v>       0.41666667       0.08333333       0.50000000 </v>
   <v>      -0.41666667       0.08333333       0.50000000 </v>
   <v>      -0.33333333       0.08333333       0.50000000 </v>
   <v>      -0.08333333       0.08333333       0.50000000 </v>
   <v>       0.33333333       0.16666667       0.50000000 </v>
   <v>      -0.33333333       0.16666667       0.50000000 </v>
   <v>      -0.16666667       0.16666667       0.50000000 </v>
  </varray>
  <varray name="weights" >
   <v>       0.00086806 </v>
   <v>       0.00347222 </v>
   <v>       0.00347222 </v>
   <v>       0.00694444 </v>
   <v>       0.00347222 </v>
   <v>       0.00347222 </v>
   <v>       0.00347222 </v>
   <v>       0.00173611 </v>
   <v>       0.00347222 </v>
   <v>       0.01041667 </v>
   <v>       0.00694444 </v>
   <v>       0.00347222 </v>
   <v>       0.01041667 </v>
   <v>       0.00694444 </v>
   <v>       0.00347222 </v>
   <v>       0.01041667 </v>
   <v>       0.00694444 </v>
   <v>       0.00173611 </v>
   <v>       0.00173611 </v>
   <v>       0.01041667 </v>
   <v>       0.00347222 </v>
   <v>       0.00694444 </v>
   <v>       0.01041667 </v>
   <v>       0.00347222 </v>
   <v>       0.00694444 </v>
   <v>       0.01041667 </v>
   <v>       0.00173611 </v>
   <v>       0.00520833 </v>
   <v>       0.01041667 </v>
   <v>       0.01041667 </v>
   <v>       0.02083333 </v>
   <v>       0.01041667 </v>
   <v>       0.01041667 </v>
   <v>       0.01041667 </v>
   <v>       0.00173611 </v>
   <v>       0.00347222 </v>
   <v>       0.01041667 </v>
   <v>       0.00694444 </v>
   <v>       0.00173611 </v>
   <v>       0.00173611 </v>
   <v>       0.01041667 </v>
   <v>       0.00173611 </v>
   <v>       0.00260417 </v>
   <v>       0.00173611 </v>
   <v>       0.00347222 </v>
   <v>       0.00347222 </v>
   <v>       0.00520833 </v>
   <v>       0.00347222 </v>
   <v>       0.00347222 </v>
   <v>       0.00520833 </v>
   <v>       0.00347222 </v>
   <v>       0.00347222 </v>
   <v>       0.00520833 </v>
   <v>       0.00347222 </v>
   <v>       0.00347222 </v>
   <v>       0.00173611 </v>
   <v>       0.00347222 </v>
   <v>       0.00694444 </v>
   <v>       0.00347222 </v>
   <v>       0.00347222 </v>
   <v>       0.00694444 </v>
   <v>       0.00347222 </v>
   <v>       0.00347222 </v>
   <v>       0.00694444 </v>
   <v>       0.00347222 </v>
   <v>       0.00347222 </v>
   <v>       0.00173611 </v>
   <v>       0.00347222 </v>
   <v>       0.00347222 </v>
   <v>       0.00694444 </v>
   <v>       0.00347222 </v>
   <v>       0.00347222 </v>
   <v>       0.00694444 </v>
   <v>       0.00347222 </v>
   <v>       0.00347222 </v>
   <v>       0.00694444 </v>
   <v>       0.00694444 </v>
   <v>       0.01041667 </v>
   <v>       0.00694444 </v>
   <v>       0.00173611 </v>
   <v>       0.00347222 </v>
   <v>       0.00694444 </v>
   <v>       0.00347222 </v>
   <v>       0.00347222 </v>
   <v>       0.00694444 </v>
   <v>       0.00347222 </v>
   <v>       0.00347222 </v>
   <v>       0.00173611 </v>
   <v>       0.00694444 </v>
   <v>       0.00347222 </v>
   <v>       0.00347222 </v>
   <v>       0.00694444 </v>
   <v>       0.00347222 </v>
   <v>       0.00347222 </v>
   <v>       0.00520833 </v>
   <v>       0.00694444 </v>
   <v>       0.00694444 </v>
   <v>       0.01041667 </v>
   <v>       0.00694444 </v>
   <v>       0.00694444 </v>
   <v>       0.00173611 </v>
   <v>       0.00347222 </v>
   <v>       0.00694444 </v>
   <v>       0.00347222 </v>
   <v>       0.00347222 </v>
   <v>       0.00173611 </v>
   <v>       0.00694444 </v>
   <v>       0.00347222 </v>
   <v>       0.00347222 </v>
   <v>       0.00520833 </v>
   <v>       0.00694444 </v>
   <v>       0.00694444 </v>
   <v>       0.00173611 </v>
   <v>       0.00347222 </v>
   <v>       0.00173611 </v>
   <v>       0.00347222 </v>
   <v>       0.00694444 </v>
   <v>       0.00694444 </v>
   <v>       0.02083333 </v>
   <v>       0.01388889 </v>
   <v>       0.00694444 </v>
   <v>       0.02083333 </v>
   <v>       0.00694444 </v>
   <v>       0.00694444 </v>
   <v>       0.00694444 </v>
   <v>       0.00694444 </v>
   <v>       0.00694444 </v>
   <v>       0.02083333 </v>
   <v>       0.01388889 </v>
   <v>       0.00347222 </v>
   <v>       0.00694444 </v>
   <v>       0.00694444 </v>
   <v>       0.02083333 </v>
   <v>       0.00347222 </v>
   <v>       0.00520833 </v>
   <v>       0.00347222 </v>
   <v>       0.00173611 </v>
   <v>       0.00347222 </v>
   <v>       0.00347222 </v>
   <v>       0.00347222 </v>
   <v>       0.00347222 </v>
   <v>       0.00347222 </v>
   <v>       0.00347222 </v>
   <v>       0.00520833 </v>
   <v>       0.00347222 </v>
   <v>       0.00347222 </v>
   <v>       0.00173611 </v>
   <v>       0.00347222 </v>
   <v>       0.00347222 </v>
   <v>       0.00347222 </v>
   <v>       0.00347222 </v>
   <v>       0.00347222 </v>
   <v>       0.00694444 </v>
   <v>       0.00347222 </v>
   <v>       0.00347222 </v>
   <v>       0.00173611 </v>
   <v>       0.00347222 </v>
   <v>       0.00347222 </v>
   <v>       0.00347222 </v>
   <v>       0.00347222 </v>
   <v>       0.00694444 </v>
   <v>       0.00347222 </v>
   <v>       0.00347222 </v>
   <v>       0.00173611 </v>
   <v>       0.00347222 </v>
   <v>       0.00347222 </v>
   <v>       0.00347222 </v>
   <v>       0.00694444 </v>
   <v>       0.00347222 </v>
   <v>       0.00347222 </v>
   <v>       0.00173611 </v>
   <v>       0.00347222 </v>
   <v>       0.00347222 </v>
   <v>       0.00347222 </v>
   <v>       0.00347222 </v>
   <v>       0.00173611 </v>
   <v>       0.00347222 </v>
   <v>       0.00347222 </v>
   <v>       0.00347222 </v>
   <v>       0.00173611 </v>
   <v>       0.00347222 </v>
   <v>       0.00347222 </v>
   <v>       0.00694444 </v>
   <v>       0.00173611 </v>
   <v>       0.00347222 </v>
   <v>       0.00173611 </v>
   <v>       0.00694444 </v>
   <v>       0.00347222 </v>
   <v>       0.00347222 </v>
   <v>       0.00694444 </v>
   <v>       0.00347222 </v>
   <v>       0.00347222 </v>
   <v>       0.00347222 </v>
   <v>       0.00347222 </v>
  </varray>
  <varray name="tetrahedronlist"  type="int" >
   <v type="int" >        4        1        2        8       56 </v>
   <v type="int" >        4        1        2       45       56 </v>
   <v type="int" >        4        1       44       45       56 </v>
   <v type="int" >        4        2        8        9       57 </v>
   <v type="int" >        4        2        3        9       57 </v>
   <v type="int" >        4        2        3       46       57 </v>
   <v type="int" >        4        2        8       56       57 </v>
   <v type="int" >        4        2       45       56       57 </v>
   <v type="int" >        4        2       45       46       57 </v>
   <v type="int" >        4        3        9       10       58 </v>
   <v type="int" >        4        3        4       10       58 </v>
   <v type="int" >        4        3        4       47       58 </v>
   <v type="int" >        4        3        9       57       58 </v>
   <v type="int" >        4        3       46       57       58 </v>
   <v type="int" >        4        3       46       47       58 </v>
   <v type="int" >        4        4       10       11       59 </v>
   <v type="int" >        4        4        5       11       59 </v>
   <v type="int" >        4        4        5       48       59 </v>
   <v type="int" >        4        4       10       58       59 </v>
   <v type="int" >        4        4       47       58       59 </v>
   <v type="int" >        4        4       47       48       59 </v>
   <v type="int" >        4        5       11       12       60 </v>
   <v type="int" >        4        5        6       12       60 </v>
   <v type="int" >        4        5        6       49       60 </v>
   <v type="int" >        4        5       11       59       60 </v>
   <v type="int" >        4        5       48       59       60 </v>
   <v type="int" >        4        5       48       49       60 </v>
   <v type="int" >        4        6       12       13       61 </v>
   <v type="int" >        4        6        7       13       61 </v>
   <v type="int" >        4        6        7       50       61 </v>
   <v type="int" >        4        6       12       60       61 </v>
   <v type="int" >        4        6       49       60       61 </v>
   <v type="int" >        4        6       49       50       61 </v>
   <v type="int" >        4        7       13       14       62 </v>
   <v type="int" >        4        6        7       14       62 </v>
   <v type="int" >        4        6        7       51       62 </v>
   <v type="int" >        4        7       13       61       62 </v>
   <v type="int" >        4        7       50       61       62 </v>
   <v type="int" >        4        7       50       51       62 </v>
   <v type="int" >        4        6       14       15       63 </v>
   <v type="int" >        4        5        6       15       63 </v>
   <v type="int" >        4        5        6       52       63 </v>
   <v type="int" >        4        6       14       62       63 </v>
   <v type="int" >        4        6       51       62       63 </v>
   <v type="int" >        4        6       51       52       63 </v>
   <v type="int" >        4        5       15       16       64 </v>
   <v type="int" >        4        4        5       16       64 </v>
   <v type="int" >        4        4        5       53       64 </v>
   <v type="int" >        4        5       15       63       64 </v>
   <v type="int" >        4        5       52       63       64 </v>
   <v type="int" >        4        5       52       53       64 </v>
   <v type="int" >        4        4       16       17       65 </v>
   <v type="int" >        4        3        4       17       65 </v>
   <v type="int" >        4        3        4       54       65 </v>
   <v type="int" >        4        4       16       64       65 </v>
   <v type="int" >        4        4       53       64       65 </v>
   <v type="int" >        4        4       53       54       65 </v>
   <v type="int" >        4        3       17       18       66 </v>
   <v type="int" >        4        2        3       18       66 </v>
   <v type="int" >        4        2        3       55       66 </v>
   <v type="int" >        4        3       17       65       66 </v>
   <v type="int" >        4        3       54       65       66 </v>
   <v type="int" >        4        3       54       55       66 </v>
   <v type="int" >        4        2        2       18       45 </v>
   <v type="int" >        4        1        2        2       45 </v>
   <v type="int" >        4        1        2       44       45 </v>
   <v type="int" >        4        2       18       45       66 </v>
   <v type="int" >        4        2       45       55       66 </v>
   <v type="int" >        4        2       44       45       55 </v>
   <v type="int" >        4        8        9       19       67 </v>
   <v type="int" >        4        8        9       57       67 </v>
   <v type="int" >        4        8       56       57       67 </v>
   <v type="int" >        4        9       19       20       58 </v>
   <v type="int" >        4        9       10       20       58 </v>
   <v type="int" >        4        9       10       58       58 </v>
   <v type="int" >        4        9       19       58       67 </v>
   <v type="int" >        4        9       57       58       67 </v>
   <v type="int" >        4        9       57       58       58 </v>
   <v type="int" >        4       10       20       21       68 </v>
   <v type="int" >        4       10       11       21       68 </v>
   <v type="int" >        4       10       11       59       68 </v>
   <v type="int" >        4       10       20       58       68 </v>
   <v type="int" >        4       10       58       58       68 </v>
   <v type="int" >        4       10       58       59       68 </v>
   <v type="int" >        4       11       21       22       69 </v>
   <v type="int" >        4       11       12       22       69 </v>
   <v type="int" >        4       11       12       60       69 </v>
   <v type="int" >        4       11       21       68       69 </v>
   <v type="int" >        4       11       59       68       69 </v>
   <v type="int" >        4       11       59       60       69 </v>
   <v type="int" >        4       12       22       23       70 </v>
   <v type="int" >        4       12       13       23       70 </v>
   <v type="int" >        4       12       13       61       70 </v>
   <v type="int" >        4       12       22       69       70 </v>
   <v type="int" >        4       12       60       69       70 </v>
   <v type="int" >        4       12       60       61       70 </v>
   <v type="int" >        4       13       23       24       71 </v>
   <v type="int" >        4       13       14       24       71 </v>
   <v type="int" >        4       13       14       62       71 </v>
   <v type="int" >        4       13       23       70       71 </v>
   <v type="int" >        4       13       61       70       71 </v>
   <v type="int" >        4       13       61       62       71 </v>
   <v type="int" >        4       14       24       25       72 </v>
   <v type="int" >        4       14       15       25       72 </v>
   <v type="int" >        4       14       15       63       72 </v>
   <v type="int" >        4       14       24       71       72 </v>
   <v type="int" >        4       14       62       71       72 </v>
   <v type="int" >        4       14       62       63       72 </v>
   <v type="int" >        4       15       25       26       73 </v>
   <v type="int" >        4       15       16       26       73 </v>
   <v type="int" >        4       15       16       64       73 </v>
   <v type="int" >        4       15       25       72       73 </v>
   <v type="int" >        4       15       63       72       73 </v>
   <v type="int" >        4       15       63       64       73 </v>
   <v type="int" >        4       16       26       27       74 </v>
   <v type="int" >        4       16       17       27       74 </v>
   <v type="int" >        4       16       17       65       74 </v>
   <v type="int" >        4       16       26       73       74 </v>
   <v type="int" >        4       16       64       73       74 </v>
   <v type="int" >        4       16       64       65       74 </v>
   <v type="int" >        4       17       17       27       75 </v>
   <v type="int" >        4       17       17       18       75 </v>
   <v type="int" >        4       17       18       66       75 </v>
   <v type="int" >        4       17       27       74       75 </v>
   <v type="int" >        4       17       65       74       75 </v>
   <v type="int" >        4       17       65       66       75 </v>
   <v type="int" >        4        3       17       18       46 </v>
   <v type="int" >        4        2        3       18       46 </v>
   <v type="int" >        4        2       18       45       46 </v>
   <v type="int" >        4       17       18       46       75 </v>
   <v type="int" >        4       18       46       66       75 </v>
   <v type="int" >        4       18       45       46       66 </v>
   <v type="int" >        4       19       20       28       47 </v>
   <v type="int" >        4       19       20       47       58 </v>
   <v type="int" >        4       19       47       58       67 </v>
   <v type="int" >        4       20       28       29       76 </v>
   <v type="int" >        4       20       21       29       76 </v>
   <v type="int" >        4       20       21       68       76 </v>
   <v type="int" >        4       20       28       47       76 </v>
   <v type="int" >        4       20       47       58       76 </v>
   <v type="int" >        4       20       58       68       76 </v>
   <v type="int" >        4       21       29       30       77 </v>
   <v type="int" >        4       21       22       30       77 </v>
   <v type="int" >        4       21       22       69       77 </v>
   <v type="int" >        4       21       29       76       77 </v>
   <v type="int" >        4       21       68       76       77 </v>
   <v type="int" >        4       21       68       69       77 </v>
   <v type="int" >        4       22       30       31       78 </v>
   <v type="int" >        4       22       23       31       78 </v>
   <v type="int" >        4       22       23       70       78 </v>
   <v type="int" >        4       22       30       77       78 </v>
   <v type="int" >        4       22       69       77       78 </v>
   <v type="int" >        4       22       69       70       78 </v>
   <v type="int" >        4       23       31       32       79 </v>
   <v type="int" >        4       23       24       32       79 </v>
   <v type="int" >        4       23       24       71       79 </v>
   <v type="int" >        4       23       31       78       79 </v>
   <v type="int" >        4       23       70       78       79 </v>
   <v type="int" >        4       23       70       71       79 </v>
   <v type="int" >        4       24       32       33       79 </v>
   <v type="int" >        4       24       25       33       79 </v>
   <v type="int" >        4       24       25       72       79 </v>
   <v type="int" >        4       24       32       79       79 </v>
   <v type="int" >        4       24       71       79       79 </v>
   <v type="int" >        4       24       71       72       79 </v>
   <v type="int" >        4       25       33       34       78 </v>
   <v type="int" >        4       25       26       34       78 </v>
   <v type="int" >        4       25       26       73       78 </v>
   <v type="int" >        4       25       33       78       79 </v>
   <v type="int" >        4       25       72       78       79 </v>
   <v type="int" >        4       25       72       73       78 </v>
   <v type="int" >        4       26       26       34       77 </v>
   <v type="int" >        4       26       26       27       77 </v>
   <v type="int" >        4       26       27       74       77 </v>
   <v type="int" >        4       26       34       77       78 </v>
   <v type="int" >        4       26       73       77       78 </v>
   <v type="int" >        4       26       73       74       77 </v>
   <v type="int" >        4       16       26       27       76 </v>
   <v type="int" >        4       16       17       27       76 </v>
   <v type="int" >        4       17       27       75       76 </v>
   <v type="int" >        4       26       27       76       77 </v>
   <v type="int" >        4       27       74       76       77 </v>
   <v type="int" >        4       27       74       75       76 </v>
   <v type="int" >        4        4       16       17       47 </v>
   <v type="int" >        4        3        4       17       47 </v>
   <v type="int" >        4        3       17       46       47 </v>
   <v type="int" >        4       16       17       47       76 </v>
   <v type="int" >        4       17       47       75       76 </v>
   <v type="int" >        4       17       46       47       75 </v>
   <v type="int" >        4       28       29       35       80 </v>
   <v type="int" >        4       28       29       76       80 </v>
   <v type="int" >        4       28       47       76       80 </v>
   <v type="int" >        4       29       35       36       81 </v>
   <v type="int" >        4       29       30       36       81 </v>
   <v type="int" >        4       29       30       77       81 </v>
   <v type="int" >        4       29       35       80       81 </v>
   <v type="int" >        4       29       76       80       81 </v>
   <v type="int" >        4       29       76       77       81 </v>
   <v type="int" >        4       30       36       37       82 </v>
   <v type="int" >        4       30       31       37       82 </v>
   <v type="int" >        4       30       31       78       82 </v>
   <v type="int" >        4       30       36       81       82 </v>
   <v type="int" >        4       30       77       81       82 </v>
   <v type="int" >        4       30       77       78       82 </v>
   <v type="int" >        4       31       37       38       83 </v>
   <v type="int" >        4       31       32       38       83 </v>
   <v type="int" >        4       31       32       79       83 </v>
   <v type="int" >        4       31       37       82       83 </v>
   <v type="int" >        4       31       78       82       83 </v>
   <v type="int" >        4       31       78       79       83 </v>
   <v type="int" >        4       32       38       39       84 </v>
   <v type="int" >        4       32       33       39       84 </v>
   <v type="int" >        4       32       33       79       84 </v>
   <v type="int" >        4       32       38       83       84 </v>
   <v type="int" >        4       32       79       83       84 </v>
   <v type="int" >        4       32       79       79       84 </v>
   <v type="int" >        4       33       33       39       85 </v>
   <v type="int" >        4       33       33       34       85 </v>
   <v type="int" >        4       33       34       78       85 </v>
   <v type="int" >        4       33       39       84       85 </v>
   <v type="int" >        4       33       79       84       85 </v>
   <v type="int" >        4       33       78       79       85 </v>
   <v type="int" >        4       25       33       34       86 </v>
   <v type="int" >        4       25       26       34       86 </v>
   <v type="int" >        4       26       34       77       86 </v>
   <v type="int" >        4       33       34       85       86 </v>
   <v type="int" >        4       34       78       85       86 </v>
   <v type="int" >        4       34       77       78       86 </v>
   <v type="int" >        4       15       25       26       87 </v>
   <v type="int" >        4       15       16       26       87 </v>
   <v type="int" >        4       16       26       76       87 </v>
   <v type="int" >        4       25       26       86       87 </v>
   <v type="int" >        4       26       77       86       87 </v>
   <v type="int" >        4       26       76       77       87 </v>
   <v type="int" >        4        5       15       16       48 </v>
   <v type="int" >        4        4        5       16       48 </v>
   <v type="int" >        4        4       16       47       48 </v>
   <v type="int" >        4       15       16       48       87 </v>
   <v type="int" >        4       16       48       76       87 </v>
   <v type="int" >        4       16       47       48       76 </v>
   <v type="int" >        4       35       36       40       88 </v>
   <v type="int" >        4       35       36       81       88 </v>
   <v type="int" >        4       35       80       81       88 </v>
   <v type="int" >        4       36       40       41       89 </v>
   <v type="int" >        4       36       37       41       89 </v>
   <v type="int" >        4       36       37       82       89 </v>
   <v type="int" >        4       36       40       88       89 </v>
   <v type="int" >        4       36       81       88       89 </v>
   <v type="int" >        4       36       81       82       89 </v>
   <v type="int" >        4       37       41       42       90 </v>
   <v type="int" >        4       37       38       42       90 </v>
   <v type="int" >        4       37       38       83       90 </v>
   <v type="int" >        4       37       41       89       90 </v>
   <v type="int" >        4       37       82       89       90 </v>
   <v type="int" >        4       37       82       83       90 </v>
   <v type="int" >        4       38       38       42       91 </v>
   <v type="int" >        4       38       38       39       91 </v>
   <v type="int" >        4       38       39       84       91 </v>
   <v type="int" >        4       38       42       90       91 </v>
   <v type="int" >        4       38       83       90       91 </v>
   <v type="int" >        4       38       83       84       91 </v>
   <v type="int" >        4       32       38       39       92 </v>
   <v type="int" >        4       32       33       39       92 </v>
   <v type="int" >        4       33       39       85       92 </v>
   <v type="int" >        4       38       39       91       92 </v>
   <v type="int" >        4       39       84       91       92 </v>
   <v type="int" >        4       39       84       85       92 </v>
   <v type="int" >        4       24       32       33       93 </v>
   <v type="int" >        4       24       25       33       93 </v>
   <v type="int" >        4       25       33       86       93 </v>
   <v type="int" >        4       32       33       92       93 </v>
   <v type="int" >        4       33       85       92       93 </v>
   <v type="int" >        4       33       85       86       93 </v>
   <v type="int" >        4       14       24       25       94 </v>
   <v type="int" >        4       14       15       25       94 </v>
   <v type="int" >        4       15       25       87       94 </v>
   <v type="int" >        4       24       25       93       94 </v>
   <v type="int" >        4       25       86       93       94 </v>
   <v type="int" >        4       25       86       87       94 </v>
   <v type="int" >        4        6       14       15       49 </v>
   <v type="int" >        4        5        6       15       49 </v>
   <v type="int" >        4        5       15       48       49 </v>
   <v type="int" >        4       14       15       49       94 </v>
   <v type="int" >        4       15       49       87       94 </v>
   <v type="int" >        4       15       48       49       87 </v>
   <v type="int" >        4       40       41       43       95 </v>
   <v type="int" >        4       40       41       89       95 </v>
   <v type="int" >        4       40       88       89       95 </v>
   <v type="int" >        8       41       41       43       96 </v>
   <v type="int" >        4       41       41       42       96 </v>
   <v type="int" >        4       41       42       90       96 </v>
   <v type="int" >        8       41       43       95       96 </v>
   <v type="int" >        4       41       89       95       96 </v>
   <v type="int" >        4       41       89       90       96 </v>
   <v type="int" >        4       37       41       42       97 </v>
   <v type="int" >        4       37       38       42       97 </v>
   <v type="int" >        4       38       42       91       97 </v>
   <v type="int" >        4       41       42       96       97 </v>
   <v type="int" >        4       42       90       96       97 </v>
   <v type="int" >        4       42       90       91       97 </v>
   <v type="int" >        4       31       37       38       98 </v>
   <v type="int" >        4       31       32       38       98 </v>
   <v type="int" >        4       32       38       92       98 </v>
   <v type="int" >        4       37       38       97       98 </v>
   <v type="int" >        4       38       91       97       98 </v>
   <v type="int" >        4       38       91       92       98 </v>
   <v type="int" >        4       23       31       32       99 </v>
   <v type="int" >        4       23       24       32       99 </v>
   <v type="int" >        4       24       32       93       99 </v>
   <v type="int" >        4       31       32       98       99 </v>
   <v type="int" >        4       32       92       98       99 </v>
   <v type="int" >        4       32       92       93       99 </v>
   <v type="int" >        4       13       23       24      100 </v>
   <v type="int" >        4       13       14       24      100 </v>
   <v type="int" >        4       14       24       94      100 </v>
   <v type="int" >        4       23       24       99      100 </v>
   <v type="int" >        4       24       93       99      100 </v>
   <v type="int" >        4       24       93       94      100 </v>
   <v type="int" >        8        7       13       14       50 </v>
   <v type="int" >        4        6        7       14       50 </v>
   <v type="int" >        4        6       14       49       50 </v>
   <v type="int" >        8       13       14       50      100 </v>
   <v type="int" >        4       14       50       94      100 </v>
   <v type="int" >        4       14       49       50       94 </v>
   <v type="int" >        4       40       41       43      101 </v>
   <v type="int" >        4       41       43       96      101 </v>
   <v type="int" >        4       43       95       96      101 </v>
   <v type="int" >        4       36       40       41      102 </v>
   <v type="int" >        4       36       37       41      102 </v>
   <v type="int" >        4       37       41       97      102 </v>
   <v type="int" >        4       40       41      101      102 </v>
   <v type="int" >        4       41       96      101      102 </v>
   <v type="int" >        4       41       96       97      102 </v>
   <v type="int" >        4       30       36       37      103 </v>
   <v type="int" >        4       30       31       37      103 </v>
   <v type="int" >        4       31       37       98      103 </v>
   <v type="int" >        4       36       37      102      103 </v>
   <v type="int" >        4       37       97      102      103 </v>
   <v type="int" >        4       37       97       98      103 </v>
   <v type="int" >        4       22       30       31      104 </v>
   <v type="int" >        4       22       23       31      104 </v>
   <v type="int" >        4       23       31       99      104 </v>
   <v type="int" >        4       30       31      103      104 </v>
   <v type="int" >        4       31       98      103      104 </v>
   <v type="int" >        4       31       98       99      104 </v>
   <v type="int" >        4       12       22       23      105 </v>
   <v type="int" >        4       12       13       23      105 </v>
   <v type="int" >        4       13       23      100      105 </v>
   <v type="int" >        4       22       23      104      105 </v>
   <v type="int" >        4       23       99      104      105 </v>
   <v type="int" >        4       23       99      100      105 </v>
   <v type="int" >        4        6       12       13       51 </v>
   <v type="int" >        4        6        7       13       51 </v>
   <v type="int" >        4        7       13       50       51 </v>
   <v type="int" >        4       12       13       51      105 </v>
   <v type="int" >        4       13       51      100      105 </v>
   <v type="int" >        4       13       50       51      100 </v>
   <v type="int" >        4       35       36       40      106 </v>
   <v type="int" >        4       36       40      102      106 </v>
   <v type="int" >        4       40      101      102      106 </v>
   <v type="int" >        4       29       35       36      107 </v>
   <v type="int" >        4       29       30       36      107 </v>
   <v type="int" >        4       30       36      103      107 </v>
   <v type="int" >        4       35       36      106      107 </v>
   <v type="int" >        4       36      102      106      107 </v>
   <v type="int" >        4       36      102      103      107 </v>
   <v type="int" >        4       21       29       30      108 </v>
   <v type="int" >        4       21       22       30      108 </v>
   <v type="int" >        4       22       30      104      108 </v>
   <v type="int" >        4       29       30      107      108 </v>
   <v type="int" >        4       30      103      107      108 </v>
   <v type="int" >        4       30      103      104      108 </v>
   <v type="int" >        4       11       21       22      109 </v>
   <v type="int" >        4       11       12       22      109 </v>
   <v type="int" >        4       12       22      105      109 </v>
   <v type="int" >        4       21       22      108      109 </v>
   <v type="int" >        4       22      104      108      109 </v>
   <v type="int" >        4       22      104      105      109 </v>
   <v type="int" >        4        5       11       12       52 </v>
   <v type="int" >        4        5        6       12       52 </v>
   <v type="int" >        4        6       12       51       52 </v>
   <v type="int" >        4       11       12       52      109 </v>
   <v type="int" >        4       12       52      105      109 </v>
   <v type="int" >        4       12       51       52      105 </v>
   <v type="int" >        4       28       29       35      110 </v>
   <v type="int" >        4       29       35      107      110 </v>
   <v type="int" >        4       35      106      107      110 </v>
   <v type="int" >        4       20       28       29      111 </v>
   <v type="int" >        4       20       21       29      111 </v>
   <v type="int" >        4       21       29      108      111 </v>
   <v type="int" >        4       28       29      110      111 </v>
   <v type="int" >        4       29      107      110      111 </v>
   <v type="int" >        4       29      107      108      111 </v>
   <v type="int" >        4       10       20       21      112 </v>
   <v type="int" >        4       10       11       21      112 </v>
   <v type="int" >        4       11       21      109      112 </v>
   <v type="int" >        4       20       21      111      112 </v>
   <v type="int" >        4       21      108      111      112 </v>
   <v type="int" >        4       21      108      109      112 </v>
   <v type="int" >        4        4       10       11       53 </v>
   <v type="int" >        4        4        5       11       53 </v>
   <v type="int" >        4        5       11       52       53 </v>
   <v type="int" >        4       10       11       53      112 </v>
   <v type="int" >        4       11       53      109      112 </v>
   <v type="int" >        4       11       52       53      109 </v>
   <v type="int" >        4       19       20       28      113 </v>
   <v type="int" >        4       20       28      111      113 </v>
   <v type="int" >        4       28      110      111      113 </v>
   <v type="int" >        4        9       19       20      114 </v>
   <v type="int" >        4        9       10       20      114 </v>
   <v type="int" >        4       10       20      112      114 </v>
   <v type="int" >        4       19       20      113      114 </v>
   <v type="int" >        4       20      111      113      114 </v>
   <v type="int" >        4       20      111      112      114 </v>
   <v type="int" >        4        3        9       10       54 </v>
   <v type="int" >        4        3        4       10       54 </v>
   <v type="int" >        4        4       10       53       54 </v>
   <v type="int" >        4        9       10       54      114 </v>
   <v type="int" >        4       10       54      112      114 </v>
   <v type="int" >        4       10       53       54      112 </v>
   <v type="int" >        4        8        9       19      115 </v>
   <v type="int" >        4        9       19      114      115 </v>
   <v type="int" >        4       19      113      114      115 </v>
   <v type="int" >        4        2        8        9       55 </v>
   <v type="int" >        4        2        3        9       55 </v>
   <v type="int" >        4        3        9       54       55 </v>
   <v type="int" >        4        8        9       55      115 </v>
   <v type="int" >        4        9       55      114      115 </v>
   <v type="int" >        4        9       54       55      114 </v>
   <v type="int" >        4        1        2        8       44 </v>
   <v type="int" >        4        2        8       44       55 </v>
   <v type="int" >        4        8       44       55      115 </v>
   <v type="int" >        4       17       44       45       56 </v>
   <v type="int" >        4       10       17       44       45 </v>
   <v type="int" >        4        4       10       17       44 </v>
   <v type="int" >        4       45       56       57      116 </v>
   <v type="int" >        4       45       46       57      116 </v>
   <v type="int" >        4       20       45       46      116 </v>
   <v type="int" >        4       17       45       56      116 </v>
   <v type="int" >        4       10       17       45      116 </v>
   <v type="int" >        4       10       20       45      116 </v>
   <v type="int" >        4       20       46       57       58 </v>
   <v type="int" >        4       20       46       47       58 </v>
   <v type="int" >        4       20       28       46       47 </v>
   <v type="int" >        4       20       46       57      116 </v>
   <v type="int" >        4       20       20       46      116 </v>
   <v type="int" >        4       20       20       28       46 </v>
   <v type="int" >        4       47       58       59      117 </v>
   <v type="int" >        4       47       48       59      117 </v>
   <v type="int" >        4       29       47       48      117 </v>
   <v type="int" >        4       20       47       58      117 </v>
   <v type="int" >        4       20       28       47      117 </v>
   <v type="int" >        4       28       29       47      117 </v>
   <v type="int" >        4       48       59       60      118 </v>
   <v type="int" >        4       48       49       60      118 </v>
   <v type="int" >        4       30       48       49      118 </v>
   <v type="int" >        4       48       59      117      118 </v>
   <v type="int" >        4       29       48      117      118 </v>
   <v type="int" >        4       29       30       48      118 </v>
   <v type="int" >        4       49       60       61      119 </v>
   <v type="int" >        4       49       50       61      119 </v>
   <v type="int" >        4       31       49       50      119 </v>
   <v type="int" >        4       49       60      118      119 </v>
   <v type="int" >        4       30       49      118      119 </v>
   <v type="int" >        4       30       31       49      119 </v>
   <v type="int" >        4       50       61       62      120 </v>
   <v type="int" >        4       50       51       62      120 </v>
   <v type="int" >        4       32       50       51      120 </v>
   <v type="int" >        4       50       61      119      120 </v>
   <v type="int" >        4       31       50      119      120 </v>
   <v type="int" >        4       31       32       50      120 </v>
   <v type="int" >        4       51       62       63      121 </v>
   <v type="int" >        4       51       52       63      121 </v>
   <v type="int" >        4       33       51       52      121 </v>
   <v type="int" >        4       51       62      120      121 </v>
   <v type="int" >        4       32       51      120      121 </v>
   <v type="int" >        4       32       33       51      121 </v>
   <v type="int" >        4       52       63       64      122 </v>
   <v type="int" >        4       52       53       64      122 </v>
   <v type="int" >        4       34       52       53      122 </v>
   <v type="int" >        4       52       63      121      122 </v>
   <v type="int" >        4       33       52      121      122 </v>
   <v type="int" >        4       33       34       52      122 </v>
   <v type="int" >        4       53       64       65      123 </v>
   <v type="int" >        4       53       54       65      123 </v>
   <v type="int" >        4       26       53       54      123 </v>
   <v type="int" >        4       53       64      122      123 </v>
   <v type="int" >        4       34       53      122      123 </v>
   <v type="int" >        4       26       34       53      123 </v>
   <v type="int" >        4       54       65       66      124 </v>
   <v type="int" >        4       54       55       66      124 </v>
   <v type="int" >        4       16       54       55      124 </v>
   <v type="int" >        4       54       65      123      124 </v>
   <v type="int" >        4       26       54      123      124 </v>
   <v type="int" >        4       16       26       54      124 </v>
   <v type="int" >        4       10       45       55       66 </v>
   <v type="int" >        4       10       44       45       55 </v>
   <v type="int" >        4        4       10       44       55 </v>
   <v type="int" >        4       10       55       66      124 </v>
   <v type="int" >        4       10       16       55      124 </v>
   <v type="int" >        4        4       10       16       55 </v>
   <v type="int" >        4       17       56       57       67 </v>
   <v type="int" >        4       17       56       57      116 </v>
   <v type="int" >        4       17       17       56      116 </v>
   <v type="int" >        4       10       57       58       67 </v>
   <v type="int" >        4       10       57       58       58 </v>
   <v type="int" >        4       10       20       57       58 </v>
   <v type="int" >        4       10       17       57       67 </v>
   <v type="int" >        4       10       17       57      116 </v>
   <v type="int" >        4       10       20       57      116 </v>
   <v type="int" >        4       58       58       68      124 </v>
   <v type="int" >        4       58       59       68      124 </v>
   <v type="int" >        4       58       59      117      124 </v>
   <v type="int" >        4       10       58       58      124 </v>
   <v type="int" >        4       10       20       58      124 </v>
   <v type="int" >        4       20       58      117      124 </v>
   <v type="int" >        4       59       68       69      123 </v>
   <v type="int" >        4       59       60       69      123 </v>
   <v type="int" >        4       59       60      118      123 </v>
   <v type="int" >        4       59       68      123      124 </v>
   <v type="int" >        4       59      117      123      124 </v>
   <v type="int" >        4       59      117      118      123 </v>
   <v type="int" >        4       60       69       70      122 </v>
   <v type="int" >        4       60       61       70      122 </v>
   <v type="int" >        4       60       61      119      122 </v>
   <v type="int" >        4       60       69      122      123 </v>
   <v type="int" >        4       60      118      122      123 </v>
   <v type="int" >        4       60      118      119      122 </v>
   <v type="int" >        4       61       70       71      121 </v>
   <v type="int" >        4       61       62       71      121 </v>
   <v type="int" >        4       61       62      120      121 </v>
   <v type="int" >        4       61       70      121      122 </v>
   <v type="int" >        4       61      119      121      122 </v>
   <v type="int" >        4       61      119      120      121 </v>
   <v type="int" >        4       62       71       72      120 </v>
   <v type="int" >        4       62       63       72      120 </v>
   <v type="int" >        4       62       63      120      121 </v>
   <v type="int" >        4       62       71      120      121 </v>
   <v type="int" >        8       62      120      120      121 </v>
   <v type="int" >        4       63       72       73      119 </v>
   <v type="int" >        4       63       64       73      119 </v>
   <v type="int" >        4       63       64      119      122 </v>
   <v type="int" >        4       63       72      119      120 </v>
   <v type="int" >        4       63      119      120      121 </v>
   <v type="int" >        4       63      119      121      122 </v>
   <v type="int" >        4       64       73       74      118 </v>
   <v type="int" >        4       64       65       74      118 </v>
   <v type="int" >        4       64       65      118      123 </v>
   <v type="int" >        4       64       73      118      119 </v>
   <v type="int" >        4       64      118      119      122 </v>
   <v type="int" >        4       64      118      122      123 </v>
   <v type="int" >        4       65       74       75      117 </v>
   <v type="int" >        4       65       66       75      117 </v>
   <v type="int" >        4       65       66      117      124 </v>
   <v type="int" >        4       65       74      117      118 </v>
   <v type="int" >        4       65      117      118      123 </v>
   <v type="int" >        4       65      117      123      124 </v>
   <v type="int" >        4       20       46       66       75 </v>
   <v type="int" >        4       20       45       46       66 </v>
   <v type="int" >        4       10       20       45       66 </v>
   <v type="int" >        4       20       66       75      117 </v>
   <v type="int" >        4       20       66      117      124 </v>
   <v type="int" >        4       10       20       66      124 </v>
   <v type="int" >        4        4       47       58       67 </v>
   <v type="int" >        4        4       10       58       67 </v>
   <v type="int" >        4        4       10       17       67 </v>
   <v type="int" >        4       16       47       58       76 </v>
   <v type="int" >        4       16       58       68       76 </v>
   <v type="int" >        4       16       58       68      124 </v>
   <v type="int" >        4        4       16       47       58 </v>
   <v type="int" >        4        4       10       16       58 </v>
   <v type="int" >        4       10       16       58      124 </v>
   <v type="int" >        4       26       68       76       77 </v>
   <v type="int" >        4       26       68       69       77 </v>
   <v type="int" >        4       26       68       69      123 </v>
   <v type="int" >        4       16       26       68       76 </v>
   <v type="int" >        4       16       26       68      124 </v>
   <v type="int" >        4       26       68      123      124 </v>
   <v type="int" >        4       34       69       77       78 </v>
   <v type="int" >        4       34       69       70       78 </v>
   <v type="int" >        4       34       69       70      122 </v>
   <v type="int" >        4       26       34       69       77 </v>
   <v type="int" >        4       26       34       69      123 </v>
   <v type="int" >        4       34       69      122      123 </v>
   <v type="int" >        4       33       70       78       79 </v>
   <v type="int" >        4       33       70       71       79 </v>
   <v type="int" >        4       33       70       71      121 </v>
   <v type="int" >        4       33       34       70       78 </v>
   <v type="int" >        4       33       34       70      122 </v>
   <v type="int" >        4       33       70      121      122 </v>
   <v type="int" >        4       32       71       79       79 </v>
   <v type="int" >        4       32       71       72       79 </v>
   <v type="int" >        4       32       71       72      120 </v>
   <v type="int" >        4       32       33       71       79 </v>
   <v type="int" >        4       32       33       71      121 </v>
   <v type="int" >        4       32       71      120      121 </v>
   <v type="int" >        4       31       72       78       79 </v>
   <v type="int" >        4       31       72       73       78 </v>
   <v type="int" >        4       31       72       73      119 </v>
   <v type="int" >        4       31       32       72       79 </v>
   <v type="int" >        4       31       32       72      120 </v>
   <v type="int" >        4       31       72      119      120 </v>
   <v type="int" >        4       30       73       77       78 </v>
   <v type="int" >        4       30       73       74       77 </v>
   <v type="int" >        4       30       73       74      118 </v>
   <v type="int" >        4       30       31       73       78 </v>
   <v type="int" >        4       30       31       73      119 </v>
   <v type="int" >        4       30       73      118      119 </v>
   <v type="int" >        4       29       74       76       77 </v>
   <v type="int" >        4       29       74       75       76 </v>
   <v type="int" >        4       29       74       75      117 </v>
   <v type="int" >        4       29       30       74       77 </v>
   <v type="int" >        4       29       30       74      118 </v>
   <v type="int" >        4       29       74      117      118 </v>
   <v type="int" >        4       28       47       75       76 </v>
   <v type="int" >        4       28       46       47       75 </v>
   <v type="int" >        4       20       28       46       75 </v>
   <v type="int" >        4       28       29       75       76 </v>
   <v type="int" >        4       28       29       75      117 </v>
   <v type="int" >        4       20       28       75      117 </v>
   <v type="int" >        4       11       47       76       80 </v>
   <v type="int" >        4       11       16       47       76 </v>
   <v type="int" >        4        4       11       16       47 </v>
   <v type="int" >        4       76       80       81      125 </v>
   <v type="int" >        4       76       77       81      125 </v>
   <v type="int" >        4       26       76       77      125 </v>
   <v type="int" >        4       11       76       80      125 </v>
   <v type="int" >        4       11       16       76      125 </v>
   <v type="int" >        4       16       26       76      125 </v>
   <v type="int" >        4       77       81       82      122 </v>
   <v type="int" >        4       77       78       82      122 </v>
   <v type="int" >        4       34       77       78      122 </v>
   <v type="int" >        4       77       81      122      125 </v>
   <v type="int" >        4       26       77      122      125 </v>
   <v type="int" >        4       26       34       77      122 </v>
   <v type="int" >        4       78       82       83      126 </v>
   <v type="int" >        4       78       79       83      126 </v>
   <v type="int" >        4       33       78       79      126 </v>
   <v type="int" >        4       78       82      122      126 </v>
   <v type="int" >        4       34       78      122      126 </v>
   <v type="int" >        4       33       34       78      126 </v>
   <v type="int" >        4       79       83       84      127 </v>
   <v type="int" >        4       79       79       84      127 </v>
   <v type="int" >        4       32       79       79      127 </v>
   <v type="int" >        4       79       83      126      127 </v>
   <v type="int" >        4       33       79      126      127 </v>
   <v type="int" >        4       32       33       79      127 </v>
   <v type="int" >        4       79       84       85      128 </v>
   <v type="int" >        4       78       79       85      128 </v>
   <v type="int" >        4       31       78       79      128 </v>
   <v type="int" >        4       79       84      127      128 </v>
   <v type="int" >        4       32       79      127      128 </v>
   <v type="int" >        4       31       32       79      128 </v>
   <v type="int" >        4       78       85       86      129 </v>
   <v type="int" >        4       77       78       86      129 </v>
   <v type="int" >        4       30       77       78      129 </v>
   <v type="int" >        4       78       85      128      129 </v>
   <v type="int" >        4       31       78      128      129 </v>
   <v type="int" >        4       30       31       78      129 </v>
   <v type="int" >        4       77       86       87      130 </v>
   <v type="int" >        4       76       77       87      130 </v>
   <v type="int" >        4       29       76       77      130 </v>
   <v type="int" >        4       77       86      129      130 </v>
   <v type="int" >        4       30       77      129      130 </v>
   <v type="int" >        4       29       30       77      130 </v>
   <v type="int" >        4       29       48       76       87 </v>
   <v type="int" >        4       29       47       48       76 </v>
   <v type="int" >        4       28       29       47       76 </v>
   <v type="int" >        4       29       76       87      130 </v>
   <v type="int" >        4       29       29       76      130 </v>
   <v type="int" >        4       28       29       29       76 </v>
   <v type="int" >        4       22       80       81       88 </v>
   <v type="int" >        4       22       80       81      125 </v>
   <v type="int" >        4       11       22       80      125 </v>
   <v type="int" >        4       81       88       89      119 </v>
   <v type="int" >        4       81       82       89      119 </v>
   <v type="int" >        4       81       82      119      122 </v>
   <v type="int" >        4       22       81       88      119 </v>
   <v type="int" >        4       22       81      119      125 </v>
   <v type="int" >        4       81      119      122      125 </v>
   <v type="int" >        4       82       89       90      131 </v>
   <v type="int" >        4       82       83       90      131 </v>
   <v type="int" >        4       82       83      126      131 </v>
   <v type="int" >        4       82       89      119      131 </v>
   <v type="int" >        4       82      119      122      131 </v>
   <v type="int" >        4       82      122      126      131 </v>
   <v type="int" >        4       83       90       91      132 </v>
   <v type="int" >        4       83       84       91      132 </v>
   <v type="int" >        4       83       84      127      132 </v>
   <v type="int" >        4       83       90      131      132 </v>
   <v type="int" >        4       83      126      131      132 </v>
   <v type="int" >        4       83      126      127      132 </v>
   <v type="int" >        4       84       91       92      133 </v>
   <v type="int" >        4       84       85       92      133 </v>
   <v type="int" >        4       84       85      128      133 </v>
   <v type="int" >        4       84       91      132      133 </v>
   <v type="int" >        4       84      127      132      133 </v>
   <v type="int" >        4       84      127      128      133 </v>
   <v type="int" >        4       85       92       93      134 </v>
   <v type="int" >        4       85       86       93      134 </v>
   <v type="int" >        4       85       86      129      134 </v>
   <v type="int" >        4       85       92      133      134 </v>
   <v type="int" >        4       85      128      133      134 </v>
   <v type="int" >        4       85      128      129      134 </v>
   <v type="int" >        4       86       93       94      129 </v>
   <v type="int" >        4       86       87       94      129 </v>
   <v type="int" >        4       86       87      129      130 </v>
   <v type="int" >        4       86       93      129      134 </v>
   <v type="int" >        4       86      129      129      134 </v>
   <v type="int" >        4       86      129      129      130 </v>
   <v type="int" >        4       30       49       87       94 </v>
   <v type="int" >        4       30       48       49       87 </v>
   <v type="int" >        4       29       30       48       87 </v>
   <v type="int" >        4       30       87       94      129 </v>
   <v type="int" >        4       30       87      129      130 </v>
   <v type="int" >        4       29       30       87      130 </v>
   <v type="int" >        4       31       88       89       95 </v>
   <v type="int" >        4       31       88       89      119 </v>
   <v type="int" >        4       22       31       88      119 </v>
   <v type="int" >        4       89       95       96      128 </v>
   <v type="int" >        4       89       90       96      128 </v>
   <v type="int" >        4       89       90      128      131 </v>
   <v type="int" >        4       31       89       95      128 </v>
   <v type="int" >        4       31       89      119      128 </v>
   <v type="int" >        4       89      119      128      131 </v>
   <v type="int" >        4       90       96       97      133 </v>
   <v type="int" >        4       90       91       97      133 </v>
   <v type="int" >        4       90       91      132      133 </v>
   <v type="int" >        4       90       96      128      133 </v>
   <v type="int" >        4       90      128      131      133 </v>
   <v type="int" >        4       90      131      132      133 </v>
   <v type="int" >        4       91       97       98      135 </v>
   <v type="int" >        4       91       92       98      135 </v>
   <v type="int" >        4       91       92      133      135 </v>
   <v type="int" >        4       91       97      133      135 </v>
   <v type="int" >        8       91      132      133      135 </v>
   <v type="int" >        4       92       98       99      133 </v>
   <v type="int" >        4       92       93       99      133 </v>
   <v type="int" >        4       92       93      133      134 </v>
   <v type="int" >        8       92       98      133      135 </v>
   <v type="int" >        8       92      133      133      135 </v>
   <v type="int" >        4       92      133      133      134 </v>
   <v type="int" >        4       93       99      100      128 </v>
   <v type="int" >        4       93       94      100      128 </v>
   <v type="int" >        4       93       94      128      129 </v>
   <v type="int" >        4       93       99      128      133 </v>
   <v type="int" >        4       93      128      133      134 </v>
   <v type="int" >        4       93      128      129      134 </v>
   <v type="int" >        4       31       50       94      100 </v>
   <v type="int" >        4       31       49       50       94 </v>
   <v type="int" >        4       30       31       49       94 </v>
   <v type="int" >        4       31       94      100      128 </v>
   <v type="int" >        4       31       94      128      129 </v>
   <v type="int" >        4       30       31       94      129 </v>
   <v type="int" >        4       38       95       96      101 </v>
   <v type="int" >        4       38       95       96      128 </v>
   <v type="int" >        4       31       38       95      128 </v>
   <v type="int" >        4       96      101      102      136 </v>
   <v type="int" >        4       96       97      102      136 </v>
   <v type="int" >        4       96       97      133      136 </v>
   <v type="int" >        4       38       96      101      136 </v>
   <v type="int" >        4       38       96      128      136 </v>
   <v type="int" >        4       96      128      133      136 </v>
   <v type="int" >        4       97      102      103      133 </v>
   <v type="int" >        4       97       98      103      133 </v>
   <v type="int" >        8       97       98      133      135 </v>
   <v type="int" >        4       97      102      133      136 </v>
   <v type="int" >        4       97      133      133      136 </v>
   <v type="int" >        8       97      133      133      135 </v>
   <v type="int" >        4       98      103      104      132 </v>
   <v type="int" >        4       98       99      104      132 </v>
   <v type="int" >        8       98       99      132      133 </v>
   <v type="int" >        4       98      103      132      133 </v>
   <v type="int" >       16       98      132      133      135 </v>
   <v type="int" >        4       99      104      105      127 </v>
   <v type="int" >        4       99      100      105      127 </v>
   <v type="int" >        4       99      100      127      128 </v>
   <v type="int" >        4       99      104      127      132 </v>
   <v type="int" >        4       99      127      132      133 </v>
   <v type="int" >        4       99      127      128      133 </v>
   <v type="int" >        4       32       51      100      105 </v>
   <v type="int" >        4       32       50       51      100 </v>
   <v type="int" >        4       31       32       50      100 </v>
   <v type="int" >        4       32      100      105      127 </v>
   <v type="int" >        4       32      100      127      128 </v>
   <v type="int" >        4       31       32      100      128 </v>
   <v type="int" >        4       38      101      102      106 </v>
   <v type="int" >        4       38      101      102      136 </v>
   <v type="int" >        4       38       38      101      136 </v>
   <v type="int" >        4      102      106      107      128 </v>
   <v type="int" >        4      102      103      107      128 </v>
   <v type="int" >        4      102      103      128      133 </v>
   <v type="int" >        4       38      102      106      128 </v>
   <v type="int" >        4       38      102      128      136 </v>
   <v type="int" >        4      102      128      133      136 </v>
   <v type="int" >        4      103      107      108      131 </v>
   <v type="int" >        4      103      104      108      131 </v>
   <v type="int" >        4      103      104      131      132 </v>
   <v type="int" >        4      103      107      128      131 </v>
   <v type="int" >        4      103      128      131      133 </v>
   <v type="int" >        4      103      131      132      133 </v>
   <v type="int" >        4      104      108      109      126 </v>
   <v type="int" >        4      104      105      109      126 </v>
   <v type="int" >        4      104      105      126      127 </v>
   <v type="int" >        4      104      108      126      131 </v>
   <v type="int" >        4      104      126      131      132 </v>
   <v type="int" >        4      104      126      127      132 </v>
   <v type="int" >        4       33       52      105      109 </v>
   <v type="int" >        4       33       51       52      105 </v>
   <v type="int" >        4       32       33       51      105 </v>
   <v type="int" >        4       33      105      109      126 </v>
   <v type="int" >        4       33      105      126      127 </v>
   <v type="int" >        4       32       33      105      127 </v>
   <v type="int" >        4       31      106      107      110 </v>
   <v type="int" >        4       31      106      107      128 </v>
   <v type="int" >        4       31       38      106      128 </v>
   <v type="int" >        4      107      110      111      119 </v>
   <v type="int" >        4      107      108      111      119 </v>
   <v type="int" >        4      107      108      119      131 </v>
   <v type="int" >        4       31      107      110      119 </v>
   <v type="int" >        4       31      107      119      128 </v>
   <v type="int" >        4      107      119      128      131 </v>
   <v type="int" >        4      108      111      112      122 </v>
   <v type="int" >        4      108      109      112      122 </v>
   <v type="int" >        4      108      109      122      126 </v>
   <v type="int" >        4      108      111      119      122 </v>
   <v type="int" >        4      108      119      122      131 </v>
   <v type="int" >        4      108      122      126      131 </v>
   <v type="int" >        4       34       53      109      112 </v>
   <v type="int" >        4       34       52       53      109 </v>
   <v type="int" >        4       33       34       52      109 </v>
   <v type="int" >        4       34      109      112      122 </v>
   <v type="int" >        4       34      109      122      126 </v>
   <v type="int" >        4       33       34      109      126 </v>
   <v type="int" >        4       22      110      111      113 </v>
   <v type="int" >        4       22      110      111      119 </v>
   <v type="int" >        4       22       31      110      119 </v>
   <v type="int" >        4      111      113      114      125 </v>
   <v type="int" >        4      111      112      114      125 </v>
   <v type="int" >        4      111      112      122      125 </v>
   <v type="int" >        4       22      111      113      125 </v>
   <v type="int" >        4       22      111      119      125 </v>
   <v type="int" >        4      111      119      122      125 </v>
   <v type="int" >        4       26       54      112      114 </v>
   <v type="int" >        4       26       53       54      112 </v>
   <v type="int" >        4       26       34       53      112 </v>
   <v type="int" >        4       26      112      114      125 </v>
   <v type="int" >        4       26      112      122      125 </v>
   <v type="int" >        4       26       34      112      122 </v>
   <v type="int" >        4       11      113      114      115 </v>
   <v type="int" >        4       11      113      114      125 </v>
   <v type="int" >        4       11       22      113      125 </v>
   <v type="int" >        4       16       55      114      115 </v>
   <v type="int" >        4       16       54       55      114 </v>
   <v type="int" >        4       16       26       54      114 </v>
   <v type="int" >        4       11       16      114      115 </v>
   <v type="int" >        4       11       16      114      125 </v>
   <v type="int" >        4       16       26      114      125 </v>
   <v type="int" >        4        4       44       55      115 </v>
   <v type="int" >        4        4       16       55      115 </v>
   <v type="int" >        4        4       11       16      115 </v>
   <v type="int" >        4        4       10       17      147 </v>
   <v type="int" >        4        4       10      138      147 </v>
   <v type="int" >        4        4      137      138      147 </v>
   <v type="int" >        4       10       17      116      148 </v>
   <v type="int" >        4       10       20      116      148 </v>
   <v type="int" >        4       10       20      139      148 </v>
   <v type="int" >        4       10       17      147      148 </v>
   <v type="int" >        4       10      138      147      148 </v>
   <v type="int" >        4       10      138      139      148 </v>
   <v type="int" >        4       20       20      111      116 </v>
   <v type="int" >        4       20       20       28      111 </v>
   <v type="int" >        4       20       28      110      111 </v>
   <v type="int" >        4       20      111      116      148 </v>
   <v type="int" >        4       20      111      139      148 </v>
   <v type="int" >        4       20      110      111      139 </v>
[...]
       <r>   -3.2335    1.0000 </r>
       <r>    1.8403    1.0000 </r>
       <r>    3.8129    1.0000 </r>
       <r>   14.8100    0.0000 </r>
       <r>   16.6615    0.0000 </r>
       <r>   18.8881    0.0000 </r>
       <r>   20.8066    0.0000 </r>
      </set>
      <set comment="kpoint 184">
       <r>   -6.3756    1.0000 </r>
       <r>   -3.5775    1.0000 </r>
       <r>    3.0065    1.0000 </r>
       <r>    4.4152    1.0000 </r>
       <r>   14.3435    0.0000 </r>
       <r>   17.1306    0.0000 </r>
       <r>   17.2240    0.0000 </r>
       <r>   21.1192    0.0000 </r>
      </set>
      <set comment="kpoint 185">
       <r>   -6.7672    1.0000 </r>
       <r>   -3.3816    1.0000 </r>
       <r>    3.5062    1.0000 </r>
       <r>    4.5945    1.0000 </r>
       <r>   15.2268    0.0000 </r>
       <r>   15.5060    0.0000 </r>
       <r>   17.2999    0.0000 </r>
       <r>   21.3200    0.0000 </r>
      </set>
      <set comment="kpoint 186">
       <r>   -7.4435    1.0000 </r>
       <r>   -3.1075    1.0000 </r>
       <r>    4.8282    1.0000 </r>
       <r>    4.9407    1.0000 </r>
       <r>   14.7760    0.0000 </r>
       <r>   15.5882    0.0000 </r>
       <r>   16.1483    0.0000 </r>
       <r>   21.4918    0.0000 </r>
      </set>
      <set comment="kpoint 187">
       <r>   -7.3822    1.0000 </r>
       <r>   -2.5647    1.0000 </r>
       <r>    3.5241    1.0000 </r>
       <r>    4.7512    1.0000 </r>
       <r>   15.0655    0.0000 </r>
       <r>   15.6291    0.0000 </r>
       <r>   17.2663    0.0000 </r>
       <r>   20.8847    0.0000 </r>
      </set>
      <set comment="kpoint 188">
       <r>   -6.1385    1.0000 </r>
       <r>   -1.6345    1.0000 </r>
       <r>    1.9540    1.0000 </r>
       <r>    2.2216    1.0000 </r>
       <r>   12.5387    0.0000 </r>
       <r>   14.0313    0.0000 </r>
       <r>   20.8723    0.0000 </r>
       <r>   21.6120    0.0000 </r>
      </set>
      <set comment="kpoint 189">
       <r>   -3.9485    1.0000 </r>
       <r>   -3.9485    1.0000 </r>
       <r>    1.8248    1.0000 </r>
       <r>    1.8248    1.0000 </r>
       <r>   13.0323    0.0000 </r>
       <r>   13.0323    0.0000 </r>
       <r>   21.9034    0.0000 </r>
       <r>   21.9034    0.0000 </r>
      </set>
      <set comment="kpoint 190">
       <r>   -4.8685    1.0000 </r>
       <r>   -2.7553    1.0000 </r>
       <r>    0.8154    1.0000 </r>
       <r>    2.1781    1.0000 </r>
       <r>   13.2916    0.0000 </r>
       <r>   15.0986    0.0000 </r>
       <r>   20.6695    0.0000 </r>
       <r>   21.4927    0.0000 </r>
      </set>
      <set comment="kpoint 191">
       <r>   -6.4792    1.0000 </r>
       <r>   -3.7372    1.0000 </r>
       <r>    3.5032    1.0000 </r>
       <r>    4.5388    1.0000 </r>
       <r>   15.3692    0.0000 </r>
       <r>   15.3729    0.0000 </r>
       <r>   17.3107    0.0000 </r>
       <r>   21.4891    0.0000 </r>
      </set>
      <set comment="kpoint 192">
       <r>   -7.4397    1.0000 </r>
       <r>   -0.3737    1.0000 </r>
       <r>    1.3589    1.0000 </r>
       <r>    3.5565    1.0000 </r>
       <r>   14.6708    0.0000 </r>
       <r>   17.0876    0.0000 </r>
       <r>   17.3532    0.0000 </r>
       <r>   20.1106    0.0000 </r>
      </set>
      <set comment="kpoint 193">
       <r>   -3.6644    1.0000 </r>
       <r>   -3.6644    1.0000 </r>
       <r>    1.0019    1.0000 </r>
       <r>    1.0019    1.0000 </r>
       <r>   15.2083    0.0000 </r>
       <r>   15.2083    0.0000 </r>
       <r>   20.3885    0.0000 </r>
       <r>   20.3885    0.0000 </r>
      </set>
      <set comment="kpoint 194">
       <r>   -5.2681    1.0000 </r>
       <r>   -2.8635    1.0000 </r>
       <r>    0.7738    1.0000 </r>
       <r>    2.6313    1.0000 </r>
       <r>   15.9471    0.0000 </r>
       <r>   16.4408    0.0000 </r>
       <r>   19.6080    0.0000 </r>
       <r>   19.9470    0.0000 </r>
      </set>
     </set>
    </set>
   </array>
  </eigenvalues>
  <separator name="orbital magnetization" >
   <v name="MAGDIPOLOUT">      0.00000000      0.00000000      0.00000000</v>
  </separator>
  <dos>
   <i name="efermi">      7.79838025 </i>
   <total>
    <array>
     <dimension dim="1">gridpoints</dimension>
     <dimension dim="2">spin</dimension>
     <field>energy</field>
     <field>total</field>
     <field>integrated</field>
     <set>
      <set comment="spin 1">
       <r>   -13.8638     0.0000     0.0000 </r>
       <r>   -13.7364     0.0000     0.0000 </r>
       <r>   -13.6090     0.0000     0.0000 </r>
       <r>   -13.4816     0.0000     0.0000 </r>
       <r>   -13.3542     0.0000     0.0000 </r>
       <r>   -13.2268     0.0000     0.0000 </r>
       <r>   -13.0994     0.0000     0.0000 </r>
       <r>   -12.9720     0.0000     0.0000 </r>
       <r>   -12.8446     0.0000     0.0000 </r>
       <r>   -12.7172     0.0000     0.0000 </r>
       <r>   -12.5898     0.0000     0.0000 </r>
       <r>   -12.4624     0.0000     0.0000 </r>
       <r>   -12.3350     0.0000     0.0000 </r>
       <r>   -12.2076     0.0000     0.0000 </r>
       <r>   -12.0802     0.0000     0.0000 </r>
       <r>   -11.9528     0.0000     0.0000 </r>
       <r>   -11.8254     0.0018     0.0000 </r>
       <r>   -11.6980     0.0342     0.0019 </r>
       <r>   -11.5706     0.0633     0.0084 </r>
       <r>   -11.4432     0.0754     0.0173 </r>
       <r>   -11.3158     0.0902     0.0279 </r>
       <r>   -11.1884     0.1025     0.0402 </r>
       <r>   -11.0610     0.1111     0.0537 </r>
       <r>   -10.9336     0.1220     0.0686 </r>
       <r>   -10.8062     0.1338     0.0849 </r>
       <r>   -10.6788     0.1423     0.1025 </r>
       <r>   -10.5514     0.1503     0.1211 </r>
       <r>   -10.4240     0.1573     0.1407 </r>
       <r>   -10.2966     0.1637     0.1612 </r>
       <r>   -10.1692     0.1715     0.1825 </r>
       <r>   -10.0418     0.1793     0.2049 </r>
       <r>    -9.9144     0.1867     0.2282 </r>
       <r>    -9.7870     0.1937     0.2524 </r>
       <r>    -9.6596     0.2015     0.2776 </r>
       <r>    -9.5322     0.2097     0.3038 </r>
       <r>    -9.4048     0.2160     0.3309 </r>
       <r>    -9.2774     0.2222     0.3589 </r>
       <r>    -9.1500     0.2285     0.3876 </r>
       <r>    -9.0226     0.2350     0.4171 </r>
       <r>    -8.8952     0.2415     0.4474 </r>
       <r>    -8.7678     0.2482     0.4786 </r>
       <r>    -8.6404     0.2553     0.5107 </r>
       <r>    -8.5130     0.2627     0.5437 </r>
       <r>    -8.3856     0.2705     0.5777 </r>
       <r>    -8.2582     0.2787     0.6126 </r>
       <r>    -8.1308     0.2869     0.6487 </r>
       <r>    -8.0034     0.2956     0.6858 </r>
       <r>    -7.8760     0.3050     0.7240 </r>
       <r>    -7.7486     0.3152     0.7635 </r>
       <r>    -7.6212     0.3269     0.8044 </r>
       <r>    -7.4938     0.3406     0.8469 </r>
       <r>    -7.3664     0.3568     0.8913 </r>
       <r>    -7.2390     0.3808     0.9381 </r>
       <r>    -7.1116     0.4125     0.9886 </r>
       <r>    -6.9842     0.4482     1.0434 </r>
       <r>    -6.8568     0.4668     1.1039 </r>
       <r>    -6.7294     0.4337     1.1608 </r>
       <r>    -6.6019     0.4241     1.2155 </r>
       <r>    -6.4745     0.4185     1.2688 </r>
       <r>    -6.3471     0.4139     1.3220 </r>
       <r>    -6.2197     0.3989     1.3739 </r>
       <r>    -6.0923     0.3825     1.4237 </r>
       <r>    -5.9649     0.3751     1.4717 </r>
       <r>    -5.8375     0.3710     1.5195 </r>
       <r>    -5.7101     0.3546     1.5657 </r>
       <r>    -5.5827     0.3377     1.6098 </r>
       <r>    -5.4553     0.3263     1.6520 </r>
       <r>    -5.3279     0.3208     1.6932 </r>
       <r>    -5.2005     0.3202     1.7340 </r>
       <r>    -5.0731     0.3204     1.7748 </r>
       <r>    -4.9457     0.3169     1.8154 </r>
       <r>    -4.8183     0.3127     1.8556 </r>
       <r>    -4.6909     0.2857     1.8939 </r>
       <r>    -4.5635     0.2468     1.9280 </r>
       <r>    -4.4361     0.2064     1.9565 </r>
       <r>    -4.3087     0.1084     1.9772 </r>
       <r>    -4.1813     0.0594     1.9872 </r>
       <r>    -4.0539     0.0380     1.9932 </r>
       <r>    -3.9265     0.0389     1.9979 </r>
       <r>    -3.7991     0.0631     2.0040 </r>
       <r>    -3.6717     0.1038     2.0146 </r>
       <r>    -3.5443     0.1569     2.0310 </r>
       <r>    -3.4169     0.2265     2.0556 </r>
       <r>    -3.2895     0.2963     2.0883 </r>
       <r>    -3.1621     0.4380     2.1351 </r>
       <r>    -3.0347     0.5885     2.2002 </r>
       <r>    -2.9073     0.7261     2.2834 </r>
       <r>    -2.7799     0.8858     2.3861 </r>
       <r>    -2.6525     0.8616     2.4999 </r>
       <r>    -2.5251     0.7206     2.6007 </r>
       <r>    -2.3977     0.5961     2.6841 </r>
       <r>    -2.2703     0.5277     2.7555 </r>
       <r>    -2.1429     0.4714     2.8190 </r>
       <r>    -2.0155     0.4274     2.8761 </r>
       <r>    -1.8881     0.3951     2.9284 </r>
       <r>    -1.7607     0.3677     2.9770 </r>
       <r>    -1.6333     0.3440     3.0222 </r>
       <r>    -1.5059     0.3284     3.0650 </r>
       <r>    -1.3785     0.3165     3.1061 </r>
       <r>    -1.2511     0.3061     3.1457 </r>
       <r>    -1.1237     0.2958     3.1841 </r>
       <r>    -0.9963     0.2831     3.2210 </r>
       <r>    -0.8689     0.2679     3.2561 </r>
       <r>    -0.7415     0.2514     3.2892 </r>
       <r>    -0.6141     0.2373     3.3203 </r>
       <r>    -0.4867     0.2270     3.3498 </r>
       <r>    -0.3593     0.2191     3.3782 </r>
       <r>    -0.2319     0.2213     3.4061 </r>
       <r>    -0.1045     0.2810     3.4375 </r>
       <r>     0.0229     0.3777     3.4801 </r>
       <r>     0.1503     0.5248     3.5369 </r>
       <r>     0.2777     0.6433     3.6120 </r>
       <r>     0.4051     0.6812     3.6976 </r>
       <r>     0.5325     0.6477     3.7823 </r>
       <r>     0.6599     0.6201     3.8627 </r>
       <r>     0.7873     0.6117     3.9413 </r>
       <r>     0.9147     0.6045     4.0185 </r>
       <r>     1.0421     0.5985     4.0953 </r>
       <r>     1.1695     0.5935     4.1711 </r>
       <r>     1.2969     0.5988     4.2469 </r>
       <r>     1.4243     0.6128     4.3241 </r>
       <r>     1.5517     0.6241     4.4029 </r>
       <r>     1.6791     0.6659     4.4843 </r>
       <r>     1.8065     0.6970     4.5716 </r>
       <r>     1.9339     0.7286     4.6631 </r>
       <r>     2.0613     0.7569     4.7575 </r>
       <r>     2.1887     0.8143     4.8572 </r>
       <r>     2.3161     0.8987     4.9662 </r>
       <r>     2.4435     0.9458     5.0844 </r>
       <r>     2.5709     0.9116     5.2029 </r>
       <r>     2.6983     0.9003     5.3180 </r>
       <r>     2.8257     0.8918     5.4322 </r>
       <r>     2.9531     0.8872     5.5456 </r>
       <r>     3.0806     0.8759     5.6579 </r>
       <r>     3.2080     0.8671     5.7690 </r>
       <r>     3.3354     0.8539     5.8786 </r>
       <r>     3.4628     0.8388     5.9864 </r>
       <r>     3.5902     0.8295     6.0926 </r>
       <r>     3.7176     0.8264     6.1980 </r>
       <r>     3.8450     0.8239     6.3032 </r>
       <r>     3.9724     0.8185     6.4079 </r>
       <r>     4.0998     0.8110     6.5116 </r>
       <r>     4.2272     0.8031     6.6145 </r>
       <r>     4.3546     0.7969     6.7164 </r>
       <r>     4.4820     0.7888     6.8174 </r>
       <r>     4.6094     0.7825     6.9175 </r>
       <r>     4.7368     0.7764     7.0169 </r>
       <r>     4.8642     0.7649     7.1151 </r>
       <r>     4.9916     0.7510     7.2116 </r>
       <r>     5.1190     0.7195     7.3067 </r>
       <r>     5.2464     0.6385     7.3940 </r>
       <r>     5.3738     0.5389     7.4684 </r>
       <r>     5.5012     0.4758     7.5329 </r>
       <r>     5.6286     0.4254     7.5903 </r>
       <r>     5.7560     0.3903     7.6420 </r>
       <r>     5.8834     0.3617     7.6900 </r>
       <r>     6.0108     0.3315     7.7341 </r>
       <r>     6.1382     0.2981     7.7743 </r>
       <r>     6.2656     0.2664     7.8101 </r>
       <r>     6.3930     0.2408     7.8424 </r>
       <r>     6.5204     0.2161     7.8715 </r>
       <r>     6.6478     0.1919     7.8975 </r>
       <r>     6.7752     0.1694     7.9205 </r>
       <r>     6.9026     0.1540     7.9411 </r>
       <r>     7.0300     0.1311     7.9592 </r>
       <r>     7.1574     0.1130     7.9746 </r>
       <r>     7.2848     0.0811     7.9872 </r>
       <r>     7.4122     0.0499     7.9955 </r>
       <r>     7.5396     0.0147     7.9992 </r>
       <r>     7.6670     0.0009     8.0000 </r>
       <r>     7.7944     0.0000     8.0000 </r>
       <r>     7.9218     0.0000     8.0000 </r>
       <r>     8.0492     0.0000     8.0000 </r>
       <r>     8.1766     0.0000     8.0000 </r>
       <r>     8.3040     0.0000     8.0000 </r>
       <r>     8.4314     0.0000     8.0000 </r>
       <r>     8.5588     0.0000     8.0000 </r>
       <r>     8.6862     0.0000     8.0000 </r>
       <r>     8.8136     0.0000     8.0000 </r>
       <r>     8.9410     0.0000     8.0000 </r>
       <r>     9.0684     0.0000     8.0000 </r>
       <r>     9.1958     0.0000     8.0000 </r>
       <r>     9.3232     0.0000     8.0000 </r>
       <r>     9.4506     0.0000     8.0000 </r>
       <r>     9.5780     0.0000     8.0000 </r>
       <r>     9.7054     0.0000     8.0000 </r>
       <r>     9.8328     0.0000     8.0000 </r>
       <r>     9.9602     0.0000     8.0000 </r>
       <r>    10.0876     0.0000     8.0000 </r>
       <r>    10.2150     0.0000     8.0000 </r>
       <r>    10.3424     0.0000     8.0000 </r>
       <r>    10.4698     0.0000     8.0000 </r>
       <r>    10.5972     0.0000     8.0000 </r>
       <r>    10.7246     0.0000     8.0000 </r>
       <r>    10.8520     0.0000     8.0000 </r>
       <r>    10.9794     0.0000     8.0000 </r>
       <r>    11.1068     0.0000     8.0000 </r>
       <r>    11.2342     0.0000     8.0000 </r>
       <r>    11.3616     0.0000     8.0000 </r>
       <r>    11.4890     0.0000     8.0000 </r>
       <r>    11.6164     0.0024     8.0001 </r>
       <r>    11.7438     0.0285     8.0016 </r>
       <r>    11.8712     0.0760     8.0082 </r>
       <r>    11.9986     0.1270     8.0211 </r>
       <r>    12.1260     0.1779     8.0406 </r>
       <r>    12.2534     0.2181     8.0660 </r>
       <r>    12.3808     0.2515     8.0959 </r>
       <r>    12.5082     0.2863     8.1300 </r>
       <r>    12.6356     0.3296     8.1693 </r>
       <r>    12.7630     0.3688     8.2138 </r>
       <r>    12.8905     0.4226     8.2640 </r>
       <r>    13.0179     0.4830     8.3218 </r>
       <r>    13.1453     0.5287     8.3865 </r>
       <r>    13.2727     0.5407     8.4545 </r>
       <r>    13.4001     0.5714     8.5252 </r>
       <r>    13.5275     0.6034     8.6000 </r>
       <r>    13.6549     0.6347     8.6787 </r>
       <r>    13.7823     0.6602     8.7613 </r>
       <r>    13.9097     0.6914     8.8473 </r>
       <r>    14.0371     0.7280     8.9377 </r>
       <r>    14.1645     0.7691     9.0329 </r>
       <r>    14.2919     0.8221     9.1341 </r>
       <r>    14.4193     0.9117     9.2438 </r>
       <r>    14.5467     1.0602     9.3689 </r>
       <r>    14.6741     1.3379     9.5194 </r>
       <r>    14.8015     1.5494     9.7053 </r>
       <r>    14.9289     1.5407     9.9063 </r>
       <r>    15.0563     1.2048    10.0814 </r>
       <r>    15.1837     0.9597    10.2182 </r>
       <r>    15.3111     0.8962    10.3330 </r>
       <r>    15.4385     0.8848    10.4457 </r>
       <r>    15.5659     1.0823    10.5691 </r>
       <r>    15.6933     1.0315    10.7089 </r>
       <r>    15.8207     0.9917    10.8394 </r>
       <r>    15.9481     0.9999    10.9661 </r>
       <r>    16.0755     1.0470    11.0959 </r>
       <r>    16.2029     1.1136    11.2333 </r>
       <r>    16.3303     1.1828    11.3796 </r>
       <r>    16.4577     1.1357    11.5297 </r>
       <r>    16.5851     1.0662    11.6673 </r>
       <r>    16.7125     1.0712    11.8047 </r>
       <r>    16.8399     1.0153    11.9381 </r>
       <r>    16.9673     0.9313    12.0624 </r>
       <r>    17.0947     0.8164    12.1741 </r>
       <r>    17.2221     0.7451    12.2727 </r>
       <r>    17.3495     0.7274    12.3658 </r>
       <r>    17.4769     0.7802    12.4628 </r>
       <r>    17.6043     0.8001    12.5639 </r>
       <r>    17.7317     0.6548    12.6550 </r>
       <r>    17.8591     0.5752    12.7328 </r>
       <r>    17.9865     0.5595    12.8043 </r>
       <r>    18.1139     0.6889    12.8849 </r>
       <r>    18.2413     0.8140    12.9802 </r>
       <r>    18.3687     0.9686    13.0928 </r>
       <r>    18.4961     0.9915    13.2169 </r>
       <r>    18.6235     1.0202    13.3448 </r>
       <r>    18.7509     1.0729    13.4784 </r>
       <r>    18.8783     1.1095    13.6182 </r>
       <r>    19.0057     1.0512    13.7577 </r>
       <r>    19.1331     0.9254    13.8836 </r>
       <r>    19.2605     0.8561    13.9961 </r>
       <r>    19.3879     0.8410    14.1041 </r>
       <r>    19.5153     0.7943    14.2095 </r>
       <r>    19.6427     0.7688    14.3087 </r>
       <r>    19.7701     0.7497    14.4048 </r>
       <r>    19.8975     0.7916    14.5023 </r>
       <r>    20.0249     0.8939    14.6090 </r>
       <r>    20.1523     1.0415    14.7318 </r>
       <r>    20.2797     1.2132    14.8764 </r>
       <r>    20.4071     1.2766    15.0364 </r>
       <r>    20.5345     1.1344    15.1911 </r>
       <r>    20.6619     0.9424    15.3219 </r>
       <r>    20.7893     0.8017    15.4321 </r>
       <r>    20.9167     0.7137    15.5289 </r>
       <r>    21.0441     0.6223    15.6139 </r>
       <r>    21.1715     0.5430    15.6879 </r>
       <r>    21.2989     0.4853    15.7531 </r>
       <r>    21.4263     0.4483    15.8125 </r>
       <r>    21.5537     0.4162    15.8680 </r>
       <r>    21.6811     0.3581    15.9174 </r>
       <r>    21.8085     0.2487    15.9574 </r>
       <r>    21.9359     0.1352    15.9813 </r>
       <r>    22.0633     0.0645    15.9937 </r>
       <r>    22.1907     0.0206    15.9989 </r>
       <r>    22.3181     0.0011    16.0000 </r>
       <r>    22.4455     0.0000    16.0000 </r>
       <r>    22.5730     0.0000    16.0000 </r>
       <r>    22.7004     0.0000    16.0000 </r>
       <r>    22.8278     0.0000    16.0000 </r>
       <r>    22.9552     0.0000    16.0000 </r>
       <r>    23.0826     0.0000    16.0000 </r>
       <r>    23.2100     0.0000    16.0000 </r>
       <r>    23.3374     0.0000    16.0000 </r>
       <r>    23.4648     0.0000    16.0000 </r>
       <r>    23.5922     0.0000    16.0000 </r>
       <r>    23.7196     0.0000    16.0000 </r>
       <r>    23.8470     0.0000    16.0000 </r>
       <r>    23.9744     0.0000    16.0000 </r>
       <r>    24.1018     0.0000    16.0000 </r>
       <r>    24.2292     0.0000    16.0000 </r>
       <r>    24.3566     0.0000    16.0000 </r>
      </set>
     </set>
    </array>
   </total>
  </dos>
 </calculation>
 <structure name="finalpos" >
  <crystal>
   <varray name="basis" >
    <v>       2.65072398       0.00000000       0.00000000 </v>
    <v>       1.32536199       2.29559431       0.00000000 </v>
    <v>       1.32536199       0.76519810       2.16430707 </v>
   </varray>
   <i name="volume">     13.16978014 </i>
   <varray name="rec_basis" >
    <v>       0.37725542      -0.21780852      -0.15401388 </v>
    <v>       0.00000000       0.43561704      -0.15401388 </v>
    <v>       0.00000000       0.00000000       0.46204165 </v>
   </varray>
  </crystal>
  <varray name="positions" >
   <v>       0.00000000       0.00000000       0.00000000 </v>
   <v>       0.25000000       0.25000000       0.24999999 </v>
  </varray>
 </structure>
</modeling>
