   4   4   0   0
  0.9254429E+01  0.2466437E-09  0.2466437E-09  0.7029656E-09  0.5000000E-15
  1.000000000000000E-004
  CAR 
 graphite                                
     18.01749118    -17.31427429  301      4.27902118      1.00000000
    -17.314  0.0000E+00  0.0000E+00
    -17.197  0.0000E+00  0.0000E+00
    -17.079  0.0000E+00  0.0000E+00
    -16.961  0.0000E+00  0.0000E+00
    -16.843  0.0000E+00  0.0000E+00
    -16.725  0.0000E+00  0.0000E+00
    -16.608  0.0000E+00  0.0000E+00
    -16.490  0.0000E+00  0.0000E+00
    -16.372  0.0000E+00  0.0000E+00
    -16.254  0.0000E+00  0.0000E+00
    -16.137  0.0000E+00  0.0000E+00
    -16.019  0.0000E+00  0.0000E+00
    -15.901  0.0000E+00  0.0000E+00
    -15.783  0.0000E+00  0.0000E+00
    -15.665  0.0000E+00  0.0000E+00
    -15.548  0.0000E+00  0.0000E+00
    -15.430  0.0000E+00  0.0000E+00
    -15.312  0.1160E-05  0.8250E-09
    -15.194  0.1282E-02  0.5954E-04
    -15.077  0.2594E-02  0.2982E-03
    -14.959  0.3143E-02  0.6552E-03
    -14.841  0.3081E-02  0.1004E-02
    -14.723  0.3216E-02  0.1378E-02
    -14.606  0.3080E-02  0.1751E-02
    -14.488  0.2965E-02  0.2105E-02
    -14.370  0.3054E-02  0.2458E-02
    -14.252  0.3164E-02  0.2824E-02
    -14.134  0.3204E-02  0.3202E-02
    -14.017  0.3147E-02  0.3576E-02
    -13.899  0.3062E-02  0.3940E-02
    -13.781  0.3052E-02  0.4300E-02
    -13.663  0.3079E-02  0.4661E-02
    -13.546  0.3135E-02  0.5027E-02
    -13.428  0.3193E-02  0.5399E-02
    -13.310  0.3236E-02  0.5778E-02
    -13.192  0.3193E-02  0.6158E-02
    -13.074  0.3123E-02  0.6529E-02
    -12.957  0.3120E-02  0.6896E-02
    -12.839  0.3136E-02  0.7265E-02
    -12.721  0.3152E-02  0.7635E-02
    -12.603  0.3176E-02  0.8007E-02
    -12.486  0.3211E-02  0.8383E-02
    -12.368  0.3249E-02  0.8764E-02
    -12.250  0.3287E-02  0.9149E-02
    -12.132  0.3266E-02  0.9535E-02
    -12.015  0.3232E-02  0.9917E-02
    -11.897  0.3224E-02  0.1030E-01
    -11.779  0.3234E-02  0.1068E-01
    -11.661  0.3262E-02  0.1106E-01
    -11.543  0.3291E-02  0.1145E-01
    -11.426  0.3320E-02  0.1183E-01
    -11.308  0.3349E-02  0.1223E-01
    -11.190  0.3393E-02  0.1262E-01
    -11.072  0.3458E-02  0.1303E-01
    -10.955  0.3524E-02  0.1344E-01
    -10.837  0.3571E-02  0.1386E-01
    -10.719  0.3665E-02  0.1428E-01
    -10.601  0.3819E-02  0.1472E-01
    -10.483  0.3976E-02  0.1518E-01
    -10.366  0.5386E-02  0.1571E-01
    -10.248  0.6046E-02  0.1642E-01
    -10.130  0.4730E-02  0.1705E-01
    -10.012  0.3415E-02  0.1753E-01
     -9.895  0.2739E-02  0.1789E-01
     -9.777  0.2461E-02  0.1819E-01
     -9.659  0.2183E-02  0.1847E-01
     -9.541  0.4513E-02  0.1885E-01
     -9.424  0.1302E-02  0.1927E-01
     -9.306  0.1165E-02  0.1942E-01
     -9.188  0.1027E-02  0.1955E-01
     -9.070  0.8899E-03  0.1966E-01
     -8.952  0.7526E-03  0.1976E-01
     -8.835  0.9340E-03  0.1985E-01
     -8.717  0.1219E-02  0.1998E-01
     -8.599  0.1504E-02  0.2014E-01
     -8.481  0.2652E-02  0.2036E-01
     -8.364  0.5183E-02  0.2082E-01
     -8.246  0.4528E-02  0.2144E-01
     -8.128  0.3729E-02  0.2188E-01
     -8.010  0.4447E-02  0.2236E-01
     -7.892  0.5165E-02  0.2293E-01
     -7.775  0.5882E-02  0.2358E-01
     -7.657  0.5436E-02  0.2430E-01
     -7.539  0.3578E-02  0.2479E-01
     -7.421  0.3469E-02  0.2520E-01
     -7.304  0.3380E-02  0.2561E-01
     -7.186  0.3296E-02  0.2600E-01
     -7.068  0.3210E-02  0.2638E-01
     -6.950  0.3117E-02  0.2675E-01
     -6.833  0.3023E-02  0.2712E-01
     -6.715  0.2929E-02  0.2747E-01
     -6.597  0.2835E-02  0.2781E-01
     -6.479  0.2741E-02  0.2813E-01
     -6.361  0.2647E-02  0.2845E-01
     -6.244  0.2550E-02  0.2876E-01
     -6.126  0.2755E-02  0.2907E-01
     -6.008  0.2984E-02  0.2941E-01
     -5.890  0.3212E-02  0.2977E-01
     -5.773  0.3441E-02  0.3016E-01
     -5.655  0.3669E-02  0.3058E-01
     -5.537  0.3898E-02  0.3103E-01
     -5.419  0.4126E-02  0.3150E-01
     -5.301  0.4154E-02  0.3199E-01
     -5.184  0.3992E-02  0.3248E-01
     -5.066  0.3824E-02  0.3293E-01
     -4.948  0.3823E-02  0.3338E-01
     -4.830  0.3821E-02  0.3383E-01
     -4.713  0.3819E-02  0.3428E-01
     -4.595  0.3848E-02  0.3473E-01
     -4.477  0.3927E-02  0.3519E-01
     -4.359  0.4006E-02  0.3566E-01
     -4.242  0.4085E-02  0.3613E-01
     -4.124  0.4158E-02  0.3662E-01
     -4.006  0.4249E-02  0.3711E-01
     -3.888  0.4743E-02  0.3764E-01
     -3.770  0.5185E-02  0.3823E-01
     -3.653  0.5446E-02  0.3886E-01
     -3.535  0.5686E-02  0.3951E-01
     -3.417  0.5920E-02  0.4020E-01
     -3.299  0.6136E-02  0.4091E-01
     -3.182  0.6494E-02  0.4164E-01
     -3.064  0.7391E-02  0.4248E-01
     -2.946  0.7482E-02  0.4336E-01
     -2.828  0.7458E-02  0.4424E-01
     -2.710  0.7356E-02  0.4511E-01
     -2.593  0.7456E-02  0.4597E-01
     -2.475  0.8756E-02  0.4694E-01
     -2.357  0.9498E-02  0.4802E-01
     -2.239  0.1005E-01  0.4917E-01
     -2.122  0.1126E-01  0.5045E-01
     -2.004  0.1151E-01  0.5208E-01
     -1.886  0.9218E-02  0.5328E-01
     -1.768  0.8029E-02  0.5429E-01
     -1.651  0.7486E-02  0.5520E-01
     -1.533  0.6266E-02  0.5604E-01
     -1.415  0.4621E-02  0.5665E-01
     -1.297  0.4535E-02  0.5718E-01
     -1.179  0.5026E-02  0.5774E-01
     -1.062  0.5848E-02  0.5838E-01
     -0.944  0.6025E-02  0.5909E-01
     -0.826  0.6631E-02  0.5982E-01
     -0.708  0.1074E-01  0.6078E-01
     -0.591  0.8270E-02  0.6187E-01
     -0.473  0.7418E-02  0.6279E-01
     -0.355  0.6800E-02  0.6362E-01
     -0.237  0.6317E-02  0.6440E-01
     -0.119  0.6017E-02  0.6512E-01
     -0.002  0.5854E-02  0.6582E-01
      0.116  0.5711E-02  0.6650E-01
      0.234  0.5930E-02  0.6718E-01
      0.352  0.5915E-02  0.6788E-01
      0.469  0.5789E-02  0.6857E-01
      0.587  0.5666E-02  0.6925E-01
      0.705  0.5904E-02  0.6994E-01
      0.823  0.5591E-02  0.7062E-01
      0.940  0.5837E-02  0.7126E-01
      1.058  0.5510E-02  0.7196E-01
      1.176  0.4584E-02  0.7255E-01
      1.294  0.3801E-02  0.7304E-01
      1.412  0.4015E-02  0.7350E-01
      1.529  0.4969E-02  0.7405E-01
      1.647  0.4719E-02  0.7463E-01
      1.765  0.4609E-02  0.7518E-01
      1.883  0.4565E-02  0.7572E-01
      2.000  0.4534E-02  0.7625E-01
      2.118  0.4578E-02  0.7678E-01
      2.236  0.3371E-02  0.7729E-01
      2.354  0.3085E-02  0.7766E-01
      2.472  0.2914E-02  0.7802E-01
      2.589  0.2479E-02  0.7834E-01
      2.707  0.2082E-02  0.7861E-01
      2.825  0.1875E-02  0.7884E-01
      2.943  0.1688E-02  0.7905E-01
      3.060  0.1496E-02  0.7924E-01
      3.178  0.1297E-02  0.7940E-01
      3.296  0.1061E-02  0.7954E-01
      3.414  0.8856E-03  0.7966E-01
      3.531  0.7440E-03  0.7975E-01
      3.649  0.6024E-03  0.7983E-01
      3.767  0.4608E-03  0.7989E-01
      3.885  0.3292E-03  0.7994E-01
      4.003  0.2176E-03  0.7997E-01
      4.120  0.1176E-03  0.7999E-01
      4.238  0.2680E-04  0.8000E-01
      4.356  0.4602E-04  0.8000E-01
      4.474  0.1271E-03  0.8001E-01
      4.591  0.2194E-03  0.8003E-01
      4.709  0.3253E-03  0.8006E-01
      4.827  0.4556E-03  0.8011E-01
      4.945  0.6072E-03  0.8017E-01
      5.063  0.7589E-03  0.8025E-01
      5.180  0.9107E-03  0.8035E-01
      5.298  0.1063E-02  0.8047E-01
      5.416  0.1491E-02  0.8060E-01
      5.534  0.2248E-02  0.8083E-01
      5.651  0.2429E-02  0.8111E-01
      5.769  0.3012E-02  0.8142E-01
      5.887  0.4188E-02  0.8186E-01
      6.005  0.5583E-02  0.8244E-01
      6.122  0.4684E-02  0.8301E-01
      6.240  0.4662E-02  0.8356E-01
      6.358  0.4722E-02  0.8411E-01
      6.476  0.4728E-02  0.8467E-01
      6.594  0.4231E-02  0.8521E-01
      6.711  0.3537E-02  0.8565E-01
      6.829  0.3290E-02  0.8605E-01
      6.947  0.3080E-02  0.8642E-01
      7.065  0.2914E-02  0.8678E-01
      7.182  0.2781E-02  0.8711E-01
      7.300  0.2676E-02  0.8743E-01
      7.418  0.2606E-02  0.8774E-01
      7.536  0.2547E-02  0.8805E-01
      7.654  0.2492E-02  0.8834E-01
      7.771  0.2439E-02  0.8863E-01
      7.889  0.2388E-02  0.8892E-01
      8.007  0.2339E-02  0.8920E-01
      8.125  0.2290E-02  0.8947E-01
      8.242  0.2242E-02  0.8974E-01
      8.360  0.2319E-02  0.9000E-01
      8.478  0.2496E-02  0.9029E-01
      8.596  0.2450E-02  0.9058E-01
      8.713  0.2486E-02  0.9087E-01
      8.831  0.2537E-02  0.9117E-01
      8.949  0.2578E-02  0.9147E-01
      9.067  0.2600E-02  0.9177E-01
      9.185  0.2640E-02  0.9208E-01
      9.302  0.2694E-02  0.9239E-01
      9.420  0.2749E-02  0.9271E-01
      9.538  0.2806E-02  0.9304E-01
      9.656  0.2872E-02  0.9338E-01
      9.773  0.3033E-02  0.9372E-01
      9.891  0.3445E-02  0.9410E-01
     10.009  0.3846E-02  0.9454E-01
     10.127  0.3442E-02  0.9497E-01
     10.245  0.3187E-02  0.9536E-01
     10.362  0.2893E-02  0.9572E-01
     10.480  0.2462E-02  0.9603E-01
     10.598  0.2221E-02  0.9631E-01
     10.716  0.2085E-02  0.9656E-01
     10.833  0.1933E-02  0.9680E-01
     10.951  0.2053E-02  0.9703E-01
     11.069  0.2182E-02  0.9728E-01
     11.187  0.2353E-02  0.9755E-01
     11.304  0.2581E-02  0.9784E-01
     11.422  0.2885E-02  0.9816E-01
     11.540  0.3317E-02  0.9852E-01
     11.658  0.4777E-02  0.9899E-01
     11.776  0.5765E-02  0.9961E-01
     11.893  0.7524E-02  0.1004E+00
     12.011  0.8755E-02  0.1014E+00
     12.129  0.9381E-02  0.1024E+00
     12.247  0.1028E-01  0.1036E+00
     12.364  0.9741E-02  0.1048E+00
     12.482  0.9452E-02  0.1059E+00
     12.600  0.9180E-02  0.1070E+00
     12.718  0.1521E-01  0.1086E+00
     12.835  0.1046E-01  0.1100E+00
     12.953  0.6849E-02  0.1111E+00
     13.071  0.5538E-02  0.1117E+00
     13.189  0.4933E-02  0.1123E+00
     13.307  0.4454E-02  0.1129E+00
     13.424  0.4246E-02  0.1134E+00
     13.542  0.4004E-02  0.1139E+00
     13.660  0.3622E-02  0.1143E+00
     13.778  0.3298E-02  0.1147E+00
     13.895  0.3046E-02  0.1151E+00
     14.013  0.2909E-02  0.1155E+00
     14.131  0.3013E-02  0.1158E+00
     14.249  0.3823E-02  0.1162E+00
     14.367  0.4411E-02  0.1167E+00
     14.484  0.3605E-02  0.1172E+00
     14.602  0.3682E-02  0.1176E+00
     14.720  0.4431E-02  0.1181E+00
     14.838  0.3613E-02  0.1186E+00
     14.955  0.2507E-02  0.1190E+00
     15.073  0.2094E-02  0.1192E+00
     15.191  0.1888E-02  0.1195E+00
     15.309  0.1670E-02  0.1197E+00
     15.426  0.9850E-03  0.1198E+00
     15.544  0.6569E-03  0.1199E+00
     15.662  0.2313E-03  0.1200E+00
     15.780  0.1005E-03  0.1200E+00
     15.898  0.2366E-04  0.1200E+00
     16.015  0.5605E-08  0.1200E+00
     16.133  0.0000E+00  0.1200E+00
     16.251  0.0000E+00  0.1200E+00
     16.369  0.0000E+00  0.1200E+00
     16.486  0.0000E+00  0.1200E+00
     16.604  0.0000E+00  0.1200E+00
     16.722  0.0000E+00  0.1200E+00
     16.840  0.0000E+00  0.1200E+00
     16.958  0.0000E+00  0.1200E+00
     17.075  0.0000E+00  0.1200E+00
     17.193  0.0000E+00  0.1200E+00
     17.311  0.0000E+00  0.1200E+00
     17.429  0.0000E+00  0.1200E+00
     17.546  0.0000E+00  0.1200E+00
     17.664  0.0000E+00  0.1200E+00
     17.782  0.0000E+00  0.1200E+00
     17.900  0.0000E+00  0.1200E+00
     18.017  0.0000E+00  0.1200E+00
