    4    4  200    1
  0.9254429E+01  0.2466437E-09  0.2466437E-09  0.7029656E-09  0.5000000E-15
  1.000000000000000E-004
  CAR 
 graphite                                
     16    215     12
 
  0.0000000E+00  0.0000000E+00  0.0000000E+00  0.8680556E-03
    1      -15.314274
    2      -15.106944
    3       -4.040694
    4       -2.499971
    5        1.264973
    6        1.276298
    7        1.281672
    8        1.292629
    9        8.231821
   10       12.612302
   11       12.615766
   12       12.646479
 
  0.8333333E-01 -0.6938894E-17  0.0000000E+00  0.3472222E-02
    1      -15.148999
    2      -14.943785
    3       -3.840351
    4       -2.310448
    5        0.620718
    6        0.641723
    7        0.927380
    8        0.944704
    9        8.435661
   10       12.663041
   11       12.722735
   12       13.306617
 
  0.1666667E+00 -0.1387779E-16  0.0000000E+00  0.3472222E-02
    1      -14.654896
    2      -14.456220
    3       -3.244005
    4       -1.748078
    5       -1.029565
    6       -0.987871
    7        0.130283
    8        0.155297
    9        9.048371
   10       12.568875
   11       12.700807
   12       13.501290
 
  0.2500000E+00  0.0000000E+00  0.0000000E+00  0.3472222E-02
    1      -13.837868
    2      -13.649924
    3       -3.142059
    4       -3.077006
    5       -2.267579
    6       -0.836077
    7       -0.752349
    8       -0.722437
    9       10.064654
   10       11.300048
   11       11.769437
   12       12.247378
 
  0.3333333E+00 -0.2775558E-16  0.0000000E+00  0.3472222E-02
    1      -12.710333
    2      -12.536931
    3       -5.359361
    4       -5.270681
    5       -1.487276
    6       -1.454268
    7       -0.952350
    8        0.362747
    9        8.885339
   10        9.569973
   11       11.429298
   12       11.903366
 
  0.4166667E+00  0.0000000E+00  0.0000000E+00  0.3472222E-02
    1      -11.303400
    2      -11.149808
    3       -7.471565
    4       -7.362444
    5       -1.960793
    6       -1.926302
    7        0.573479
    8        1.629155
    9        6.726902
   10        7.500883
   11       11.617574
   12       11.877909
 
  0.5000000E+00  0.0000000E+00  0.0000000E+00  0.1736111E-02
    1      -10.005197
    2       -9.928888
    3       -8.948199
    4       -8.890148
    5       -2.123218
    6       -2.088466
    7        1.625649
    8        2.159165
    9        5.787494
   10        6.351610
   11       11.529445
   12       11.807492
 
  0.8333333E-01  0.8333333E-01  0.0000000E+00  0.1736111E-02
    1      -14.819009
    2      -14.618199
    3       -3.441682
    4       -1.934001
    5       -0.413509
    6       -0.393181
    7        0.250122
    8        0.264973
    9        8.845326
   10       12.942507
   11       13.030877
   12       14.078379
 
  0.1666667E+00  0.8333333E-01  0.0000000E+00  0.3472222E-02
    1      -14.163236
    2      -13.971046
    3       -2.654145
    4       -2.139521
    5       -2.095043
    6       -1.195060
    7       -0.753364
    8       -0.725397
    9        9.664360
   10       12.213980
   11       12.537902
   12       13.040652
 
  0.2500000E+00  0.8333333E-01  0.0000000E+00  0.3472222E-02
    1      -13.190474
    2      -13.010975
    3       -4.229203
    4       -4.156696
    5       -1.644710
    6       -1.606873
    7       -1.503187
    8       -0.130520
    9        9.972735
   10       10.491918
   11       10.880870
   12       12.757222
 
  0.3333333E+00  0.8333333E-01  0.0000000E+00  0.3472222E-02
    1      -11.920114
    2      -11.757411
    3       -6.366493
    4       -6.269290
    5       -2.282323
    6       -2.240176
    7       -0.057243
    8        1.151275
    9        7.686129
   10        8.385285
   11       12.338679
   12       12.514913
 
  0.4166667E+00  0.8333333E-01  0.0000000E+00  0.3472222E-02
    1      -10.425583
    2      -10.291906
    3       -8.314103
    4       -8.205752
    5       -2.612608
    6       -2.568426
    7        1.419875
    8        2.199455
    9        6.001273
   10        6.625947
   11       12.259875
   12       12.554133
 
  0.5000000E+00  0.8333333E-01  0.0000000E+00  0.3472222E-02
    1      -10.427955
    2      -10.294193
    3       -8.311368
    4       -8.202899
    5       -2.613329
    6       -2.569331
    7        1.418427
    8        2.198875
    9        6.001515
   10        6.627630
   11       12.260867
   12       12.555116
 
 -0.4166667E+00  0.8333333E-01  0.0000000E+00  0.3472222E-02
    1      -11.922282
    2      -11.759574
    3       -6.363036
    4       -6.265788
    5       -2.284668
    6       -2.242471
    7       -0.059116
    8        1.149691
    9        7.686800
   10        8.387423
   11       12.338985
   12       12.515566
 
 -0.3333333E+00  0.8333333E-01  0.0000000E+00  0.3472222E-02
    1      -13.192172
    2      -13.012666
    3       -4.225958
    4       -4.153403
    5       -1.647766
    6       -1.609884
    7       -1.504823
    8       -0.132047
    9        9.972194
   10       10.493539
   11       10.878601
   12       12.761791
 
 -0.2500000E+00  0.8333333E-01  0.0000000E+00  0.3472222E-02
    1      -14.164446
    2      -13.972251
    3       -2.655376
    4       -2.138773
    5       -2.094293
    6       -1.196242
    7       -0.754326
    8       -0.726451
    9        9.662713
   10       12.211332
   11       12.538757
   12       13.046647
 
 -0.1666667E+00  0.8333333E-01  0.0000000E+00  0.3472222E-02
    1      -14.819734
    2      -14.618918
    3       -3.442440
    4       -1.934739
    5       -0.421699
    6       -0.400894
    7        0.257961
    8        0.272822
    9        8.844310
   10       12.949854
   11       13.039260
   12       14.068555
 
 -0.8333333E-01  0.8333333E-01  0.0000000E+00  0.1736111E-02
    1      -15.149240
    2      -14.944025
    3       -3.840607
    4       -2.310697
    5        0.607715
    6        0.628949
    7        0.940470
    8        0.957647
    9        8.435313
   10       12.667580
   11       12.727498
   12       13.313509
 
  0.1666667E+00  0.1666667E+00  0.0000000E+00  0.1736111E-02
    1      -13.351636
    2      -13.170046
    3       -3.469129
    4       -3.434076
    5       -2.113266
    6       -2.087676
    7       -1.689130
    8       -0.298126
    9       10.485781
   10       10.687836
   11       10.835471
   12       14.212028
 
  0.2500000E+00  0.1666667E+00  0.0000000E+00  0.3472222E-02
    1      -12.234604
    2      -12.067583
    3       -5.215525
    4       -5.147064
    5       -3.181163
    6       -3.134240
    7       -0.388131
    8        0.886226
    9        8.483717
   10        8.950508
   11       12.096834
   12       14.352026
 
  0.3333333E+00  0.1666667E+00  0.0000000E+00  0.3472222E-02
    1      -10.847377
    2      -10.700135
    3       -7.142407
    4       -7.044217
    5       -3.764932
    6       -3.705855
    7        1.134276
    8        2.170652
    9        6.540311
   10        7.112430
   11       13.818987
   12       14.135539
 
  0.4166667E+00  0.1666667E+00  0.0000000E+00  0.3472222E-02
    1       -9.581604
    2       -9.508621
    3       -8.547438
    4       -8.496211
    5       -3.952882
    6       -3.890686
    7        2.224441
    8        2.747395
    9        5.680268
   10        5.954499
   11       14.009743
   12       14.422658
 
  0.5000000E+00  0.1666667E+00  0.0000000E+00  0.3472222E-02
    1      -10.852101
    2      -10.704839
    3       -7.136100
    4       -7.037764
    5       -3.767316
    6       -3.708167
    7        1.130650
    8        2.167929
    9        6.540390
   10        7.117117
   11       13.813297
   12       14.137076
 
 -0.4166667E+00  0.1666667E+00  0.0000000E+00  0.3472222E-02
    1      -12.238493
    2      -12.071453
    3       -5.210020
    4       -5.141309
    5       -3.184197
    6       -3.137189
    7       -0.391664
    8        0.882942
    9        8.481868
   10        8.954670
   11       12.091617
   12       14.358247
 
 -0.3333333E+00  0.1666667E+00  0.0000000E+00  0.3472222E-02
    1      -13.354540
    2      -13.172941
    3       -3.470734
    4       -3.434848
    5       -2.110680
    6       -2.084613
    7       -1.691987
    8       -0.300892
    9       10.480335
   10       10.683976
   11       10.837818
   12       14.231621
 
 -0.2500000E+00  0.1666667E+00  0.0000000E+00  0.3472222E-02
    1      -14.165167
    2      -13.972968
    3       -2.656130
    4       -2.149801
    5       -2.104825
    6       -1.197003
    7       -0.742092
    8       -0.713969
    9        9.661783
   10       12.207035
   11       12.536713
   12       13.066064
 
 -0.1666667E+00  0.1666667E+00  0.0000000E+00  0.1736111E-02
    1      -14.655859
    2      -14.457180
    3       -3.245018
    4       -1.749075
    5       -1.043256
    6       -1.001317
    7        0.145089
    8        0.170013
    9        9.047064
   10       12.587434
   11       12.718922
   12       13.494089
 
  0.2500000E+00  0.2500000E+00  0.0000000E+00  0.1736111E-02
    1      -10.996129
    2      -10.845940
    3       -6.246313
    4       -6.196759
    5       -4.658329
    6       -4.621386
    7        1.020141
    8        2.136940
    9        6.876172
   10        7.320857
   11       13.657645
   12       15.989781
 
  0.3333333E+00  0.2500000E+00  0.0000000E+00  0.3472222E-02
    1       -9.558672
    2       -9.436997
    3       -7.683519
    4       -7.602373
    5       -5.381051
    6       -5.318198
    7        2.535075
    8        3.316532
    9        5.405929
   10        5.810188
   11       15.422943
   12       15.604829
 
  0.4166667E+00  0.2500000E+00  0.0000000E+00  0.3472222E-02
    1       -9.565848
    2       -9.444043
    3       -7.676018
    4       -7.594221
    5       -5.381883
    6       -5.318929
    7        2.530593
    8        3.314137
    9        5.402738
   10        5.818082
   11       15.411109
   12       15.616140
 
  0.5000000E+00  0.2500000E+00  0.0000000E+00  0.3472222E-02
    1      -11.002603
    2      -10.852472
    3       -6.242591
    4       -6.191845
    5       -4.656602
    6       -4.618909
    7        1.014832
    8        2.131751
    9        6.872674
   10        7.327601
   11       13.648693
   12       16.017491
 
 -0.4166667E+00  0.2500000E+00  0.0000000E+00  0.3472222E-02
    1      -12.239699
    2      -12.072672
    3       -5.219964
    4       -5.150843
    5       -3.172080
    6       -3.124772
    7       -0.392824
    8        0.881476
    9        8.477652
   10        8.952806
   11       12.090193
   12       14.389381
 
 -0.3333333E+00  0.2500000E+00  0.0000000E+00  0.3472222E-02
    1      -13.194099
    2      -13.014589
    3       -4.238758
    4       -4.165975
    5       -1.630958
    6       -1.593082
    7       -1.506769
    8       -0.134150
    9        9.964967
   10       10.489109
   11       10.876310
   12       12.790529
 
 -0.2500000E+00  0.2500000E+00  0.0000000E+00  0.1736111E-02
    1      -13.840034
    2      -13.652083
    3       -3.154960
    4       -3.089720
    5       -2.269804
    6       -0.838328
    7       -0.735871
    8       -0.706026
    9       10.061924
   10       11.292043
   11       11.764623
   12       12.274902
 
  0.3333333E+00  0.3333333E+00  0.0000000E+00  0.1736111E-02
    1       -8.350605
    2       -8.287047
    3       -8.285150
    4       -8.222793
    5       -6.240150
    6       -6.239498
    7        3.800697
    8        4.266778
    9        4.273646
   10        4.818006
   11       15.256978
   12       15.276965
 
  0.4166667E+00  0.3333333E+00  0.0000000E+00  0.3472222E-02
    1       -9.568493
    2       -9.447083
    3       -7.681705
    4       -7.599951
    5       -5.372769
    6       -5.309440
    7        2.529730
    8        3.307758
    9        5.403984
   10        5.817614
   11       15.409783
   12       15.619217
 
  0.5000000E+00  0.3333333E+00  0.0000000E+00  0.3472222E-02
    1      -10.855269
    2      -10.708112
    3       -7.145980
    4       -7.047554
    5       -3.752157
    6       -3.692984
    7        1.128250
    8        2.162999
    9        6.536518
   10        7.113489
   11       13.812698
   12       14.171512
 
 -0.4166667E+00  0.3333333E+00  0.0000000E+00  0.3472222E-02
    1      -11.925972
    2      -11.763293
    3       -6.374159
    4       -6.276952
    5       -2.266574
    6       -2.224435
    7       -0.062486
    8        1.145234
    9        7.679889
   10        8.381128
   11       12.350706
   12       12.541026
 
 -0.3333333E+00  0.3333333E+00  0.0000000E+00  0.1736111E-02
    1      -12.714205
    2      -12.541062
    3       -5.370478
    4       -5.281604
    5       -1.469489
    6       -1.436541
    7       -0.956109
    8        0.358604
    9        8.877262
   10        9.563519
   11       11.427745
   12       11.934761
 
  0.4166667E+00  0.4166667E+00  0.0000000E+00  0.1736111E-02
    1       -9.591336
    2       -9.519990
    3       -8.548811
    4       -8.498712
    5       -3.938142
    6       -3.875952
    7        2.222784
    8        2.733602
    9        5.683549
   10        5.949485
   11       14.047006
   12       14.460661
 
  0.5000000E+00  0.4166667E+00  0.0000000E+00  0.3472222E-02
    1      -10.434717
    2      -10.301397
    3       -8.318532
    4       -8.210322
    5       -2.595270
    6       -2.551328
    7        1.414877
    8        2.188477
    9        6.000230
   10        6.619436
   11       12.295647
   12       12.590001
 
 -0.4166667E+00  0.4166667E+00  0.0000000E+00  0.1736111E-02
    1      -11.309673
    2      -11.156175
    3       -7.479849
    4       -7.370688
    5       -1.942184
    6       -1.907753
    7        0.568482
    8        1.621595
    9        6.721934
   10        7.493248
   11       11.651138
   12       11.911301
 
  0.5000000E+00  0.5000000E+00  0.0000000E+00  0.8680556E-03
    1      -10.015695
    2       -9.941139
    3       -8.950655
    4       -8.893873
    5       -2.104333
    6       -2.069640
    7        1.623329
    8        2.144483
    9        5.789412
   10        6.340725
   11       11.563916
   12       11.842010
 
  0.0000000E+00  0.0000000E+00  0.1250000E+00  0.1736111E-02
    1      -15.306787
    2      -15.115196
    3       -3.990507
    4       -2.570517
    5        1.265405
    6        1.275858
    7        1.282110
    8        1.292270
    9        8.395940
   10       12.610599
   11       12.622268
   12       12.645234
 
  0.8333333E-01 -0.6938894E-17  0.1250000E+00  0.6944444E-02
    1      -15.141508
    2      -14.951981
    3       -3.790566
    4       -2.380272
    5        0.621528
    6        0.640989
    7        0.928028
    8        0.944060
    9        8.598604
   10       12.661524
   11       12.720802
   12       13.311964
 
  0.1666667E+00 -0.1387779E-16  0.1250000E+00  0.6944444E-02
    1      -14.647648
    2      -14.464099
    3       -3.195045
    4       -1.816142
    5       -1.027925
    6       -0.989489
    7        0.131212
    8        0.154402
    9        9.207373
   10       12.567829
   11       12.695569
   12       13.505873
 
  0.2500000E+00  0.0000000E+00  0.1250000E+00  0.6944444E-02
    1      -13.830972
    2      -13.657282
    3       -3.139498
    4       -3.079515
    5       -2.220350
    6       -0.900619
    7       -0.751202
    8       -0.723397
    9       10.210830
   10       11.322495
   11       11.745090
   12       12.252921
 
  0.3333333E+00 -0.2775558E-16  0.1250000E+00  0.6944444E-02
    1      -12.703990
    2      -12.543893
    3       -5.356067
    4       -5.274080
    5       -1.485948
    6       -1.455582
    7       -0.908467
    8        0.304563
    9        8.903484
   10        9.537715
   11       11.556197
   12       11.915319
 
  0.4166667E+00  0.0000000E+00  0.1250000E+00  0.6944444E-02
    1      -11.297716
    2      -11.155926
    3       -7.467581
    4       -7.366684
    5       -1.959519
    6       -1.927651
    7        0.610741
    8        1.585894
    9        6.745452
   10        7.461540
   11       11.627792
   12       11.868414
 
  0.5000000E+00  0.0000000E+00  0.1250000E+00  0.3472222E-02
    1      -10.002018
    2       -9.931444
    3       -8.946818
    4       -8.893043
    5       -2.121909
    6       -2.089779
    7        1.650146
    8        2.145189
    9        5.789446
   10        6.312395
   11       11.539685
   12       11.796630
 
  0.8333333E-01  0.8333333E-01  0.1250000E+00  0.3472222E-02
    1      -14.811705
    2      -14.626185
    3       -3.392498
    4       -2.002755
    5       -0.412659
    6       -0.393952
    7        0.250660
    8        0.264335
    9        9.005829
   10       12.936747
   11       13.028112
   12       14.152094
 
  0.1666667E+00  0.8333333E-01  0.1250000E+00  0.6944444E-02
    1      -14.156203
    2      -13.978625
    3       -2.606268
    4       -2.137834
    5       -2.096734
    6       -1.261086
    7       -0.752310
    8       -0.726520
    9        9.818951
   10       12.225179
   11       12.520874
   12       13.042244
 
  0.2500000E+00  0.8333333E-01  0.1250000E+00  0.6944444E-02
    1      -13.183911
    2      -13.018053
    3       -4.226529
    4       -4.159536
    5       -1.643306
    6       -1.608424
    7       -1.457758
    8       -0.191889
    9        9.984402
   10       10.468681
   11       11.033810
   12       12.763723
 
  0.3333333E+00  0.8333333E-01  0.1250000E+00  0.6944444E-02
    1      -11.914149
    2      -11.763805
    3       -6.362842
    4       -6.273189
    5       -2.280755
    6       -2.241818
    7       -0.016185
    8        1.098976
    9        7.706068
   10        8.353057
   11       12.391747
   12       12.551433
 
  0.4166667E+00  0.8333333E-01  0.1250000E+00  0.6944444E-02
    1      -10.420589
    2      -10.297103
    3       -8.310139
    4       -8.210021
    5       -2.610883
    6       -2.570143
    7        1.450490
    8        2.172224
    9        6.010443
   10        6.589717
   11       12.270621
   12       12.542449
 
  0.5000000E+00  0.8333333E-01  0.1250000E+00  0.6944444E-02
    1      -10.422954
    2      -10.299403
    3       -8.307379
    4       -8.207166
    5       -2.611718
    6       -2.570966
    7        1.449062
    8        2.171596
    9        6.010756
   10        6.591358
   11       12.271606
   12       12.543431
 
 -0.4166667E+00  0.8333333E-01  0.1250000E+00  0.6944444E-02
    1      -11.916317
    2      -11.765968
    3       -6.359384
    4       -6.269689
    5       -2.283098
    6       -2.244115
    7       -0.018051
    8        1.097374
    9        7.706807
   10        8.355142
   11       12.393315
   12       12.551827
 
 -0.3333333E+00  0.8333333E-01  0.1250000E+00  0.6944444E-02
    1      -13.185601
    2      -13.019742
    3       -4.223279
    4       -4.156245
    5       -1.646361
    6       -1.611386
    7       -1.459391
    8       -0.193423
    9        9.983990
   10       10.470234
   11       11.031466
   12       12.768252
 
 -0.2500000E+00  0.8333333E-01  0.1250000E+00  0.6944444E-02
    1      -14.157413
    2      -13.979830
    3       -2.607498
    4       -2.137087
    5       -2.095985
    6       -1.262270
    7       -0.753277
    8       -0.727572
    9        9.817317
   10       12.222666
   11       12.521676
   12       13.048118
 
 -0.1666667E+00  0.8333333E-01  0.1250000E+00  0.6944444E-02
    1      -14.812430
    2      -14.626916
    3       -3.393254
    4       -2.003483
    5       -0.420895
    6       -0.401703
    7        0.258497
    8        0.272203
    9        9.004814
   10       12.943980
   11       13.036466
   12       13.951323
 
 -0.8333333E-01  0.8333333E-01  0.1250000E+00  0.3472222E-02
    1      -15.141749
    2      -14.952220
    3       -3.790822
    4       -2.380522
    5        0.608537
    6        0.628202
    7        0.941113
    8        0.957008
    9        8.598256
   10       12.666011
   11       12.725563
   12       13.308560
 
  0.1666667E+00  0.1666667E+00  0.1250000E+00  0.3472222E-02
    1      -13.345001
    2      -13.177222
    3       -3.467759
    4       -3.435312
    5       -2.112380
    6       -2.088727
    7       -1.643101
    8       -0.360550
    9       10.498751
   10       10.802494
   11       10.853637
   12       14.205203
 
  0.2500000E+00  0.1666667E+00  0.1250000E+00  0.6944444E-02
    1      -12.228480
    2      -12.074180
    3       -5.212956
    4       -5.149716
    5       -3.179419
    6       -3.136056
    7       -0.345467
    8        0.830095
    9        8.500184
   10        8.931783
   11       12.227494
   12       14.357558
 
  0.3333333E+00  0.1666667E+00  0.1250000E+00  0.6944444E-02
    1      -10.841925
    2      -10.705944
    3       -7.138760
    4       -7.047964
    5       -3.762729
    6       -3.708116
    7        1.170730
    8        2.127994
    9        6.556825
   10        7.086651
   11       13.904077
   12       14.147172
 
  0.4166667E+00  0.1666667E+00  0.1250000E+00  0.6944444E-02
    1       -9.578503
    2       -9.511024
    3       -8.546003
    4       -8.498652
    5       -3.950536
    6       -3.893099
    7        2.248898
    8        2.734353
    9        5.675468
   10        5.932232
   11       14.021703
   12       14.401888
 
  0.5000000E+00  0.1666667E+00  0.1250000E+00  0.6944444E-02
    1      -10.846690
    2      -10.710649
    3       -7.132448
    4       -7.041518
    5       -3.765111
    6       -3.710432
    7        1.167123
    8        2.125206
    9        6.557103
   10        7.091160
   11       13.898652
   12       14.148407
 
 -0.4166667E+00  0.1666667E+00  0.1250000E+00  0.6944444E-02
    1      -12.232354
    2      -12.078106
    3       -5.207376
    4       -5.143964
    5       -3.182464
    6       -3.139010
    7       -0.348982
    8        0.826804
    9        8.498577
   10        8.935695
   11       12.222225
   12       14.363632
 
 -0.3333333E+00  0.1666667E+00  0.1250000E+00  0.6944444E-02
    1      -13.347893
    2      -13.180113
    3       -3.469346
    4       -3.436150
    5       -2.109745
    6       -2.085595
    7       -1.645956
    8       -0.363321
    9       10.493576
   10       10.802339
   11       10.851969
   12       14.224693
 
 -0.2500000E+00  0.1666667E+00  0.1250000E+00  0.6944444E-02
    1      -14.158133
    2      -13.980548
    3       -2.608251
    4       -2.148094
    5       -2.106538
    6       -1.263032
    7       -0.741033
    8       -0.715098
    9        9.816368
   10       12.218567
   11       12.519512
   12       13.067415
 
 -0.1666667E+00  0.1666667E+00  0.1250000E+00  0.3472222E-02
    1      -14.648612
    2      -14.465064
    3       -3.196057
    4       -1.817138
    5       -1.041552
    6       -1.002925
    7        0.145975
    8        0.169123
    9        9.206066
   10       12.586237
   11       12.713690
   12       13.499802
 
  0.2500000E+00  0.2500000E+00  0.1250000E+00  0.3472222E-02
    1      -10.990621
    2      -10.851727
    3       -6.244342
    4       -6.198590
    5       -4.657189
    6       -4.623015
    7        1.058496
    8        2.089185
    9        6.893127
   10        7.303522
   11       13.741721
   12       15.659548
 
  0.3333333E+00  0.2500000E+00  0.1250000E+00  0.6944444E-02
    1       -9.554165
    2       -9.441743
    3       -7.680515
    4       -7.605555
    5       -5.378783
    6       -5.320845
    7        2.565296
    8        3.288721
    9        5.416478
   10        5.790197
   11       15.222635
   12       15.431091
 
  0.4166667E+00  0.2500000E+00  0.1250000E+00  0.6944444E-02
    1       -9.561338
    2       -9.448803
    3       -7.672995
    4       -7.597426
    5       -5.379630
    6       -5.321584
    7        2.560833
    8        3.286162
    9        5.413764
   10        5.797713
   11       15.210439
   12       15.440380
 
  0.5000000E+00  0.2500000E+00  0.1250000E+00  0.6944444E-02
    1      -10.997130
    2      -10.858328
    3       -6.240584
    4       -6.193716
    5       -4.655447
    6       -4.620565
    7        1.053188
    8        2.084000
    9        6.889970
   10        7.309829
   11       13.732765
   12       15.666550
 
 -0.4166667E+00  0.2500000E+00  0.1250000E+00  0.6944444E-02
    1      -12.233642
    2      -12.079268
    3       -5.217374
    4       -5.153534
    5       -3.170319
    6       -3.126607
    7       -0.350160
    8        0.825350
    9        8.494358
   10        8.933690
   11       12.220956
   12       14.394538
 
 -0.3333333E+00  0.2500000E+00  0.1250000E+00  0.6944444E-02
    1      -13.187543
    2      -13.021671
    3       -4.236142
    4       -4.168825
    5       -1.629553
    6       -1.594639
    7       -1.461343
    8       -0.195518
    9        9.976654
   10       10.465621
   11       11.029502
   12       12.796921
 
 -0.2500000E+00  0.2500000E+00  0.1250000E+00  0.3472222E-02
    1      -13.833139
    2      -13.659440
    3       -3.152392
    4       -3.092236
    5       -2.222576
    6       -0.902868
    7       -0.734727
    8       -0.706983
    9       10.207971
   10       11.314896
   11       11.740168
   12       12.280332
 
  0.3333333E+00  0.3333333E+00  0.1250000E+00  0.3472222E-02
    1       -8.345886
    2       -8.286817
    3       -8.284916
    4       -8.227578
    5       -6.240442
    6       -6.239839
    7        3.835530
    8        4.269796
    9        4.276154
   10        4.774365
   11       15.088345
   12       15.105389
 
  0.4166667E+00  0.3333333E+00  0.1250000E+00  0.6944444E-02
    1       -9.563997
    2       -9.451826
    3       -7.678687
    4       -7.603159
    5       -5.370499
    6       -5.312109
    7        2.559857
    8        3.280135
    9        5.414754
   10        5.797166
   11       15.210248
   12       15.445778
 
  0.5000000E+00  0.3333333E+00  0.1250000E+00  0.6944444E-02
    1      -10.849862
    2      -10.713916
    3       -7.142326
    4       -7.051312
    5       -3.749951
    6       -3.695250
    7        1.164668
    8        2.120437
    9        6.553092
   10        7.087403
   11       13.899967
   12       14.182140
 
 -0.4166667E+00  0.3333333E+00  0.1250000E+00  0.6944444E-02
    1      -11.920007
    2      -11.769684
    3       -6.370502
    4       -6.280703
    5       -2.265005
    6       -2.226075
    7       -0.021444
    8        1.092991
    9        7.699794
   10        8.348728
   11       12.413518
   12       12.575041
 
 -0.3333333E+00  0.3333333E+00  0.1250000E+00  0.3472222E-02
    1      -12.707862
    2      -12.547830
    3       -5.367128
    4       -5.284996
    5       -1.468159
    6       -1.437851
    7       -0.912234
    8        0.300444
    9        8.895336
   10        9.531135
   11       11.556947
   12       11.946295
 
  0.4166667E+00  0.4166667E+00  0.1250000E+00  0.3472222E-02
    1       -9.588310
    2       -9.522382
    3       -8.547440
    4       -8.501152
    5       -3.935822
    6       -3.878374
    7        2.246899
    8        2.721142
    9        5.678212
   10        5.927286
   11       14.058990
   12       14.439618
 
  0.5000000E+00  0.4166667E+00  0.1250000E+00  0.6944444E-02
    1      -10.429731
    2      -10.306589
    3       -8.314556
    4       -8.214582
    5       -2.593661
    6       -2.552960
    7        1.445352
    8        2.161588
    9        6.008993
   10        6.583245
   11       12.306403
   12       12.578305
 
 -0.4166667E+00  0.4166667E+00  0.1250000E+00  0.3472222E-02
    1      -11.303991
    2      -11.162358
    3       -7.475880
    4       -7.374938
    5       -1.940913
    6       -1.909100
    7        0.605686
    8        1.578496
    9        6.740230
   10        7.453897
   11       11.661395
   12       11.901861
 
  0.5000000E+00  0.5000000E+00  0.1250000E+00  0.1736111E-02
    1      -10.012580
    2       -9.943621
    3       -8.949341
    4       -8.896711
    5       -2.103025
    6       -2.070952
    7        1.647507
    8        2.131111
    9        5.790664
   10        6.301773
   11       11.574159
   12       11.831132
 
  0.0000000E+00  0.0000000E+00  0.2500000E+00  0.1736111E-02
    1      -15.285128
    2      -15.138621
    3       -3.845130
    4       -2.764134
    5        1.266624
    6        1.274601
    7        1.283268
    8        1.290987
    9        8.868775
   10       12.617426
   11       12.621407
   12       12.638448
 
  0.8333333E-01 -0.6938894E-17  0.2500000E+00  0.6944444E-02
    1      -15.120099
    2      -14.975105
    3       -3.645963
    4       -2.572501
    5        0.623802
    6        0.638700
    7        0.929917
    8        0.942258
    9        9.068004
   10       12.606633
   11       12.714950
   12       12.843843
 
  0.1666667E+00 -0.1387779E-16  0.2500000E+00  0.6944444E-02
    1      -14.626862
    2      -14.486497
    3       -3.053347
    4       -2.003417
    5       -1.023422
    6       -0.993999
    7        0.133916
    8        0.151692
    9        9.665156
   10       12.550335
   11       12.680870
   12       13.288111
 
  0.2500000E+00  0.0000000E+00  0.2500000E+00  0.6944444E-02
    1      -13.811295
    2      -13.678409
    3       -3.132522
    4       -3.086673
    5       -2.083930
    6       -1.078677
    7       -0.748044
    8       -0.726688
    9       10.621069
   10       11.395478
   11       11.677768
   12       12.265705
 
  0.3333333E+00 -0.2775558E-16  0.2500000E+00  0.6944444E-02
    1      -12.685792
    2      -12.563338
    3       -5.346676
    4       -5.283963
    5       -1.482438
    6       -1.459177
    7       -0.781475
    8        0.143388
    9        8.960430
   10        9.448730
   11       11.819011
   12       11.958137
 