diamond                                 
           1
     2.468576    0.000000    0.000000
     1.234288    2.137849    0.000000
     1.234288    0.712616    2.015584
   C 
   2
Direct configuration=     1
   0.00000000  0.00000000  0.00000000
   0.25000000  0.25000000  0.24999999
