  32  32   0   0
  0.9749312E+01  0.4934311E-09  0.4934311E-09  0.1479663E-08  0.5000000E-15
  1.000000000000000E-004
  CAR 
 graphite                                
     14.60775237    -17.69964065  301      3.85622374      1.00000000
    -17.700  0.0000E+00  0.0000E+00
    -17.592  0.0000E+00  0.0000E+00
    -17.484  0.0000E+00  0.0000E+00
    -17.377  0.0000E+00  0.0000E+00
    -17.269  0.0000E+00  0.0000E+00
    -17.161  0.0000E+00  0.0000E+00
    -17.053  0.0000E+00  0.0000E+00
    -16.946  0.0000E+00  0.0000E+00
    -16.838  0.0000E+00  0.0000E+00
    -16.730  0.0000E+00  0.0000E+00
    -16.623  0.0000E+00  0.0000E+00
    -16.515  0.0000E+00  0.0000E+00
    -16.407  0.0000E+00  0.0000E+00
    -16.300  0.0000E+00  0.0000E+00
    -16.192  0.0000E+00  0.0000E+00
    -16.084  0.0000E+00  0.0000E+00
    -15.977  0.0000E+00  0.0000E+00
    -15.869  0.0000E+00  0.0000E+00
    -15.761  0.0000E+00  0.0000E+00
    -15.654  0.1304E+01  0.2338E-01
    -15.546  0.4439E+01  0.3351E+00
    -15.438  0.4987E+01  0.8657E+00
    -15.330  0.4857E+01  0.1400E+01
    -15.223  0.4978E+01  0.1922E+01
    -15.115  0.5017E+01  0.2464E+01
    -15.007  0.4844E+01  0.2993E+01
    -14.900  0.4938E+01  0.3518E+01
    -14.792  0.5079E+01  0.4060E+01
    -14.684  0.4953E+01  0.4601E+01
    -14.577  0.4990E+01  0.5133E+01
    -14.469  0.5838E+01  0.5710E+01
    -14.361  0.5895E+01  0.6365E+01
    -14.254  0.6530E+01  0.7024E+01
    -14.146  0.2433E+01  0.7620E+01
    -14.038  0.2280E+01  0.7818E+01
    -13.930  0.4397E+01  0.8177E+01
    -13.823  0.4651E+01  0.8694E+01
    -13.715  0.4393E+01  0.9150E+01
    -13.607  0.8539E+01  0.1005E+02
    -13.500  0.4288E+01  0.1067E+02
    -13.392  0.4360E+01  0.1113E+02
    -13.284  0.4468E+01  0.1161E+02
    -13.177  0.4570E+01  0.1209E+02
    -13.069  0.4673E+01  0.1259E+02
    -12.961  0.5740E+01  0.1314E+02
    -12.854  0.5773E+01  0.1381E+02
    -12.746  0.5411E+01  0.1439E+02
    -12.638  0.5734E+01  0.1499E+02
    -12.530  0.5022E+01  0.1557E+02
    -12.423  0.4794E+01  0.1609E+02
    -12.315  0.4881E+01  0.1661E+02
    -12.207  0.4946E+01  0.1714E+02
    -12.100  0.4987E+01  0.1767E+02
    -11.992  0.5017E+01  0.1821E+02
    -11.884  0.5901E+01  0.1880E+02
    -11.777  0.5757E+01  0.1943E+02
    -11.669  0.5614E+01  0.2004E+02
    -11.561  0.5563E+01  0.2064E+02
    -11.454  0.5714E+01  0.2125E+02
    -11.346  0.5058E+01  0.2186E+02
    -11.238  0.5369E+01  0.2241E+02
    -11.130  0.5480E+01  0.2300E+02
    -11.023  0.5422E+01  0.2358E+02
    -10.915  0.5546E+01  0.2417E+02
    -10.807  0.5768E+01  0.2478E+02
    -10.700  0.5992E+01  0.2541E+02
    -10.592  0.9544E+01  0.2617E+02
    -10.484  0.8632E+01  0.2726E+02
    -10.377  0.5576E+01  0.2801E+02
    -10.269  0.7195E+01  0.2859E+02
    -10.161  0.3857E+01  0.2937E+02
    -10.054  0.3490E+01  0.2976E+02
     -9.946  0.3123E+01  0.3012E+02
     -9.838  0.2756E+01  0.3043E+02
     -9.730  0.2389E+01  0.3071E+02
     -9.623  0.2524E+01  0.3096E+02
     -9.515  0.3289E+01  0.3131E+02
     -9.407  0.1379E+01  0.3153E+02
     -9.300  0.1743E+01  0.3168E+02
     -9.192  0.2679E+01  0.3192E+02
     -9.084  0.7455E+01  0.3242E+02
     -8.977  0.3806E+01  0.3315E+02
     -8.869  0.3982E+01  0.3356E+02
     -8.761  0.4308E+01  0.3401E+02
     -8.654  0.9950E+01  0.3477E+02
     -8.546  0.6527E+01  0.3547E+02
     -8.438  0.7672E+01  0.3623E+02
     -8.330  0.8657E+01  0.3711E+02
     -8.223  0.7357E+01  0.3806E+02
     -8.115  0.6253E+01  0.3875E+02
     -8.007  0.5999E+01  0.3941E+02
     -7.900  0.5747E+01  0.4004E+02
     -7.792  0.5515E+01  0.4065E+02
     -7.684  0.5331E+01  0.4123E+02
     -7.577  0.5149E+01  0.4179E+02
     -7.469  0.4954E+01  0.4234E+02
     -7.361  0.4855E+01  0.4286E+02
     -7.254  0.4825E+01  0.4339E+02
     -7.146  0.4793E+01  0.4390E+02
     -7.038  0.4611E+01  0.4441E+02
     -6.931  0.4398E+01  0.4489E+02
     -6.823  0.4343E+01  0.4537E+02
     -6.715  0.3994E+01  0.4578E+02
     -6.607  0.4312E+01  0.4622E+02
     -6.500  0.4939E+01  0.4672E+02
     -6.392  0.5888E+01  0.4730E+02
     -6.284  0.6548E+01  0.4797E+02
     -6.177  0.1044E+02  0.4894E+02
     -6.069  0.8271E+01  0.4995E+02
     -5.961  0.6104E+01  0.5072E+02
     -5.854  0.3937E+01  0.5126E+02
     -5.746  0.2794E+01  0.5160E+02
     -5.638  0.3192E+01  0.5191E+02
     -5.531  0.4443E+01  0.5232E+02
     -5.423  0.5697E+01  0.5287E+02
     -5.315  0.7291E+01  0.5355E+02
     -5.207  0.7840E+01  0.5441E+02
     -5.100  0.6674E+01  0.5519E+02
     -4.992  0.5532E+01  0.5585E+02
     -4.884  0.7655E+01  0.5654E+02
     -4.777  0.7156E+01  0.5734E+02
     -4.669  0.6658E+01  0.5808E+02
     -4.561  0.6159E+01  0.5877E+02
     -4.454  0.5660E+01  0.5941E+02
     -4.346  0.5162E+01  0.5999E+02
     -4.238  0.7992E+01  0.6097E+02
     -4.131  0.9598E+01  0.6195E+02
     -4.023  0.8901E+01  0.6295E+02
     -3.915  0.7041E+01  0.6382E+02
     -3.807  0.6541E+01  0.6453E+02
     -3.700  0.7112E+01  0.6526E+02
     -3.592  0.8514E+01  0.6610E+02
     -3.484  0.1034E+02  0.6710E+02
     -3.377  0.1478E+02  0.6846E+02
     -3.269  0.1320E+02  0.7002E+02
     -3.161  0.1309E+02  0.7141E+02
     -3.054  0.1370E+02  0.7296E+02
     -2.946  0.1707E+02  0.7446E+02
     -2.838  0.1384E+02  0.7614E+02
     -2.731  0.1920E+02  0.7761E+02
     -2.623  0.1128E+02  0.7924E+02
     -2.515  0.1570E+02  0.8056E+02
     -2.407  0.1728E+02  0.8264E+02
     -2.300  0.1725E+02  0.8461E+02
     -2.192  0.1549E+02  0.8647E+02
     -2.084  0.1178E+02  0.8797E+02
     -1.977  0.6954E+01  0.8895E+02
     -1.869  0.1166E+02  0.8980E+02
     -1.761  0.8776E+01  0.9098E+02
     -1.654  0.9464E+01  0.9193E+02
     -1.546  0.1280E+02  0.9326E+02
     -1.438  0.1853E+02  0.9465E+02
     -1.331  0.9753E+01  0.9602E+02
     -1.223  0.1035E+02  0.9711E+02
     -1.115  0.1130E+02  0.9828E+02
     -1.007  0.1089E+02  0.9948E+02
     -0.900  0.1135E+02  0.1007E+03
     -0.792  0.1023E+02  0.1018E+03
     -0.684  0.9810E+01  0.1029E+03
     -0.577  0.9326E+01  0.1039E+03
     -0.469  0.9048E+01  0.1049E+03
     -0.361  0.8947E+01  0.1059E+03
     -0.254  0.9076E+01  0.1068E+03
     -0.146  0.9758E+01  0.1078E+03
     -0.038  0.9422E+01  0.1089E+03
      0.069  0.9373E+01  0.1099E+03
      0.177  0.9267E+01  0.1109E+03
      0.285  0.9200E+01  0.1119E+03
      0.392  0.9347E+01  0.1129E+03
      0.500  0.9197E+01  0.1139E+03
      0.608  0.9734E+01  0.1149E+03
      0.716  0.1084E+02  0.1160E+03
      0.823  0.7538E+01  0.1170E+03
      0.931  0.6439E+01  0.1177E+03
      1.039  0.5710E+01  0.1184E+03
      1.146  0.4735E+01  0.1189E+03
      1.254  0.4916E+01  0.1194E+03
      1.362  0.3845E+01  0.1199E+03
      1.469  0.5462E+01  0.1204E+03
      1.577  0.9906E+01  0.1212E+03
      1.685  0.1173E+02  0.1224E+03
      1.792  0.7236E+01  0.1233E+03
      1.900  0.5470E+01  0.1240E+03
      2.008  0.4755E+01  0.1246E+03
      2.116  0.4160E+01  0.1250E+03
      2.223  0.3511E+01  0.1254E+03
      2.331  0.3248E+01  0.1258E+03
      2.439  0.2945E+01  0.1261E+03
      2.546  0.2665E+01  0.1264E+03
      2.654  0.2455E+01  0.1267E+03
      2.762  0.2142E+01  0.1270E+03
      2.869  0.1893E+01  0.1272E+03
      2.977  0.1644E+01  0.1274E+03
      3.085  0.1387E+01  0.1275E+03
      3.192  0.1100E+01  0.1277E+03
      3.300  0.8830E+00  0.1278E+03
      3.408  0.6744E+00  0.1279E+03
      3.516  0.4662E+00  0.1279E+03
      3.623  0.2929E+00  0.1280E+03
      3.731  0.1459E+00  0.1280E+03
      3.839  0.1728E-01  0.1280E+03
      3.946  0.8854E-01  0.1280E+03
      4.054  0.2152E+00  0.1280E+03
      4.162  0.3662E+00  0.1281E+03
      4.269  0.5635E+00  0.1281E+03
      4.377  0.7851E+00  0.1282E+03
      4.485  0.1007E+01  0.1283E+03
      4.592  0.1229E+01  0.1284E+03
      4.700  0.1739E+01  0.1286E+03
      4.808  0.2187E+01  0.1288E+03
      4.916  0.2729E+01  0.1290E+03
      5.023  0.2501E+01  0.1293E+03
      5.131  0.3101E+01  0.1296E+03
      5.239  0.3885E+01  0.1300E+03
      5.346  0.7468E+01  0.1305E+03
      5.454  0.9998E+01  0.1313E+03
      5.562  0.9742E+01  0.1324E+03
      5.669  0.8852E+01  0.1334E+03
      5.777  0.7180E+01  0.1342E+03
      5.885  0.6618E+01  0.1350E+03
      5.992  0.5912E+01  0.1356E+03
      6.100  0.5739E+01  0.1363E+03
      6.208  0.5434E+01  0.1369E+03
      6.316  0.4914E+01  0.1374E+03
      6.423  0.4387E+01  0.1379E+03
      6.531  0.3808E+01  0.1384E+03
      6.639  0.3805E+01  0.1388E+03
      6.746  0.4406E+01  0.1392E+03
      6.854  0.4706E+01  0.1397E+03
      6.962  0.4552E+01  0.1402E+03
      7.069  0.4359E+01  0.1407E+03
      7.177  0.4220E+01  0.1412E+03
      7.285  0.4068E+01  0.1416E+03
      7.392  0.3944E+01  0.1420E+03
      7.500  0.3813E+01  0.1424E+03
      7.608  0.3980E+01  0.1429E+03
      7.716  0.4093E+01  0.1433E+03
      7.823  0.4185E+01  0.1437E+03
      7.931  0.4206E+01  0.1442E+03
      8.039  0.4289E+01  0.1447E+03
      8.146  0.4358E+01  0.1451E+03
      8.254  0.4494E+01  0.1456E+03
      8.362  0.4420E+01  0.1461E+03
      8.469  0.4449E+01  0.1466E+03
      8.577  0.4552E+01  0.1470E+03
      8.685  0.4735E+01  0.1475E+03
      8.792  0.4935E+01  0.1481E+03
      8.900  0.4660E+01  0.1486E+03
      9.008  0.4601E+01  0.1491E+03
      9.115  0.4580E+01  0.1496E+03
      9.223  0.4570E+01  0.1501E+03
      9.331  0.4897E+01  0.1506E+03
      9.439  0.5096E+01  0.1511E+03
      9.546  0.5082E+01  0.1516E+03
      9.654  0.4943E+01  0.1522E+03
      9.762  0.4813E+01  0.1527E+03
      9.869  0.4900E+01  0.1532E+03
      9.977  0.5159E+01  0.1538E+03
     10.085  0.5441E+01  0.1544E+03
     10.192  0.6188E+01  0.1550E+03
     10.300  0.3626E+01  0.1555E+03
     10.408  0.3607E+01  0.1559E+03
     10.515  0.4305E+01  0.1563E+03
     10.623  0.4558E+01  0.1568E+03
     10.731  0.4700E+01  0.1573E+03
     10.839  0.4745E+01  0.1578E+03
     10.946  0.4344E+01  0.1583E+03
     11.054  0.4435E+01  0.1588E+03
     11.162  0.6440E+01  0.1593E+03
     11.269  0.9642E+01  0.1602E+03
     11.377  0.1177E+02  0.1613E+03
     11.485  0.1383E+02  0.1627E+03
     11.592  0.1165E+02  0.1641E+03
     11.700  0.1137E+02  0.1653E+03
     11.808  0.7615E+01  0.1663E+03
     11.915  0.5614E+01  0.1670E+03
     12.023  0.3294E+01  0.1675E+03
     12.131  0.1520E+01  0.1678E+03
     12.239  0.8032E+00  0.1679E+03
     12.346  0.4514E+00  0.1680E+03
     12.454  0.1933E+00  0.1680E+03
     12.562  0.2914E-01  0.1680E+03
     12.669  0.0000E+00  0.1680E+03
     12.777  0.0000E+00  0.1680E+03
     12.885  0.0000E+00  0.1680E+03
     12.992  0.0000E+00  0.1680E+03
     13.100  0.0000E+00  0.1680E+03
     13.208  0.0000E+00  0.1680E+03
     13.315  0.0000E+00  0.1680E+03
     13.423  0.0000E+00  0.1680E+03
     13.531  0.0000E+00  0.1680E+03
     13.639  0.0000E+00  0.1680E+03
     13.746  0.0000E+00  0.1680E+03
     13.854  0.0000E+00  0.1680E+03
     13.962  0.0000E+00  0.1680E+03
     14.069  0.0000E+00  0.1680E+03
     14.177  0.0000E+00  0.1680E+03
     14.285  0.0000E+00  0.1680E+03
     14.392  0.0000E+00  0.1680E+03
     14.500  0.0000E+00  0.1680E+03
     14.608  0.0000E+00  0.1680E+03
