  32  32   0   0
  0.9217531E+01  0.4934311E-09  0.4934311E-09  0.1398954E-08  0.5000000E-15
  1.000000000000000E-004
  CAR 
 graphite                                
     15.11403853    -17.27250161  301      4.31355288      1.00000000
    -17.273  0.0000E+00  0.0000E+00
    -17.165  0.0000E+00  0.0000E+00
    -17.057  0.0000E+00  0.0000E+00
    -16.949  0.0000E+00  0.0000E+00
    -16.841  0.0000E+00  0.0000E+00
    -16.733  0.0000E+00  0.0000E+00
    -16.625  0.0000E+00  0.0000E+00
    -16.517  0.0000E+00  0.0000E+00
    -16.409  0.0000E+00  0.0000E+00
    -16.301  0.0000E+00  0.0000E+00
    -16.193  0.0000E+00  0.0000E+00
    -16.085  0.0000E+00  0.0000E+00
    -15.977  0.0000E+00  0.0000E+00
    -15.869  0.0000E+00  0.0000E+00
    -15.761  0.0000E+00  0.0000E+00
    -15.653  0.0000E+00  0.0000E+00
    -15.545  0.0000E+00  0.0000E+00
    -15.437  0.0000E+00  0.0000E+00
    -15.329  0.0000E+00  0.0000E+00
    -15.221  0.1181E+01  0.2342E-01
    -15.113  0.2910E+01  0.2576E+00
    -15.005  0.5197E+01  0.7001E+00
    -14.897  0.4925E+01  0.1226E+01
    -14.790  0.4906E+01  0.1760E+01
    -14.682  0.4967E+01  0.2294E+01
    -14.574  0.4935E+01  0.2830E+01
    -14.466  0.4912E+01  0.3358E+01
    -14.358  0.5023E+01  0.3895E+01
    -14.250  0.4997E+01  0.4435E+01
    -14.142  0.4963E+01  0.4973E+01
    -14.034  0.5714E+01  0.5546E+01
    -13.926  0.6059E+01  0.6181E+01
    -13.818  0.6550E+01  0.6883E+01
    -13.710  0.5084E+01  0.7476E+01
    -13.602  0.1762E+01  0.7761E+01
    -13.494  0.3856E+01  0.8044E+01
    -13.386  0.4503E+01  0.8524E+01
    -13.278  0.4492E+01  0.9012E+01
    -13.170  0.6623E+01  0.9778E+01
    -13.062  0.5441E+01  0.1052E+02
    -12.954  0.4366E+01  0.1099E+02
    -12.846  0.4511E+01  0.1147E+02
    -12.738  0.4620E+01  0.1197E+02
    -12.630  0.4730E+01  0.1247E+02
    -12.522  0.5318E+01  0.1301E+02
    -12.415  0.6211E+01  0.1362E+02
    -12.307  0.5417E+01  0.1424E+02
    -12.199  0.5607E+01  0.1483E+02
    -12.091  0.5143E+01  0.1541E+02
    -11.983  0.4808E+01  0.1594E+02
    -11.875  0.4911E+01  0.1647E+02
    -11.767  0.4994E+01  0.1700E+02
    -11.659  0.5052E+01  0.1755E+02
    -11.551  0.5165E+01  0.1810E+02
    -11.443  0.5541E+01  0.1867E+02
    -11.335  0.5844E+01  0.1930E+02
    -11.227  0.5721E+01  0.1992E+02
    -11.119  0.5667E+01  0.2054E+02
    -11.011  0.5767E+01  0.2115E+02
    -10.903  0.5240E+01  0.2177E+02
    -10.795  0.4864E+01  0.2229E+02
    -10.687  0.5355E+01  0.2285E+02
    -10.579  0.5366E+01  0.2343E+02
    -10.471  0.5485E+01  0.2401E+02
    -10.363  0.5699E+01  0.2461E+02
    -10.255  0.5938E+01  0.2524E+02
    -10.147  0.7621E+01  0.2596E+02
    -10.040  0.9727E+01  0.2699E+02
     -9.932  0.6402E+01  0.2786E+02
     -9.824  0.6952E+01  0.2847E+02
     -9.716  0.7399E+01  0.2922E+02
     -9.608  0.3572E+01  0.2968E+02
     -9.500  0.3203E+01  0.3005E+02
     -9.392  0.2834E+01  0.3037E+02
     -9.284  0.2464E+01  0.3066E+02
     -9.176  0.2415E+01  0.3091E+02
     -9.068  0.3169E+01  0.3124E+02
     -8.960  0.1437E+01  0.3150E+02
     -8.852  0.1611E+01  0.3165E+02
     -8.744  0.2533E+01  0.3188E+02
     -8.636  0.6814E+01  0.3231E+02
     -8.528  0.4421E+01  0.3306E+02
     -8.420  0.3926E+01  0.3349E+02
     -8.312  0.4255E+01  0.3393E+02
     -8.204  0.7551E+01  0.3458E+02
     -8.096  0.6340E+01  0.3535E+02
     -7.988  0.7424E+01  0.3609E+02
     -7.880  0.8489E+01  0.3695E+02
     -7.772  0.8069E+01  0.3790E+02
     -7.664  0.6291E+01  0.3864E+02
     -7.557  0.6033E+01  0.3930E+02
     -7.449  0.5777E+01  0.3994E+02
     -7.341  0.5543E+01  0.4055E+02
     -7.233  0.5353E+01  0.4114E+02
     -7.125  0.5172E+01  0.4171E+02
     -7.017  0.4976E+01  0.4226E+02
     -6.909  0.4856E+01  0.4278E+02
     -6.801  0.4827E+01  0.4331E+02
     -6.693  0.4795E+01  0.4383E+02
     -6.585  0.4638E+01  0.4434E+02
     -6.477  0.4418E+01  0.4483E+02
     -6.369  0.4364E+01  0.4530E+02
     -6.261  0.4035E+01  0.4571E+02
     -6.153  0.4265E+01  0.4615E+02
     -6.045  0.4895E+01  0.4665E+02
     -5.937  0.5740E+01  0.4722E+02
     -5.829  0.6493E+01  0.4788E+02
     -5.721  0.1084E+02  0.4880E+02
     -5.613  0.8596E+01  0.4985E+02
     -5.505  0.6350E+01  0.5066E+02
     -5.397  0.4105E+01  0.5122E+02
     -5.289  0.2689E+01  0.5156E+02
     -5.182  0.3050E+01  0.5186E+02
     -5.074  0.4290E+01  0.5226E+02
     -4.966  0.5588E+01  0.5279E+02
     -4.858  0.7147E+01  0.5347E+02
     -4.750  0.8043E+01  0.5432E+02
     -4.642  0.6833E+01  0.5512E+02
     -4.534  0.5630E+01  0.5580E+02
     -4.426  0.7325E+01  0.5645E+02
     -4.318  0.7260E+01  0.5726E+02
     -4.210  0.6749E+01  0.5801E+02
     -4.102  0.6238E+01  0.5871E+02
     -3.994  0.5769E+01  0.5936E+02
     -3.886  0.6313E+01  0.6000E+02
     -3.778  0.1542E+02  0.6107E+02
     -3.670  0.9862E+01  0.6220E+02
     -3.562  0.7966E+01  0.6315E+02
     -3.454  0.6777E+01  0.6394E+02
     -3.346  0.6759E+01  0.6465E+02
     -3.238  0.7525E+01  0.6542E+02
     -3.130  0.8553E+01  0.6628E+02
     -3.022  0.1032E+02  0.6728E+02
     -2.914  0.1437E+02  0.6862E+02
     -2.807  0.1298E+02  0.7017E+02
     -2.699  0.1268E+02  0.7149E+02
     -2.591  0.1325E+02  0.7292E+02
     -2.483  0.1509E+02  0.7434E+02
     -2.375  0.1260E+02  0.7593E+02
     -2.267  0.1822E+02  0.7734E+02
     -2.159  0.1239E+02  0.7914E+02
     -2.051  0.1459E+02  0.8045E+02
     -1.943  0.1675E+02  0.8257E+02
     -1.835  0.1738E+02  0.8449E+02
     -1.727  0.1538E+02  0.8635E+02
     -1.619  0.1134E+02  0.8778E+02
     -1.511  0.9441E+01  0.8889E+02
     -1.403  0.1062E+02  0.8988E+02
     -1.295  0.8302E+01  0.9089E+02
     -1.187  0.1129E+02  0.9191E+02
     -1.079  0.1290E+02  0.9325E+02
     -0.971  0.1780E+02  0.9467E+02
     -0.863  0.9023E+01  0.9609E+02
     -0.755  0.1041E+02  0.9716E+02
     -0.647  0.1070E+02  0.9832E+02
     -0.539  0.1041E+02  0.9945E+02
     -0.432  0.1132E+02  0.1006E+03
     -0.324  0.9524E+01  0.1017E+03
     -0.216  0.1084E+02  0.1028E+03
     -0.108  0.9531E+01  0.1038E+03
      0.000  0.9423E+01  0.1048E+03
      0.108  0.9245E+01  0.1059E+03
      0.216  0.9109E+01  0.1068E+03
      0.324  0.9569E+01  0.1078E+03
      0.432  0.9402E+01  0.1089E+03
      0.540  0.9536E+01  0.1099E+03
      0.648  0.9174E+01  0.1109E+03
      0.756  0.9172E+01  0.1119E+03
      0.864  0.9426E+01  0.1129E+03
      0.972  0.9408E+01  0.1139E+03
      1.080  0.9855E+01  0.1150E+03
      1.188  0.1017E+02  0.1160E+03
      1.296  0.7393E+01  0.1170E+03
      1.404  0.6427E+01  0.1177E+03
      1.512  0.5843E+01  0.1184E+03
      1.620  0.4887E+01  0.1190E+03
      1.728  0.4085E+01  0.1195E+03
      1.836  0.3638E+01  0.1199E+03
      1.944  0.6341E+01  0.1204E+03
      2.051  0.1002E+02  0.1212E+03
      2.159  0.7335E+01  0.1222E+03
      2.267  0.8479E+01  0.1232E+03
      2.375  0.6030E+01  0.1239E+03
      2.483  0.4961E+01  0.1245E+03
      2.591  0.4256E+01  0.1250E+03
      2.699  0.3633E+01  0.1254E+03
      2.807  0.3236E+01  0.1258E+03
      2.915  0.3068E+01  0.1261E+03
      3.023  0.2855E+01  0.1265E+03
      3.131  0.2404E+01  0.1267E+03
      3.239  0.2073E+01  0.1270E+03
      3.347  0.1844E+01  0.1272E+03
      3.455  0.1606E+01  0.1274E+03
      3.563  0.1365E+01  0.1275E+03
      3.671  0.1128E+01  0.1277E+03
      3.779  0.8927E+00  0.1278E+03
      3.887  0.6664E+00  0.1279E+03
      3.995  0.4733E+00  0.1279E+03
      4.103  0.2979E+00  0.1280E+03
      4.211  0.1369E+00  0.1280E+03
      4.319  0.1188E-02  0.1280E+03
      4.426  0.1175E+00  0.1280E+03
      4.534  0.2486E+00  0.1280E+03
      4.642  0.3966E+00  0.1281E+03
      4.750  0.5651E+00  0.1281E+03
      4.858  0.7705E+00  0.1282E+03
      4.966  0.1024E+01  0.1283E+03
      5.074  0.1385E+01  0.1284E+03
      5.182  0.1772E+01  0.1286E+03
      5.290  0.2138E+01  0.1288E+03
      5.398  0.2563E+01  0.1290E+03
      5.506  0.2777E+01  0.1293E+03
      5.614  0.3324E+01  0.1297E+03
      5.722  0.4208E+01  0.1301E+03
      5.830  0.6797E+01  0.1307E+03
      5.938  0.8086E+01  0.1317E+03
      6.046  0.8618E+01  0.1326E+03
      6.154  0.8325E+01  0.1335E+03
      6.262  0.7042E+01  0.1344E+03
      6.370  0.6449E+01  0.1351E+03
      6.478  0.6238E+01  0.1358E+03
      6.586  0.5601E+01  0.1364E+03
      6.694  0.5134E+01  0.1370E+03
      6.801  0.4556E+01  0.1375E+03
      6.909  0.3827E+01  0.1380E+03
      7.017  0.3623E+01  0.1384E+03
      7.125  0.3880E+01  0.1388E+03
      7.233  0.4429E+01  0.1392E+03
      7.341  0.4803E+01  0.1397E+03
      7.449  0.4602E+01  0.1402E+03
      7.557  0.4454E+01  0.1407E+03
      7.665  0.4307E+01  0.1412E+03
      7.773  0.4154E+01  0.1417E+03
      7.881  0.4012E+01  0.1421E+03
      7.989  0.3853E+01  0.1425E+03
      8.097  0.3694E+01  0.1429E+03
      8.205  0.3581E+01  0.1433E+03
      8.313  0.3503E+01  0.1437E+03
      8.421  0.3721E+01  0.1441E+03
      8.529  0.3896E+01  0.1445E+03
      8.637  0.3979E+01  0.1449E+03
      8.745  0.4049E+01  0.1454E+03
      8.853  0.4206E+01  0.1458E+03
      8.961  0.4267E+01  0.1463E+03
      9.069  0.4310E+01  0.1467E+03
      9.177  0.4387E+01  0.1472E+03
      9.284  0.4152E+01  0.1477E+03
      9.392  0.4128E+01  0.1481E+03
      9.500  0.4104E+01  0.1485E+03
      9.608  0.4116E+01  0.1490E+03
      9.716  0.4179E+01  0.1494E+03
      9.824  0.4361E+01  0.1499E+03
      9.932  0.4479E+01  0.1504E+03
     10.040  0.4546E+01  0.1509E+03
     10.148  0.4800E+01  0.1514E+03
     10.256  0.5510E+01  0.1519E+03
     10.364  0.5069E+01  0.1525E+03
     10.472  0.5043E+01  0.1530E+03
     10.580  0.4851E+01  0.1535E+03
     10.688  0.5476E+01  0.1541E+03
     10.796  0.3801E+01  0.1546E+03
     10.904  0.4143E+01  0.1551E+03
     11.012  0.3577E+01  0.1555E+03
     11.120  0.3521E+01  0.1559E+03
     11.228  0.2959E+01  0.1562E+03
     11.336  0.3729E+01  0.1566E+03
     11.444  0.4277E+01  0.1570E+03
     11.552  0.4635E+01  0.1575E+03
     11.659  0.7178E+01  0.1582E+03
     11.767  0.1080E+02  0.1592E+03
     11.875  0.1185E+02  0.1604E+03
     11.983  0.1387E+02  0.1618E+03
     12.091  0.1352E+02  0.1632E+03
     12.199  0.1098E+02  0.1646E+03
     12.307  0.8495E+01  0.1657E+03
     12.415  0.5815E+01  0.1664E+03
     12.523  0.4770E+01  0.1670E+03
     12.631  0.3469E+01  0.1674E+03
     12.739  0.2048E+01  0.1677E+03
     12.847  0.1192E+01  0.1679E+03
     12.955  0.2664E+00  0.1680E+03
     13.063  0.1187E-01  0.1680E+03
     13.171  0.0000E+00  0.1680E+03
     13.279  0.0000E+00  0.1680E+03
     13.387  0.0000E+00  0.1680E+03
     13.495  0.0000E+00  0.1680E+03
     13.603  0.0000E+00  0.1680E+03
     13.711  0.0000E+00  0.1680E+03
     13.819  0.0000E+00  0.1680E+03
     13.927  0.0000E+00  0.1680E+03
     14.034  0.0000E+00  0.1680E+03
     14.142  0.0000E+00  0.1680E+03
     14.250  0.0000E+00  0.1680E+03
     14.358  0.0000E+00  0.1680E+03
     14.466  0.0000E+00  0.1680E+03
     14.574  0.0000E+00  0.1680E+03
     14.682  0.0000E+00  0.1680E+03
     14.790  0.0000E+00  0.1680E+03
     14.898  0.0000E+00  0.1680E+03
     15.006  0.0000E+00  0.1680E+03
     15.114  0.0000E+00  0.1680E+03
