   32   32    1    1
  0.9217531E+01  0.4934311E-09  0.4934311E-09  0.1398954E-08  0.5000000E-15
  1.000000000000000E-004
  CAR 
 graphite                                
    128    163     84
 
  0.0000000E+00  0.0000000E+00  0.0000000E+00  0.3086420E-02
    1      -15.272502
    2      -15.167370
    3      -15.167065
    4      -15.056470
    5       -9.973463
    6       -9.971250
    7       -9.969432
    8       -9.933384
    9       -9.929664
   10       -9.929279
   11       -9.928839
   12       -9.928828
   13       -9.925171
   14       -9.894091
   15       -9.892044
   16       -9.889378
   17       -8.908082
   18       -8.906359
   19       -8.904898
   20       -8.884226
   21       -8.882100
   22       -8.881053
   23       -8.880610
   24       -8.880579
   25       -8.877973
   26       -8.847012
   27       -8.845915
   28       -8.844501
   29       -4.015748
   30       -3.294918
   31       -3.293550
   32       -2.432291
   33       -2.081497
   34       -2.079096
   35       -2.078065
   36       -2.064264
   37       -2.062053
   38       -2.062045
   39       -2.060710
   40       -2.058904
   41       -2.058254
   42       -2.044237
   43       -2.041796
   44       -2.040628
   45        1.301008
   46        1.306003
   47        1.310622
   48        1.311748
   49        1.314055
   50        1.315406
   51        1.319884
   52        1.324620
   53        1.649251
   54        1.650770
   55        1.652133
   56        1.957566
   57        1.961334
   58        1.961619
   59        1.961689
   60        1.962063
   61        1.965649
   62        2.194435
   63        2.196506
   64        2.198570
   65        5.818235
   66        5.820234
   67        5.822148
   68        5.970066
   69        5.973187
   70        5.974861
   71        5.975390
   72        5.975526
   73        5.978937
   74        6.391052
   75        6.392484
   76        6.393923
   77        8.304808
   78       10.629551
   79       10.632766
   80       11.551710
   81       11.555638
   82       11.558447
   83       11.693980
   84       11.696731
 
  0.1111111E+00  0.1387779E-16  0.0000000E+00  0.6172840E-02
    1      -15.199149
    2      -15.094412
    3      -15.094107
    4      -14.984045
    5      -10.754842
    6      -10.681327
    7      -10.681099
    8      -10.605419
    9      -10.214346
   10      -10.211993
   11      -10.152486
   12      -10.150132
   13      -10.149390
   14      -10.147896
   15      -10.087615
   16      -10.085096
   17       -8.592212
   18       -8.590785
   19       -8.541754
   20       -8.541308
   21       -8.540180
   22       -8.538398
   23       -8.486079
   24       -8.484578
   25       -8.078235
   26       -8.021930
   27       -8.020031
   28       -7.961195
   29       -3.926741
   30       -3.207974
   31       -3.206609
   32       -2.348267
   33       -2.306801
   34       -2.303983
   35       -2.287127
   36       -2.285467
   37       -2.283218
   38       -2.282389
   39       -2.264932
   40       -2.262274
   41       -2.006965
   42       -1.989753
   43       -1.987404
   44       -1.969896
   45        1.002219
   46        1.012102
   47        1.016177
   48        1.023107
   49        1.082407
   50        1.149198
   51        1.155625
   52        1.159127
   53        1.168464
   54        1.535670
   55        1.537641
   56        1.541911
   57        1.543787
   58        1.906165
   59        1.909980
   60        1.910316
   61        1.911199
   62        1.993043
   63        2.225494
   64        2.227994
   65        5.912043
   66        5.914038
   67        6.103482
   68        6.104645
   69        6.105829
   70        6.109198
   71        6.233860
   72        6.510930
   73        6.514884
   74        6.524947
   75        6.526702
   76        6.977231
   77        8.395046
   78       10.711320
   79       10.714499
   80       11.594154
   81       11.733132
   82       11.734044
   83       11.880179
   84       11.888127
 
  0.2222222E+00 -0.2775558E-16  0.0000000E+00  0.6172840E-02
    1      -14.979209
    2      -14.875907
    3      -14.875600
    4      -14.767091
    5      -11.761624
    6      -11.679097
    7      -11.678818
    8      -11.593505
    9      -10.558405
   10      -10.556462
   11      -10.487247
   12      -10.485427
   13      -10.484865
   14      -10.483421
   15      -10.411811
   16      -10.409784
   17       -7.909793
   18       -7.908197
   19       -7.854768
   20       -7.854387
   21       -7.853049
   22       -7.851468
   23       -7.796560
   24       -7.794848
   25       -6.756150
   26       -6.703595
   27       -6.701781
   28       -6.648065
   29       -3.660528
   30       -2.948069
   31       -2.946716
   32       -2.911279
   33       -2.908695
   34       -2.886487
   35       -2.884823
   36       -2.882869
   37       -2.881940
   38       -2.858871
   39       -2.856389
   40       -2.096988
   41       -1.792480
   42       -1.775543
   43       -1.773118
   44       -1.756059
   45        0.080405
   46        0.180470
   47        0.193860
   48        0.197886
   49        0.210836
   50        0.647806
   51        0.649557
   52        0.731394
   53        0.740785
   54        0.744524
   55        0.755158
   56        1.285808
   57        1.334441
   58        1.336426
   59        1.785201
   60        1.788906
   61        1.789191
   62        1.790197
   63        2.242725
   64        2.245122
   65        6.186778
   66        6.188828
   67        6.436002
   68        6.436935
   69        6.438147
   70        6.441667
   71        6.834520
   72        6.836672
   73        7.393805
   74        7.731496
   75        7.734684
   76        8.188510
   77        8.666355
   78       10.956030
   79       10.959095
   80       11.706262
   81       11.841066
   82       11.842217
   83       11.955237
   84       12.712621
 
  0.3333333E+00 -0.2775558E-16  0.0000000E+00  0.6172840E-02
    1      -14.613872
    2      -14.512907
    3      -14.512598
    4      -14.406723
    5      -12.671462
    6      -12.583026
    7      -12.582721
    8      -12.490795
    9      -10.814042
   10      -10.812294
   11      -10.739252
   12      -10.737576
   13      -10.737231
   14      -10.735735
   15      -10.660290
   16      -10.658481
   17       -7.104251
   18       -7.102444
   19       -7.053972
   20       -7.053516
   21       -7.052183
   22       -7.050290
   23       -7.001353
   24       -6.999392
   25       -5.326838
   26       -5.281709
   27       -5.279665
   28       -5.233748
   29       -3.724513
   30       -3.722238
   31       -3.695022
   32       -3.693127
   33       -3.691808
   34       -3.690613
   35       -3.662191
   36       -3.660005
   37       -3.219819
   38       -2.518248
   39       -2.516912
   40       -1.682413
   41       -1.444323
   42       -1.428082
   43       -1.425503
   44       -1.408989
   45       -1.001207
   46       -0.980741
   47       -0.976839
   48       -0.956605
   49       -0.929513
   50       -0.304649
   51       -0.303180
   52        0.170489
   53        0.182293
   54        0.185850
   55        0.198424
   56        0.421969
   57        1.152296
   58        1.154257
   59        1.661264
   60        1.664871
   61        1.665122
   62        1.666208
   63        2.217941
   64        2.220284
   65        6.562029
   66        6.564217
   67        6.824818
   68        6.825603
   69        6.826611
   70        6.830469
   71        7.154019
   72        7.156472
   73        8.900069
   74        9.118122
   75        9.207135
   76        9.209588
   77        9.606467
   78       11.354160
   79       11.356986
   80       11.487144
   81       11.931171
   82       12.002877
   83       12.004384
   84       12.227444
 
  0.4444444E+00 -0.5551115E-16  0.0000000E+00  0.6172840E-02
    1      -14.105036
    2      -14.007357
    3      -14.007038
    4      -13.904814
    5      -13.455810
    6      -13.362305
    7      -13.362006
    8      -13.264412
    9      -10.945993
   10      -10.944327
   11      -10.870029
   12      -10.868336
   13      -10.868218
   14      -10.866631
   15      -10.789642
   16      -10.787921
   17       -6.361812
   18       -6.360018
   19       -6.326129
   20       -6.325457
   21       -6.324937
   22       -6.321736
   23       -6.289339
   24       -6.287059
   25       -4.475857
   26       -4.474027
   27       -4.451578
   28       -4.448901
   29       -4.448624
   30       -4.447189
   31       -4.421610
   32       -4.420096
   33       -3.850413
   34       -3.813697
   35       -3.811287
   36       -3.773867
   37       -2.610044
   38       -2.382817
   39       -2.354473
   40       -2.351510
   41       -2.322605
   42       -1.924531
   43       -1.923126
   44       -1.840512
   45       -1.179286
   46       -1.177921
   47       -1.112167
   48       -0.978947
   49       -0.963662
   50       -0.960870
   51       -0.945509
   52       -0.424919
   53       -0.411140
   54       -0.407877
   55       -0.400908
   56       -0.393551
   57        1.050616
   58        1.052553
   59        1.586673
   60        1.590221
   61        1.590459
   62        1.591586
   63        2.190405
   64        2.192725
   65        6.851703
   66        6.853988
   67        7.089902
   68        7.090789
   69        7.091256
   70        7.095563
   71        7.339126
   72        7.341766
   73        9.750042
   74       10.511583
   75       10.554446
   76       10.739455
   77       10.742956
   78       11.076502
   79       11.796785
   80       11.803467
   81       12.090339
   82       12.150665
   83       12.159922
   84       12.162813
 
  0.0000000E+00  0.1111111E+00  0.0000000E+00  0.6172840E-02
    1      -15.199147
    2      -15.094409
    3      -15.094105
    4      -14.984043
    5      -10.754948
    6      -10.681467
    7      -10.681199
    8      -10.605556
    9      -10.214316
   10      -10.211701
   11      -10.152253
   12      -10.150135
   13      -10.149391
   14      -10.147395
   15      -10.087459
   16      -10.084854
   17       -8.593356
   18       -8.590999
   19       -8.543814
   20       -8.541736
   21       -8.540184
   22       -8.538274
   23       -8.487112
   24       -8.484578
   25       -8.077247
   26       -8.020127
   27       -8.019955
   28       -7.960295
   29       -3.926746
   30       -3.207980
   31       -3.206614
   32       -2.348273
   33       -2.305327
   34       -2.304208
   35       -2.285470
   36       -2.285192
   37       -2.282887
   38       -2.282387
   39       -2.263553
   40       -2.262449
   41       -2.007961
   42       -1.989784
   43       -1.989722
   44       -1.971338
   45        1.007268
   46        1.015388
   47        1.016182
   48        1.024201
   49        1.081700
   50        1.148062
   51        1.155620
   52        1.155770
   53        1.163324
   54        1.535032
   55        1.536411
   56        1.542206
   57        1.544499
   58        1.907139
   59        1.909952
   60        1.910130
   61        1.912871
   62        1.991881
   63        2.226058
   64        2.228823
   65        5.910873
   66        5.913076
   67        6.101283
   68        6.103785
   69        6.105908
   70        6.108112
   71        6.235815
   72        6.513691
   73        6.515257
   74        6.523794
   75        6.526168
   76        6.978833
   77        8.395041
   78       10.711304
   79       10.714483
   80       11.593535
   81       11.732642
   82       11.733251
   83       11.875888
   84       11.889209
 
  0.1111111E+00  0.1111111E+00  0.0000000E+00  0.6172840E-02
    1      -15.052404
    2      -14.948676
    3      -14.948370
    4      -14.839333
    5      -11.217165
    6      -11.214272
    7      -11.140249
    8      -11.137286
    9      -11.137261
   10      -11.134430
   11      -11.057643
   12      -11.054686
   13       -9.784043
   14       -9.743526
   15       -9.742024
   16       -9.706303
   17       -8.722789
   18       -8.699902
   19       -8.696910
   20       -8.664734
   21       -7.397818
   22       -7.394589
   23       -7.343990
   24       -7.340002
   25       -7.339980
   26       -7.337756
   27       -7.284186
   28       -7.281114
   29       -3.749102
   30       -3.034520
   31       -3.033161
   32       -2.984207
   33       -2.959400
   34       -2.957100
   35       -2.931579
   36       -2.180441
   37       -2.161548
   38       -2.159300
   39       -2.141953
   40       -2.140458
   41       -2.140451
   42       -2.136918
   43       -2.120601
   44       -2.117560
   45        0.472240
   46        0.481864
   47        0.485845
   48        0.492780
   49        0.657611
   50        0.659381
   51        0.836549
   52        0.841909
   53        0.845279
   54        0.854389
   55        1.176646
   56        1.178467
   57        1.178547
   58        1.181729
   59        1.740478
   60        1.742887
   61        1.916408
   62        2.224675
   63        2.227574
   64        2.457133
   65        5.793095
   66        5.898395
   67        5.902552
   68        6.237664
   69        6.735112
   70        6.737846
   71        7.051176
   72        7.055463
   73        7.055610
   74        7.056908
   75        7.505441
   76        7.507942
   77        8.575969
   78       10.875194
   79       10.878303
   80       11.963647
   81       11.967477
   82       12.101856
   83       12.105586
   84       12.106133
 
  0.2222222E+00  0.1111111E+00  0.0000000E+00  0.6172840E-02
    1      -14.759794
    2      -14.657901
    3      -14.657593
    4      -14.550670
    5      -12.179113
    6      -12.093916
    7      -12.093619
    8      -12.005087
    9      -11.555944
   10      -11.474921
   11      -11.474688
   12      -11.390632
   13       -9.829399
   14       -9.769191
   15       -9.768329
   16       -9.707785
   17       -8.247135
   18       -8.200948
   19       -8.198512
   20       -8.148628
   21       -6.615319
   22       -6.564512
   23       -6.564279
   24       -6.512228
   25       -6.018872
   26       -5.970550
   27       -5.968735
   28       -5.919458
   29       -3.888237
   30       -3.857239
   31       -3.854993
   32       -3.823178
   33       -3.395569
   34       -2.689554
   35       -2.688252
   36       -2.685814
   37       -2.661288
   38       -2.660847
   39       -2.635749
   40       -1.873890
   41       -1.855318
   42       -1.852960
   43       -1.847438
   44       -1.834027
   45       -0.477104
   46       -0.463053
   47       -0.458403
   48       -0.445488
   49       -0.369918
   50        0.228464
   51        0.229924
   52        0.293262
   53        0.302091
   54        0.305962
   55        0.316206
   56        0.331477
   57        0.891210
   58        0.892554
   59        0.915698
   60        1.522358
   61        2.061238
   62        2.426717
   63        2.429515
   64        2.744589
   65        5.784544
   66        5.904633
   67        5.908553
   68        6.188929
   69        7.316761
   70        7.623193
   71        7.624687
   72        8.009045
   73        8.099824
   74        8.420798
   75        8.423568
   76        8.832928
   77        8.938803
   78       11.201466
   79       11.204410
   80       12.012818
   81       12.198118
   82       12.241017
   83       12.242159
   84       12.520876
 
  0.3333333E+00  0.1111111E+00  0.0000000E+00  0.6172840E-02
    1      -14.322680
    2      -14.223610
    3      -14.223295
    4      -14.119510
    5      -13.026808
    6      -12.936078
    7      -12.935780
    8      -12.841233
    9      -11.763231
   10      -11.680784
   11      -11.680547
   12      -11.594847
   13       -9.971640
   14       -9.903810
   15       -9.903387
   16       -9.833762
   17       -7.482822
   18       -7.436861
   19       -7.434592
   20       -7.387473
   21       -5.820173
   22       -5.778738
   23       -5.777852
   24       -5.735803
   25       -4.822575
   26       -4.790007
   27       -4.787585
   28       -4.753888
   29       -4.573599
   30       -4.533475
   31       -4.531435
   32       -4.490399
   33       -3.384220
   34       -3.357720
   35       -3.356495
   36       -3.328909
   37       -2.870040
   38       -2.177679
   39       -2.176389
   40       -1.717536
   41       -1.694943
   42       -1.691060
   43       -1.669101
   44       -1.458422
   45       -1.440872
   46       -1.438399
   47       -1.420589
   48       -1.354644
   49       -1.337446
   50       -0.694109
   51       -0.692728
   52       -0.329504
   53       -0.316717
   54       -0.312830
   55       -0.299138
   56        0.058871
   57        0.124761
   58        0.708225
   59        0.709611
   60        1.375862
   61        2.071518
   62        2.516615
   63        2.518999
   64        2.972552
   65        5.818956
   66        6.021287
   67        6.024530
   68        6.285510
   69        7.820845
   70        8.077148
   71        8.078850
   72        8.359811
   73        9.481479
   74        9.658393
   75        9.924190
   76        9.926812
   77       10.267758
   78       11.090393
   79       11.668482
   80       11.671375
   81       12.351525
   82       12.396979
   83       12.398662
   84       12.615139
 
  0.4444444E+00  0.1111111E+00  0.0000000E+00  0.6172840E-02
    1      -13.745098
    2      -13.742380
    3      -13.651012
    4      -13.648202
    5      -13.648066
    6      -13.645552
    7      -13.549752
    8      -13.546986
    9      -11.832985
   10      -11.749923
   11      -11.749685
   12      -11.663458
   13      -10.026947
   14       -9.957842
   15       -9.957563
   16       -9.886149
   17       -6.983742
   18       -6.955240
   19       -6.953160
   20       -6.925806
   21       -5.349648
   22       -5.344018
   23       -5.327188
   24       -5.326434
   25       -5.324543
   26       -5.323498
   27       -5.303541
   28       -5.301277
   29       -3.808673
   30       -3.793039
   31       -3.790052
   32       -3.772179
   33       -3.118518
   34       -3.114998
   35       -3.087985
   36       -3.082577
   37       -3.082513
   38       -3.082306
   39       -3.051688
   40       -3.049256
   41       -2.180810
   42       -2.178622
   43       -1.508846
   44       -1.506576
   45       -1.506455
   46       -1.503553
   47       -0.934588
   48       -0.931438
   49       -0.918288
   50       -0.916752
   51       -0.916718
   52       -0.910331
   53       -0.900338
   54       -0.892841
   55       -0.713693
   56       -0.711172
   57        0.054891
   58        0.645384
   59        0.646862
   60        1.324613
   61        2.064116
   62        2.539041
   63        2.540945
   64        3.051857
   65        5.848047
   66        6.087224
   67        6.089621
   68        6.340329
   69        8.037148
   70        8.255200
   71        8.257304
   72        8.475299
   73       10.201872
   74       10.202711
   75       11.236404
   76       11.239853
   77       11.399860
   78       11.405651
   79       11.406784
   80       11.410509
   81       11.697392
   82       11.700569
   83       12.293161
   84       12.299773
 
 -0.4444444E+00  0.1111111E+00  0.0000000E+00  0.6172840E-02
    1      -14.322766
    2      -14.223691
    3      -14.223386
    4      -14.119596
    5      -13.026670
    6      -12.935946
    7      -12.935636
    8      -12.841094
    9      -11.763440
   10      -11.680993
   11      -11.680756
   12      -11.595056
   13       -9.971281
   14       -9.903345
   15       -9.903113
   16       -9.833380
   17       -7.482065
   18       -7.435329
   19       -7.434733
   20       -7.386850
   21       -5.821315
   22       -5.780525
   23       -5.778179
   24       -5.736758
   25       -4.823651
   26       -4.790377
   27       -4.789581
   28       -4.755153
   29       -4.573928
   30       -4.533952
   31       -4.531572
   32       -4.490689
   33       -3.382977
   34       -3.357149
   35       -3.354195
   36       -3.327346
   37       -2.870137
   38       -2.177773
   39       -2.176486
   40       -1.717096
   41       -1.694141
   42       -1.691544
   43       -1.669105
   44       -1.458173
   45       -1.440777
   46       -1.437889
   47       -1.420179
   48       -1.354738
   49       -1.337303
   50       -0.693988
   51       -0.692567
   52       -0.329410
   53       -0.316220
   54       -0.313601
   55       -0.299983
   56        0.059026
   57        0.124504
   58        0.707863
   59        0.709460
   60        1.375572
   61        2.071864
   62        2.517493
   63        2.519030
   64        2.973208
   65        5.818906
   66        6.022114
   67        6.023817
   68        6.285523
   69        7.820387
   70        8.076348
   71        8.078899
   72        8.359616
   73        9.481351
   74        9.658288
   75        9.923877
   76        9.926872
   77       10.267630
   78       11.090588
   79       11.668372
   80       11.671265
   81       12.351210
   82       12.396454
   83       12.398798
   84       12.614688
 
 -0.3333333E+00  0.1111111E+00  0.0000000E+00  0.6172840E-02
    1      -14.759856
    2      -14.657960
    3      -14.657657
    4      -14.550731
    5      -12.178945
    6      -12.093749
    7      -12.093447
    8      -12.004916
    9      -11.556373
   10      -11.475350
   11      -11.475115
   12      -11.391060
   13       -9.828582
   14       -9.768011
   15       -9.767809
   16       -9.706898
   17       -8.246633
   18       -8.199351
   19       -8.199197
   20       -8.148222
   21       -6.616428
   22       -6.566393
   23       -6.564512
   24       -6.513226
   25       -6.019187
   26       -5.970950
   27       -5.968946
   28       -5.919756
   29       -3.889674
   30       -3.857765
   31       -3.857527
   32       -3.824779
   33       -3.395639
   34       -2.689625
   35       -2.688295
   36       -2.684212
   37       -2.660579
   38       -2.657960
   39       -2.633830
   40       -1.873690
   41       -1.855193
   42       -1.852642
   43       -1.847506
   44       -1.833766
   45       -0.476159
   46       -0.462217
   47       -0.459847
   48       -0.446193
   49       -0.369744
   50        0.228590
   51        0.230120
   52        0.294111
   53        0.303572
   54        0.305290
   55        0.314943
   56        0.330775
   57        0.890554
   58        0.892300
   59        0.915727
   60        1.521778
   61        2.061878
   62        2.428275
   63        2.429644
   64        2.745745
   65        5.784463
   66        5.905924
   67        5.907389
   68        6.188987
   69        7.316171
   70        7.621922
   71        7.624830
   72        8.008657
   73        8.099669
   74        8.420440
   75        8.423605
   76        8.832765
   77        8.938710
   78       11.201368
   79       11.204310
   80       12.012857
   81       12.198027
   82       12.240599
   83       12.242217
   84       12.520706
 
 -0.2222222E+00  0.1111111E+00  0.0000000E+00  0.6172840E-02
    1      -15.052441
    2      -14.948711
    3      -14.948408
    4      -14.839369
    5      -11.216295
    6      -11.215470
    7      -11.138092
    8      -11.137840
    9      -11.137235
   10      -11.136993
   11      -11.056887
   12      -11.056045
   13       -9.782608
   14       -9.741399
   15       -9.741248
   16       -9.704843
   17       -8.722639
   18       -8.698516
   19       -8.698408
   20       -8.664950
   21       -7.396826
   22       -7.396551
   23       -7.342080
   24       -7.341722
   25       -7.340236
   26       -7.339979
   27       -7.283439
   28       -7.283147
   29       -3.749144
   30       -3.034563
   31       -3.033202
   32       -2.985809
   33       -2.960030
   34       -2.959921
   35       -2.933394
   36       -2.180482
   37       -2.159622
   38       -2.159107
   39       -2.140361
   40       -2.139882
   41       -2.137981
   42       -2.137347
   43       -2.118379
   44       -2.117923
   45        0.473917
   46        0.482333
   47        0.482712
   48        0.490906
   49        0.657481
   50        0.659002
   51        0.838629
   52        0.845074
   53        0.845110
   54        0.852083
   55        1.176520
   56        1.178492
   57        1.178579
   58        1.180588
   59        1.740335
   60        1.742262
   61        1.917253
   62        2.226520
   63        2.227870
   64        2.458512
   65        5.793059
   66        5.899809
   67        5.901341
   68        6.237808
   69        6.735499
   70        6.736850
   71        7.051793
   72        7.053660
   73        7.055352
   74        7.056919
   75        7.505784
   76        7.506950
   77        8.575912
   78       10.875130
   79       10.878239
   80       11.965840
   81       11.969048
   82       12.106241
   83       12.107527
   84       12.109808
 
 -0.1111111E+00  0.1111111E+00  0.0000000E+00  0.6172840E-02
    1      -15.199160
    2      -15.094421
    3      -15.094118
    4      -14.984055
    5      -10.755829
    6      -10.682420
    7      -10.682024
    8      -10.606454
    9      -10.213364
   10      -10.211286
   11      -10.151199
   12      -10.149244
   13      -10.149213
   14      -10.146769
   15      -10.086630
   16      -10.084273
   17       -8.593071
   18       -8.591110
   19       -8.543390
   20       -8.540380
   21       -8.540353
   22       -8.539774
   23       -8.486729
   24       -8.485044
   25       -8.077892
   26       -8.021568
   27       -8.019733
   28       -7.960867
   29       -3.926760
   30       -3.207994
   31       -3.206628
   32       -2.348287
   33       -2.306671
   34       -2.304647
   35       -2.286651
   36       -2.285437
   37       -2.285430
   38       -2.282072
   39       -2.265218
   40       -2.262455
   41       -2.006268
   42       -1.989071
   43       -1.986608
   44       -1.969283
   45        1.005410
   46        1.012703
   47        1.016169
   48        1.025324
   49        1.080932
   50        1.146223
   51        1.155378
   52        1.159132
   53        1.165388
   54        1.533621
   55        1.536112
   56        1.542880
   57        1.544666
   58        1.908814
   59        1.909777
   60        1.910043
   61        1.913759
   62        1.990752
   63        2.226867
   64        2.229356
   65        5.910464
   66        5.913524
   67        6.100765
   68        6.105772
   69        6.105989
   70        6.106958
   71        6.235498
   72        6.512421
   73        6.515894
   74        6.523681
   75        6.526219
   76        6.978421
   77        8.395022
   78       10.711281
   79       10.714461
   80       11.597423
   81       11.736140
   82       11.737581
   83       11.879285
   84       11.888935
 
 -0.3388132E-20  0.2222222E+00  0.0000000E+00  0.6172840E-02
    1      -14.979202
    2      -14.875897
    3      -14.875596
    4      -14.767084
    5      -11.761607
    6      -11.679075
    7      -11.678811
    8      -11.593493
    9      -10.558773
   10      -10.556055
   11      -10.487879
   12      -10.485430
   13      -10.484867
   14      -10.482559
   15      -10.412078
   16      -10.409335
   17       -7.911048
   18       -7.908174
   19       -7.857055
   20       -7.854749
   21       -7.853051
   22       -7.850915
   23       -7.797632
   24       -7.794660
   25       -6.755238
   26       -6.701892
   27       -6.701724
   28       -6.647212
   29       -3.660546
   30       -2.948091
   31       -2.946733
   32       -2.910196
   33       -2.908568
   34       -2.885115
   35       -2.884815
   36       -2.881958
   37       -2.881811
   38       -2.857792
   39       -2.856150
   40       -2.097014
   41       -1.793528
   42       -1.775605
   43       -1.775530
   44       -1.757593
   45        0.079977
   46        0.183523
   47        0.197804
   48        0.197899
   49        0.212390
   50        0.647478
   51        0.648779
   52        0.730003
   53        0.740702
   54        0.740787
   55        0.751315
   56        1.285087
   57        1.334581
   58        1.337245
   59        1.785873
   60        1.788892
   61        1.789012
   62        1.791966
   63        2.243182
   64        2.245997
   65        6.185421
   66        6.188104
   67        6.433379
   68        6.436340
   69        6.438177
   70        6.440815
   71        6.832927
   72        6.836215
   73        7.395282
   74        7.733614
   75        7.735129
   76        8.189727
   77        8.666343
   78       10.955972
   79       10.959038
   80       11.705616
   81       11.840714
   82       11.841243
   83       11.954576
   84       12.691517
 
  0.1111111E+00  0.2222222E+00  0.0000000E+00  0.6172840E-02
    1      -14.759789
    2      -14.657894
    3      -14.657590
    4      -14.550664
    5      -12.179075
    6      -12.093860
    7      -12.093599
    8      -12.005050
    9      -11.555971
   10      -11.474951
   11      -11.474708
   12      -11.390654
   13       -9.829388
   14       -9.769168
   15       -9.768328
   16       -9.707774
   17       -8.247199
   18       -8.200948
   19       -8.198673
   20       -8.148727
   21       -6.616317
   22       -6.566251
   23       -6.564481
   24       -6.513177
   25       -6.017876
   26       -5.968772
   27       -5.968581
   28       -5.918517
   29       -3.888143
   30       -3.857086
   31       -3.854992
   32       -3.823114
   33       -3.395583
   34       -2.689566
   35       -2.688235
   36       -2.684691
   37       -2.660849
   38       -2.658757
   39       -2.634343
   40       -1.875041
   41       -1.855597
   42       -1.855316
   43       -1.847459
   44       -1.835593
   45       -0.475152
   46       -0.461367
   47       -0.458401
   48       -0.444964
   49       -0.370276