  32  32   0   0
  0.8468675E+01  0.4932875E-09  0.4932875E-09  0.1286560E-08  0.5000000E-15
  1.000000000000000E-004
  CAR 
 graphite                                
     16.54981976    -16.62572123  301      5.04464582      1.00000000
    -16.626  0.0000E+00  0.0000E+00
    -16.515  0.0000E+00  0.0000E+00
    -16.405  0.0000E+00  0.0000E+00
    -16.294  0.0000E+00  0.0000E+00
    -16.183  0.0000E+00  0.0000E+00
    -16.073  0.0000E+00  0.0000E+00
    -15.962  0.0000E+00  0.0000E+00
    -15.852  0.0000E+00  0.0000E+00
    -15.741  0.0000E+00  0.0000E+00
    -15.630  0.0000E+00  0.0000E+00
    -15.520  0.0000E+00  0.0000E+00
    -15.409  0.0000E+00  0.0000E+00
    -15.299  0.0000E+00  0.0000E+00
    -15.188  0.0000E+00  0.0000E+00
    -15.078  0.0000E+00  0.0000E+00
    -14.967  0.0000E+00  0.0000E+00
    -14.856  0.0000E+00  0.0000E+00
    -14.746  0.0000E+00  0.0000E+00
    -14.635  0.0000E+00  0.0000E+00
    -14.525  0.1459E+01  0.8003E-01
    -14.414  0.2436E+01  0.2929E+00
    -14.303  0.3255E+01  0.6101E+00
    -14.193  0.4751E+01  0.1037E+01
    -14.082  0.4947E+01  0.1584E+01
    -13.972  0.4886E+01  0.2132E+01
    -13.861  0.4922E+01  0.2671E+01
    -13.751  0.5011E+01  0.3221E+01
    -13.640  0.4921E+01  0.3769E+01
    -13.529  0.4955E+01  0.4314E+01
    -13.419  0.5331E+01  0.4874E+01
    -13.308  0.5605E+01  0.5481E+01
    -13.198  0.6548E+01  0.6132E+01
    -13.087  0.6402E+01  0.6867E+01
    -12.976  0.4153E+01  0.7395E+01
    -12.866  0.2753E+01  0.7732E+01
    -12.755  0.3693E+01  0.8067E+01
    -12.645  0.4081E+01  0.8468E+01
    -12.534  0.6801E+01  0.9133E+01
    -12.423  0.5309E+01  0.9773E+01
    -12.313  0.6082E+01  0.1040E+02
    -12.202  0.4446E+01  0.1100E+02
    -12.092  0.4722E+01  0.1150E+02
    -11.981  0.4927E+01  0.1204E+02
    -11.871  0.4997E+01  0.1259E+02
    -11.760  0.5068E+01  0.1314E+02
    -11.649  0.5318E+01  0.1371E+02
    -11.539  0.5767E+01  0.1435E+02
    -11.428  0.5057E+01  0.1494E+02
    -11.318  0.5026E+01  0.1549E+02
    -11.207  0.5026E+01  0.1605E+02
    -11.096  0.5087E+01  0.1661E+02
    -10.986  0.5168E+01  0.1717E+02
    -10.875  0.5253E+01  0.1775E+02
    -10.765  0.5491E+01  0.1834E+02
    -10.654  0.5648E+01  0.1896E+02
    -10.544  0.5963E+01  0.1960E+02
    -10.433  0.5926E+01  0.2025E+02
    -10.322  0.5968E+01  0.2091E+02
    -10.212  0.5448E+01  0.2156E+02
    -10.101  0.4365E+01  0.2210E+02
     -9.991  0.4388E+01  0.2257E+02
     -9.880  0.5119E+01  0.2310E+02
     -9.769  0.5375E+01  0.2369E+02
     -9.659  0.5560E+01  0.2429E+02
     -9.548  0.5810E+01  0.2492E+02
     -9.438  0.6934E+01  0.2562E+02
     -9.327  0.8665E+01  0.2647E+02
     -9.217  0.8568E+01  0.2750E+02
     -9.106  0.7340E+01  0.2832E+02
     -8.995  0.5343E+01  0.2899E+02
     -8.885  0.3698E+01  0.2957E+02
     -8.774  0.3314E+01  0.2996E+02
     -8.664  0.2930E+01  0.3030E+02
     -8.553  0.2546E+01  0.3060E+02
     -8.442  0.2685E+01  0.3088E+02
     -8.332  0.2602E+01  0.3119E+02
     -8.221  0.2073E+01  0.3146E+02
     -8.111  0.1717E+01  0.3164E+02
     -8.000  0.2612E+01  0.3188E+02
     -7.889  0.8074E+01  0.3241E+02
     -7.779  0.4295E+01  0.3305E+02
     -7.668  0.3952E+01  0.3351E+02
     -7.558  0.4329E+01  0.3397E+02
     -7.447  0.6294E+01  0.3463E+02
     -7.337  0.6352E+01  0.3542E+02
     -7.226  0.7433E+01  0.3618E+02
     -7.115  0.8701E+01  0.3707E+02
     -7.005  0.7758E+01  0.3800E+02
     -6.894  0.6234E+01  0.3876E+02
     -6.784  0.5950E+01  0.3943E+02
     -6.673  0.5689E+01  0.4007E+02
     -6.562  0.5476E+01  0.4069E+02
     -6.452  0.5284E+01  0.4128E+02
     -6.341  0.5100E+01  0.4186E+02
     -6.231  0.4912E+01  0.4241E+02
     -6.120  0.4837E+01  0.4295E+02
     -6.010  0.4811E+01  0.4348E+02
     -5.899  0.4718E+01  0.4401E+02
     -5.788  0.4561E+01  0.4452E+02
     -5.678  0.4429E+01  0.4502E+02
     -5.567  0.3454E+01  0.4546E+02
     -5.457  0.4114E+01  0.4589E+02
     -5.346  0.4702E+01  0.4637E+02
     -5.235  0.5449E+01  0.4693E+02
     -5.125  0.6243E+01  0.4758E+02
     -5.014  0.8719E+01  0.4840E+02
     -4.904  0.9795E+01  0.4946E+02
     -4.793  0.7276E+01  0.5041E+02
     -4.683  0.4758E+01  0.5107E+02
     -4.572  0.2639E+01  0.5146E+02
     -4.461  0.2699E+01  0.5174E+02
     -4.351  0.3825E+01  0.5210E+02
     -4.240  0.5286E+01  0.5260E+02
     -4.130  0.6965E+01  0.5327E+02
     -4.019  0.8072E+01  0.5412E+02
     -3.908  0.7211E+01  0.5499E+02
     -3.798  0.5859E+01  0.5571E+02
     -3.687  0.5851E+01  0.5632E+02
     -3.577  0.7695E+01  0.5713E+02
     -3.466  0.7550E+01  0.5798E+02
     -3.356  0.7315E+01  0.5881E+02
     -3.245  0.7616E+01  0.5962E+02
     -3.134  0.7729E+01  0.6049E+02
     -3.024  0.9293E+01  0.6152E+02
     -2.913  0.8988E+01  0.6250E+02
     -2.803  0.8576E+01  0.6349E+02
     -2.692  0.7345E+01  0.6438E+02
     -2.581  0.7106E+01  0.6515E+02
     -2.471  0.7983E+01  0.6598E+02
     -2.360  0.9553E+01  0.6694E+02
     -2.250  0.1176E+02  0.6812E+02
     -2.139  0.1320E+02  0.6952E+02
     -2.028  0.1088E+02  0.7087E+02
     -1.918  0.1175E+02  0.7207E+02
     -1.807  0.1214E+02  0.7341E+02
     -1.697  0.1587E+02  0.7486E+02
     -1.586  0.1330E+02  0.7646E+02
     -1.476  0.1748E+02  0.7807E+02
     -1.365  0.9396E+01  0.7947E+02
     -1.254  0.2217E+02  0.8099E+02
     -1.144  0.1910E+02  0.8310E+02
     -1.033  0.1624E+02  0.8519E+02
     -0.923  0.1376E+02  0.8684E+02
     -0.812  0.1184E+02  0.8825E+02
     -0.701  0.1087E+02  0.8951E+02
     -0.591  0.7755E+01  0.9052E+02
     -0.480  0.8817E+01  0.9140E+02
     -0.370  0.1382E+02  0.9259E+02
     -0.259  0.1421E+02  0.9419E+02
     -0.149  0.9689E+01  0.9581E+02
     -0.038  0.8741E+01  0.9680E+02
      0.073  0.9242E+01  0.9779E+02
      0.183  0.9927E+01  0.9886E+02
      0.294  0.1103E+02  0.1000E+03
      0.404  0.1146E+02  0.1013E+03
      0.515  0.9748E+01  0.1024E+03
      0.626  0.9519E+01  0.1035E+03
      0.736  0.9396E+01  0.1045E+03
      0.847  0.9579E+01  0.1056E+03
      0.957  0.1008E+02  0.1067E+03
      1.068  0.9290E+01  0.1077E+03
      1.178  0.9196E+01  0.1087E+03
      1.289  0.9260E+01  0.1097E+03
      1.400  0.9449E+01  0.1108E+03
      1.510  0.9759E+01  0.1118E+03
      1.621  0.9263E+01  0.1129E+03
      1.731  0.8562E+01  0.1139E+03
      1.842  0.9501E+01  0.1149E+03
      1.953  0.9670E+01  0.1160E+03
      2.063  0.7294E+01  0.1169E+03
      2.174  0.5946E+01  0.1176E+03
      2.284  0.5846E+01  0.1183E+03
      2.395  0.5481E+01  0.1189E+03
      2.506  0.4494E+01  0.1194E+03
      2.616  0.6189E+01  0.1200E+03
      2.727  0.7916E+01  0.1207E+03
      2.837  0.7961E+01  0.1216E+03
      2.948  0.6412E+01  0.1224E+03
      3.058  0.6187E+01  0.1229E+03
      3.169  0.6078E+01  0.1236E+03
      3.280  0.6275E+01  0.1244E+03
      3.390  0.4790E+01  0.1250E+03
      3.501  0.3975E+01  0.1255E+03
      3.611  0.3342E+01  0.1259E+03
      3.722  0.3006E+01  0.1262E+03
      3.833  0.2708E+01  0.1265E+03
      3.943  0.2348E+01  0.1268E+03
      4.054  0.1947E+01  0.1270E+03
      4.164  0.1698E+01  0.1273E+03
      4.275  0.1445E+01  0.1274E+03
      4.385  0.1225E+01  0.1276E+03
      4.496  0.1037E+01  0.1277E+03
      4.607  0.9349E+00  0.1278E+03
      4.717  0.6856E+00  0.1279E+03
      4.828  0.4397E+00  0.1280E+03
      4.938  0.2013E+00  0.1280E+03
      5.049  0.1306E-03  0.1280E+03
      5.160  0.1253E+00  0.1280E+03
      5.270  0.2722E+00  0.1280E+03
      5.381  0.4282E+00  0.1281E+03
      5.491  0.5965E+00  0.1281E+03
      5.602  0.7802E+00  0.1282E+03
      5.712  0.9857E+00  0.1283E+03
      5.823  0.1226E+01  0.1284E+03
      5.934  0.1549E+01  0.1286E+03
      6.044  0.1903E+01  0.1288E+03
      6.155  0.2292E+01  0.1290E+03
      6.265  0.2899E+01  0.1293E+03
      6.376  0.4259E+01  0.1297E+03
      6.487  0.4612E+01  0.1301E+03
      6.597  0.8626E+01  0.1308E+03
      6.708  0.8454E+01  0.1320E+03
      6.818  0.7759E+01  0.1329E+03
      6.929  0.7396E+01  0.1337E+03
      7.039  0.7291E+01  0.1345E+03
      7.150  0.6706E+01  0.1353E+03
      7.261  0.5751E+01  0.1360E+03
      7.371  0.5150E+01  0.1366E+03
      7.482  0.4812E+01  0.1372E+03
      7.592  0.3783E+01  0.1376E+03
      7.703  0.3463E+01  0.1380E+03
      7.814  0.3587E+01  0.1384E+03
      7.924  0.4003E+01  0.1388E+03
      8.035  0.4355E+01  0.1393E+03
      8.145  0.4704E+01  0.1398E+03
      8.256  0.4932E+01  0.1403E+03
      8.367  0.4695E+01  0.1409E+03
      8.477  0.4447E+01  0.1414E+03
      8.588  0.4204E+01  0.1419E+03
      8.698  0.3982E+01  0.1423E+03
      8.809  0.3869E+01  0.1427E+03
      8.919  0.3697E+01  0.1432E+03
      9.030  0.3607E+01  0.1436E+03
      9.141  0.3521E+01  0.1440E+03
      9.251  0.3395E+01  0.1443E+03
      9.362  0.3249E+01  0.1447E+03
      9.472  0.3187E+01  0.1451E+03
      9.583  0.3170E+01  0.1454E+03
      9.694  0.3209E+01  0.1458E+03
      9.804  0.3276E+01  0.1461E+03
      9.915  0.3372E+01  0.1465E+03
     10.025  0.3498E+01  0.1469E+03
     10.136  0.3552E+01  0.1473E+03
     10.246  0.3600E+01  0.1477E+03
     10.357  0.3705E+01  0.1481E+03
     10.468  0.3783E+01  0.1485E+03
     10.578  0.3773E+01  0.1489E+03
     10.689  0.3721E+01  0.1493E+03
     10.799  0.3687E+01  0.1497E+03
     10.910  0.4127E+01  0.1501E+03
     11.021  0.4401E+01  0.1506E+03
     11.131  0.4555E+01  0.1511E+03
     11.242  0.4505E+01  0.1516E+03
     11.352  0.4358E+01  0.1521E+03
     11.463  0.4884E+01  0.1526E+03
     11.573  0.5509E+01  0.1532E+03
     11.684  0.3357E+01  0.1537E+03
     11.795  0.3076E+01  0.1540E+03
     11.905  0.2507E+01  0.1543E+03
     12.016  0.2891E+01  0.1547E+03
     12.126  0.3386E+01  0.1550E+03
     12.237  0.4273E+01  0.1554E+03
     12.348  0.5710E+01  0.1560E+03
     12.458  0.7223E+01  0.1568E+03
     12.569  0.9254E+01  0.1577E+03
     12.679  0.1182E+02  0.1589E+03
     12.790  0.1257E+02  0.1603E+03
     12.901  0.1230E+02  0.1617E+03
     13.011  0.1147E+02  0.1630E+03
     13.122  0.1046E+02  0.1642E+03
     13.232  0.8907E+01  0.1653E+03
     13.343  0.6981E+01  0.1661E+03
     13.453  0.6408E+01  0.1669E+03
     13.564  0.3584E+01  0.1675E+03
     13.675  0.2098E+01  0.1678E+03
     13.785  0.7137E+00  0.1679E+03
     13.896  0.2270E+00  0.1680E+03
     14.006  0.8135E-01  0.1680E+03
     14.117  0.5124E-01  0.1680E+03
     14.228  0.2840E-01  0.1680E+03
     14.338  0.1226E-01  0.1680E+03
     14.449  0.2796E-02  0.1680E+03
     14.559  0.0000E+00  0.1680E+03
     14.670  0.0000E+00  0.1680E+03
     14.780  0.0000E+00  0.1680E+03
     14.891  0.0000E+00  0.1680E+03
     15.002  0.0000E+00  0.1680E+03
     15.112  0.0000E+00  0.1680E+03
     15.223  0.0000E+00  0.1680E+03
     15.333  0.0000E+00  0.1680E+03
     15.444  0.0000E+00  0.1680E+03
     15.555  0.0000E+00  0.1680E+03
     15.665  0.0000E+00  0.1680E+03
     15.776  0.0000E+00  0.1680E+03
     15.886  0.0000E+00  0.1680E+03
     15.997  0.0000E+00  0.1680E+03
     16.107  0.0000E+00  0.1680E+03
     16.218  0.0000E+00  0.1680E+03
     16.329  0.0000E+00  0.1680E+03
     16.439  0.0000E+00  0.1680E+03
     16.550  0.0000E+00  0.1680E+03
