   32   32    1    1
  0.7533559E+01  0.4934311E-09  0.4934311E-09  0.1143376E-08  0.5000000E-15
  1.000000000000000E-004
  CAR 
 graphite                                
    128    163     84
 
  0.0000000E+00  0.0000000E+00  0.0000000E+00  0.3086420E-02
    1      -13.719653
    2      -13.297724
    3      -13.296463
    4      -12.791647
    5       -8.267002
    6       -8.265213
    7       -8.263622
    8       -8.039165
    9       -8.034832
   10       -8.034411
   11       -8.033862
   12       -8.033571
   13       -8.029358
   14       -7.924735
   15       -7.921843
   16       -7.918416
   17       -7.011285
   18       -7.008625
   19       -7.006530
   20       -6.991343
   21       -6.989150
   22       -6.988216
   23       -6.987661
   24       -6.987254
   25       -6.983638
   26       -6.768464
   27       -6.766982
   28       -6.766426
   29       -3.155625
   30       -1.344109
   31       -1.340865
   32       -0.249521
   33       -0.246864
   34       -0.245750
   35       -0.137698
   36       -0.134860
   37       -0.134820
   38       -0.133433
   39       -0.131673
   40       -0.130025
   41       -0.019323
   42       -0.016656
   43       -0.015417
   44        0.954259
   45        2.807766
   46        2.808967
   47        2.810147
   48        3.199631
   49        3.203724
   50        3.240116
   51        3.242968
   52        3.247785
   53        3.250601
   54        3.286908
   55        3.291143
   56        3.852719
   57        3.858809
   58        3.859243
   59        3.859568
   60        3.860285
   61        3.866053
   62        4.184044
   63        4.186773
   64        4.189285
   65        7.828829
   66        7.834540
   67        7.836237
   68        7.836571
   69        7.836869
   70        7.842687
   71        8.080017
   72        8.082509
   73        8.085072
   74        8.996504
   75        8.998406
   76        8.999335
   77       12.469265
   78       13.027564
   79       13.031730
   80       13.034865
   81       13.573460
   82       13.575339
   83       13.576707
   84       13.578563
 
  0.1111111E+00  0.1387779E-16  0.0000000E+00  0.6172840E-02
    1      -13.644997
    2      -13.224395
    3      -13.223139
    4      -12.720391
    5       -9.116109
    6       -8.791560
    7       -8.790538
    8       -8.550048
    9       -8.547695
   10       -8.428275
   11       -8.259878
   12       -8.257039
   13       -8.256292
   14       -8.254367
   15       -7.971239
   16       -7.967668
   17       -6.846564
   18       -6.844535
   19       -6.646764
   20       -6.645887
   21       -6.644955
   22       -6.642443
   23       -6.379805
   24       -6.359182
   25       -6.357521
   26       -6.124295
   27       -6.122033
   28       -5.821641
   29       -3.065228
   30       -1.258099
   31       -1.254858
   32       -0.483486
   33       -0.480582
   34       -0.362481
   35       -0.360215
   36       -0.357737
   37       -0.357115
   38       -0.233337
   39       -0.230439
   40       -0.173941
   41       -0.062548
   42       -0.059491
   43        0.054994
   44        1.033955
   45        2.146574
   46        2.665861
   47        2.667594
   48        2.887079
   49        2.941392
   50        2.947454
   51        3.001848
   52        3.037250
   53        3.087634
   54        3.093829
   55        3.144511
   56        3.436971
   57        3.441288
   58        3.802456
   59        3.808211
   60        3.809147
   61        3.811037
   62        4.355701
   63        4.359093
   64        4.433924
   65        7.962590
   66        7.964910
   67        7.966169
   68        7.971361
   69        8.027797
   70        8.030812
   71        8.047736
   72        8.366029
   73        8.371353
   74        9.136304
   75        9.138248
   76        9.666564
   77       12.546418
   78       13.076797
   79       13.369624
   80       13.375379
   81       13.618059
   82       13.622161
   83       13.907039
   84       13.914602
 
  0.2222222E+00  0.1387779E-16  0.0000000E+00  0.6172840E-02
    1      -13.421306
    2      -13.004868
    3      -13.003622
    4      -12.506978
    5      -10.146887
    6       -9.793964
    7       -9.792887
    8       -9.386407
    9       -8.915605
   10       -8.913487
   11       -8.596566
   12       -8.594336
   13       -8.593754
   14       -8.591869
   15       -8.239019
   16       -8.236430
   17       -6.204678
   18       -6.202929
   19       -5.956205
   20       -5.955376
   21       -5.954274
   22       -5.951971
   23       -5.663105
   24       -5.661173
   25       -5.050574
   26       -4.800897
   27       -4.798735
   28       -4.519789
   29       -2.794824
   30       -1.107967
   31       -1.105308
   32       -1.001336
   33       -0.998117
   34       -0.966235
   35       -0.964024
   36       -0.961913
   37       -0.961113
   38       -0.811627
   39       -0.808948
   40        0.042154
   41        0.151625
   42        0.154771
   43        0.267626
   44        1.058722
   45        1.271528
   46        2.035874
   47        2.121075
   48        2.126300
   49        2.212911
   50        2.399807
   51        2.401692
   52        2.557868
   53        2.561606
   54        2.603573
   55        2.671779
   56        2.677411
   57        2.746653
   58        3.682883
   59        3.688537
   60        3.689361
   61        3.691448
   62        4.216974
   63        4.684466
   64        4.687781
   65        7.993700
   66        7.995889
   67        8.292074
   68        8.294418
   69        8.295690
   70        8.301464
   71        8.802390
   72        9.402390
   73        9.405131
   74        9.573691
   75        9.578316
   76       10.859604
   77       12.779667
   78       13.211935
   79       13.743029
   80       13.745069
   81       14.284012
   82       14.313806
   83       14.339818
   84       14.497185
 
  0.3333333E+00  0.8326673E-16  0.0000000E+00  0.6172840E-02
    1      -13.049822
    2      -12.640219
    3      -12.638991
    4      -12.152331
    5      -11.073988
    6      -10.701770
    7      -10.700640
    8      -10.267047
    9       -9.179792
   10       -9.177822
   11       -8.849880
   12       -8.847841
   13       -8.847433
   14       -8.845502
   15       -8.473111
   16       -8.470874
   17       -5.388808
   18       -5.386837
   19       -5.151257
   20       -5.150427
   21       -5.149288
   22       -5.146650
   23       -4.885225
   24       -4.883035
   25       -3.597381
   26       -3.374020
   27       -3.371615
   28       -3.126335
   29       -2.346522
   30       -1.936966
   31       -1.934663
   32       -1.780329
   33       -1.777861
   34       -1.776490
   35       -1.775318
   36       -1.601510
   37       -1.599130
   38       -0.577223
   39       -0.574041
   40        0.000719
   41        0.393182
   42        0.499632
   43        0.502969
   44        0.612506
   45        0.821865
   46        0.944252
   47        0.948475
   48        1.072754
   49        1.615207
   50        1.618612
   51        1.661564
   52        2.028958
   53        2.112200
   54        2.116616
   55        2.174950
   56        2.176954
   57        2.202780
   58        3.559885
   59        3.564678
   60        3.565963
   61        3.566763
   62        3.569644
   63        4.953379
   64        4.956612
   65        8.084704
   66        8.086931
   67        8.676365
   68        8.678837
   69        8.679981
   70        8.685983
   71        9.611609
   72        9.614867
   73       10.212584
   74       11.029191
   75       11.033591
   76       12.183628
   77       13.165835
   78       13.424421
   79       13.944820
   80       13.947224
   81       14.321495
   82       14.373826
   83       14.406152
   84       14.411120
 
  0.4444444E+00  0.2775558E-16  0.0000000E+00  0.6172840E-02
    1      -12.532356
    2      -12.132328
    3      -12.131125
    4      -11.872046
    5      -11.658426
    6      -11.484336
    7      -11.483165
    8      -11.028208
    9       -9.315701
   10       -9.313799
   11       -8.981052
   12       -8.979054
   13       -8.978772
   14       -8.976794
   15       -8.597724
   16       -8.595613
   17       -4.602095
   18       -4.599924
   19       -4.418664
   20       -4.417757
   21       -4.417310
   22       -4.413232
   23       -4.240596
   24       -4.238113
   25       -2.652083
   26       -2.650267
   27       -2.542545
   28       -2.539282
   29       -2.538848
   30       -2.537403
   31       -2.377726
   32       -2.375862
   33       -2.092603
   34       -1.901560
   35       -1.898702
   36       -1.724925
   37       -1.690350
   38       -0.937614
   39       -0.593380
   40       -0.442326
   41       -0.439004
   42       -0.265807
   43        0.017852
   44        0.021394
   45        0.750206
   46        0.753590
   47        0.862981
   48        0.964484
   49        0.968102
   50        1.072524
   51        1.423754
   52        1.517921
   53        1.522215
   54        1.618633
   55        2.052605
   56        2.054761
   57        2.193087
   58        2.844262
   59        3.486715
   60        3.492180
   61        3.492884
   62        3.495228
   63        5.086279
   64        5.089482
   65        8.217884
   66        8.220494
   67        8.937679
   68        8.940269
   69        8.941222
   70        8.947477
   71        9.696063
   72        9.699665
   73       11.851363
   74       12.527413
   75       12.532172
   76       13.501168
   77       13.533230
   78       13.655706
   79       13.681467
   80       13.823386
   81       13.829113
   82       14.095573
   83       14.220739
   84       14.224811
 
 -0.8470329E-21  0.1111111E+00  0.0000000E+00  0.6172840E-02
    1      -13.644995
    2      -13.224393
    3      -13.223137
    4      -12.720389
    5       -9.116197
    6       -8.791698
    7       -8.790705
    8       -8.550268
    9       -8.547196
   10       -8.428525
   11       -8.259557
   12       -8.257084
   13       -8.256349
   14       -8.253668
   15       -7.970524
   16       -7.967719
   17       -6.847648
   18       -6.845136
   19       -6.649157
   20       -6.646516
   21       -6.644979
   22       -6.642254
   23       -6.378723
   24       -6.360552
   25       -6.357267
   26       -6.122454
   27       -6.121614
   28       -5.820573
   29       -3.065232
   30       -1.258104
   31       -1.254864
   32       -0.481876
   33       -0.480789
   34       -0.360459
   35       -0.360127
   36       -0.357250
   37       -0.356911
   38       -0.231731
   39       -0.230655
   40       -0.175271
   41       -0.062656
   42       -0.062227
   43        0.053492
   44        1.033946
   45        2.145883
   46        2.665922
   47        2.668475
   48        2.890344
   49        2.946846
   50        2.947480
   51        3.003992
   52        3.035150
   53        3.087616
   54        3.088326
   55        3.141077
   56        3.436225
   57        3.439807
   58        3.803767
   59        3.808179
   60        3.808667
   61        3.813109
   62        4.356286
   63        4.360033
   64        4.432264
   65        7.959611
   66        7.964197
   67        7.966199
   68        7.970038
   69        8.026547
   70        8.029929
   71        8.050447
   72        8.368929
   73        8.372470
   74        9.134371
   75        9.137902
   76        9.668294
   77       12.546393
   78       13.076058
   79       13.371231
   80       13.374583
   81       13.617874
   82       13.620935
   83       13.912245
   84       13.913877
 
  0.1111111E+00  0.1111111E+00  0.0000000E+00  0.6172840E-02
    1      -13.495811
    2      -13.077947
    3      -13.076697
    4      -12.578031
    5       -9.591425
    6       -9.587998
    7       -9.252690
    8       -9.249163
    9       -9.249140
   10       -9.245527
   11       -8.862981
   12       -8.859357
   13       -8.074334
   14       -7.847996
   15       -7.846220
   16       -7.734783
   17       -6.822929
   18       -6.805855
   19       -6.801805
   20       -6.592067
   21       -5.698692
   22       -5.694966
   23       -5.443896
   24       -5.439189
   25       -5.439140
   26       -5.436271
   27       -5.150220
   28       -5.146367
   29       -2.884808
   30       -1.182319
   31       -1.086684
   32       -1.083451
   33       -1.039034
   34       -1.036367
   35       -0.883321
   36       -0.336879
   37       -0.333949
   38       -0.216637
   39       -0.215025
   40       -0.214983
   41       -0.210471
   42       -0.089831
   43       -0.086624
   44        1.192582
   45        1.672523
   46        1.675050
   47        2.351285
   48        2.409644
   49        2.415537
   50        2.458813
   51        2.739244
   52        2.772998
   53        2.779136
   54        2.829510
   55        3.070430
   56        3.081319
   57        3.084234
   58        3.084307
   59        3.089429
   60        4.118913
   61        4.123690
   62        4.432645
   63        4.470957
   64        4.474169
   65        7.760671
   66        7.766619
   67        8.113254
   68        8.294464
   69        8.298165
   70        8.678298
   71        8.900323
   72        8.906196
   73        8.906652
   74        8.909197
   75       10.166449
   76       10.169295
   77       12.702528
   78       13.460441
   79       13.464900
   80       13.990062
   81       13.994366
   82       13.996590
   83       14.001164
   84       14.275208
 
  0.2222222E+00  0.1111111E+00  0.0000000E+00  0.6172840E-02
    1      -13.198215
    2      -12.785848
    3      -12.784613
    4      -12.293989
    5      -10.572542
    6      -10.210462
    7      -10.209357
    8       -9.937414
    9       -9.790077
   10       -9.588741
   11       -9.587669
   12       -9.187225
   13       -8.156993
   14       -7.874681
   15       -7.873464
   16       -7.596585
   17       -6.490717
   18       -6.303550
   19       -6.300370
   20       -6.034774
   21       -4.901775
   22       -4.660598
   23       -4.659749
   24       -4.392281
   25       -4.300127
   26       -4.065005
   27       -4.062867
   28       -3.803208
   29       -2.525418
   30       -2.107257
   31       -1.942619
   32       -1.940009
   33       -1.757966
   34       -0.878370
   35       -0.746060
   36       -0.743018
   37       -0.740101
   38       -0.739642
   39       -0.591569
   40       -0.045878
   41        0.070388
   42        0.073448
   43        0.194665
   44        0.582187
   45        1.312781
   46        1.373972
   47        1.462675
   48        1.468401
   49        1.506483
   50        1.549477
   51        2.142952
   52        2.146468
   53        2.173598
   54        2.231616
   55        2.237933
   56        2.307447
   57        2.799026
   58        2.802435
   59        3.179721
   60        3.972230
   61        4.319135
   62        4.323782
   63        4.449237
   64        4.856829
   65        7.766705
   66        7.772363
   67        7.891830
   68        8.599677
   69        8.729544
   70        9.440569
   71        9.467529
   72        9.470997
   73       10.255387
   74       10.259637
   75       10.549462
   76       11.426068
   77       13.017744
   78       13.638600
   79       14.157634
   80       14.159959
   81       14.444381
   82       14.641901
   83       14.663028
   84       14.693818
 
  0.3333333E+00  0.1111111E+00  0.0000000E+00  0.6172840E-02
    1      -12.753714
    2      -12.349556
    3      -12.348342
    4      -11.869715
    5      -11.435612
    6      -11.056292
    7      -11.055143
    8      -10.611904
    9      -10.148813
   10       -9.795404
   11       -9.794318
   12       -9.387105
   13       -8.316249
   14       -8.010445
   15       -8.009458
   16       -7.672021
   17       -5.750845
   18       -5.534501
   19       -5.531516
   20       -5.290404
   21       -4.076910
   22       -3.870713
   23       -3.869332
   24       -3.651368
   25       -3.039633
   26       -2.881545
   27       -2.878689
   28       -2.827414
   29       -2.685726
   30       -2.623095
   31       -2.620735
   32       -2.398183
   33       -1.990187
   34       -1.579020
   35       -1.441947
   36       -1.440547
   37       -1.279871
   38       -0.420919
   39       -0.244451
   40       -0.241492
   41        0.095645
   42        0.231606
   43        0.236124
   44        0.363030
   45        0.374836
   46        0.485255
   47        0.488439
   48        0.604091
   49        1.089195
   50        1.230226
   51        1.233616
   52        1.526915
   53        1.611477
   54        1.616807
   55        1.707953
   56        1.968165
   57        2.618005
   58        2.621405
   59        3.139878
   60        3.256768
   61        4.405889
   62        4.410206
   63        4.412725
   64        5.428658
   65        7.454677
   66        7.881589
   67        7.886691
   68        8.728308
   69        9.181523
   70        9.915260
   71        9.919043
   72       10.735881
   73       10.983904
   74       11.735434
   75       11.739645
   76       12.747293
   77       13.483303
   78       13.874811
   79       14.172262
   80       14.313288
   81       14.319679
   82       14.388146
   83       14.391465
   84       14.491089
 
  0.4444444E+00  0.1111111E+00  0.0000000E+00  0.6172840E-02
    1      -12.166491
    2      -12.163261
    3      -11.774486
    4      -11.771160
    5      -11.771042
    6      -11.767681
    7      -11.309342
    8      -11.305952
    9      -10.219784
   10       -9.864915
   11       -9.863823
   12       -9.454384
   13       -8.375414
   14       -8.064642
   15       -8.063682
   16       -7.716194
   17       -5.205917
   18       -5.048864
   19       -5.046126
   20       -4.918745
   21       -3.550834
   22       -3.476152
   23       -3.422536
   24       -3.419742
   25       -3.415211
   26       -3.411732
   27       -3.302552
   28       -3.281746
   29       -1.939734
   30       -1.881530
   31       -1.877978
   32       -1.757328
   33       -1.340738
   34       -1.337124
   35       -1.286502
   36       -1.283859
   37       -1.174046
   38       -1.167887
   39       -1.167739
   40       -1.167166
   41       -0.987760
   42       -0.984419
   43        0.424256
   44        0.427620
   45        0.427937
   46        0.432648
   47        0.906687
   48        0.911672
   49        1.008039
   50        1.010527
   51        1.010596
   52        1.011580
   53        1.022748
   54        1.117520
   55        1.123869
   56        2.555253
   57        2.558936
   58        2.561116
   59        2.564359
   60        3.113196
   61        4.388514
   62        4.430936
   63        4.434621
   64        5.738355
   65        7.206510
   66        7.946424
   67        7.950728
   68        8.784384
   69        9.391168
   70       10.090293
   71       10.094431
   72       10.768147
   73       12.617174
   74       12.621343
   75       13.176438
   76       13.183042
   77       13.184492
   78       13.186411
   79       13.990176
   80       13.992533
   81       14.058844
   82       14.062316
   83       14.319790
   84       14.326831
 
 -0.4444444E+00  0.1111111E+00  0.0000000E+00  0.6172840E-02
    1      -12.753795
    2      -12.349640
    3      -12.348427
    4      -11.869783
    5      -11.435475
    6      -11.056154
    7      -11.055005
    8      -10.611761
    9      -10.149187
   10       -9.795614
   11       -9.794528
   12       -9.387318
   13       -8.315907
   14       -8.010029
   15       -8.009091
   16       -7.671535
   17       -5.750360
   18       -5.533021
   19       -5.531912
   20       -5.289885
   21       -4.077914
   22       -3.872470
   23       -3.869414
   24       -3.652202
   25       -3.040580
   26       -2.881654
   27       -2.880647
   28       -2.827636
   29       -2.686793
   30       -2.623633
   31       -2.620876
   32       -2.398533
   33       -1.990288
   34       -1.577858
   35       -1.441721
   36       -1.438257
   37       -1.278575
   38       -0.420764
   39       -0.244544
   40       -0.241592
   41        0.096090
   42        0.232697
   43        0.235652
   44        0.363183
   45        0.375319
   46        0.485351
   47        0.489091
   48        0.604486
   49        1.088983
   50        1.230349
   51        1.233761
   52        1.526619
   53        1.611975
   54        1.615498
   55        1.707486
   56        1.968060
   57        2.617662
   58        2.621173
   59        3.140151
   60        3.256914
   61        4.405712
   62        4.410575
   63        4.413134
   64        5.430255
   65        7.453537
   66        7.882131
   67        7.885904
   68        8.728159
   69        9.181336
   70        9.914655
   71        9.919146
   72       10.736029
   73       10.983842
   74       11.735076
   75       11.739638
   76       12.747014
   77       13.483119
   78       13.874608
   79       14.173566
   80       14.313221
   81       14.319984
   82       14.388278
   83       14.391270
   84       14.490000
 
 -0.3333333E+00  0.1111111E+00  0.0000000E+00  0.6172840E-02
    1      -13.198275
    2      -12.785908
    3      -12.784673
    4      -12.294048
    5      -10.572376
    6      -10.210286
    7      -10.209184
    8       -9.937823
    9       -9.789913
   10       -9.589179
   11       -9.588111
   12       -9.187666
   13       -8.156231
   14       -7.873579
   15       -7.872737
   16       -7.595369
   17       -6.490739
   18       -6.302083
   19       -6.301356
   20       -6.034420
   21       -4.902702
   22       -4.662336
   23       -4.659803
   24       -4.393092
   25       -4.300487
   26       -4.065451
   27       -4.063082
   28       -3.803538
   29       -2.525491
   30       -2.108569
   31       -1.942927
   32       -1.942371
   33       -1.759307
   34       -0.876813
   35       -0.746126
   36       -0.743010
   37       -0.739810
   38       -0.736862
   39       -0.589979
   40       -0.045626
   41        0.070514
   42        0.073816
   43        0.194901
   44        0.582362
   45        1.312321
   46        1.374305
   47        1.464462
   48        1.466953
   49        1.506414
   50        1.549448
   51        2.143115
   52        2.146624
   53        2.173704
   54        2.233104
   55        2.235975
   56        2.306915
   57        2.798322
   58        2.801970
   59        3.180248
   60        3.972348
   61        4.320638
   62        4.324336
   63        4.448210
   64        4.858882
   65        7.767512
   66        7.771170
   67        7.890553
   68        8.599405
   69        8.729505
   70        9.440610
   71        9.466511
   72        9.471228
   73       10.255021
   74       10.259607
   75       10.549550
   76       11.425767
   77       13.017602
   78       13.638417
   79       14.157319
   80       14.159770
   81       14.447666
   82       14.646224
   83       14.677863
   84       14.694640
 
 -0.2222222E+00  0.1111111E+00  0.0000000E+00  0.6172840E-02
    1      -13.495847
    2      -13.077983
    3      -13.076733
    4      -12.578066
    5       -9.590312
    6       -9.589517
    7       -9.250451
    8       -9.249415
    9       -9.249318
   10       -9.248279
   11       -8.861903
   12       -8.860991
   13       -8.072968
   14       -7.845824
   15       -7.845237
   16       -7.733159
   17       -6.822913
   18       -6.804483
   19       -6.804088
   20       -6.592299
   21       -5.697611
   22       -5.696958
   23       -5.441611
   24       -5.440812
   25       -5.439384
   26       -5.438446
   27       -5.149126
   28       -5.148492
   29       -2.884853
   30       -1.183810
   31       -1.086731
   32       -1.083498
   33       -1.039447
   34       -1.038960
   35       -0.884834
   36       -0.334510
   37       -0.334429
   38       -0.214952
   39       -0.214738
   40       -0.211929
   41       -0.211730
   42       -0.087367
   43       -0.087331
   44        1.192532
   45        1.672844
   46        1.674251
   47        2.351347
   48        2.412180
   49        2.412485
   50        2.458225
   51        2.740000
   52        2.776146
   53        2.776426
   54        2.829203
   55        3.070834
   56        3.081081
   57        3.084192
   58        3.084391
   59        3.088509
   60        4.120716
   61        4.124462
   62        4.434801
   63        4.470246
   64        4.473390
   65        7.761556
   66        7.765249
   67        8.112326
   68        8.295124
   69        8.297819
   70        8.677886
   71        8.900989
   72        8.904691
   73        8.906069
   74        8.909724
   75       10.166730
   76       10.168789
   77       12.702435
   78       13.462978
   79       13.465974
   80       13.994014
   81       13.995983
   82       13.996909
   83       13.999145
   84       14.264911
 
 -0.1111111E+00  0.1111111E+00  0.0000000E+00  0.6172840E-02
    1      -13.645007
    2      -13.224405
    3      -13.223149
    4      -12.720401
    5       -9.117053
    6       -8.792604
    7       -8.791579
    8       -8.549131
    9       -8.546995
   10       -8.429515
   11       -8.258352
   12       -8.256351
   13       -8.256131
   14       -8.253001
   15       -7.970002
   16       -7.966628
   17       -6.847846
   18       -6.845193
   19       -6.648632
   20       -6.645333
   21       -6.645076
   22       -6.644151
   23       -6.378953
   24       -6.360081
   25       -6.358015
   26       -6.123742
   27       -6.121229
   28       -5.821024
   29       -3.065247
   30       -1.258120
   31       -1.254879
   32       -0.483435
   33       -0.480797
   34       -0.361515
   35       -0.360228
   36       -0.360179
   37       -0.355904
   38       -0.233401
   39       -0.230464
   40       -0.173663
   41       -0.062209
   42       -0.059350
   43        0.055165
   44        1.033930
   45        2.145071
   46        2.666812
   47        2.668555
   48        2.889586
   49        2.943947
   50        2.949770
   51        3.004359
   52        3.034862
   53        3.085342
   54        3.091172
   55        3.141747
   56        3.434834
   57        3.439010
   58        3.805733
   59        3.807847
   60        3.808506
   61        3.814345
   62        4.357653
   63        4.360721
   64        4.430329
   65        7.958851
   66        7.965860
   67        7.966401
   68        7.968732
   69        8.026282
   70        8.029468
   71        8.050888
   72        8.367908
   73        8.373379
   74        9.134522
   75        9.137201
   76        9.668456
   77       12.546360
   78       13.079863
   79       13.368841
   80       13.373043
   81       13.622445
   82       13.626006
   83       13.908102
   84       13.915234
 
 -0.3388132E-20  0.2222222E+00  0.0000000E+00  0.6172840E-02
    1      -13.421298
    2      -13.004860
    3      -13.003614
    4      -12.506969
    5      -10.146861
    6       -9.793949
    7       -9.792874
    8       -9.386415
    9       -8.916116
   10       -8.912914
   11       -8.597247
   12       -8.594378
   13       -8.593814
   14       -8.590797
   15       -8.239180
   16       -8.236007
   17       -6.206136
   18       -6.202858
   19       -5.958826
   20       -5.955951
   21       -5.954268
   22       -5.951301
   23       -5.664575
   24       -5.660915
   25       -5.049500
   26       -4.799164
   27       -4.798365
   28       -4.518735
   29       -2.794843
   30       -1.106786
   31       -1.105011
   32       -1.001360
   33       -0.998133
   34       -0.964789
   35       -0.963987
   36       -0.961227
   37       -0.960343
   38       -0.810459
   39       -0.808628
   40        0.040722
   41        0.151493
   42        0.151890
   43        0.266040
   44        1.058313
   45        1.271478
   46        2.038602
   47        2.126046
   48        2.126428
   49        2.215311
   50        2.399606
   51        2.402761
   52        2.557387
   53        2.560799
   54        2.601188
   55        2.671721
   56        2.672117
   57        2.743616
   58        3.683886
   59        3.688506
   60        3.688916
   61        3.693540
   62        4.215728
   63        4.685198
   64        4.688773
   65        7.991943
   66        7.995415
   67        8.289186
   68        8.293872
   69        8.295606
   70        8.300245
   71        8.804576
   72        9.400258
   73        9.404623
   74        9.575806
   75        9.579263
   76       10.860982
   77       12.779589
   78       13.211154
   79       13.742490
   80       13.743994
   81       14.281213
   82       14.311118
   83       14.358175
   84       14.529080
 
  0.1111111E+00  0.2222222E+00  0.0000000E+00  0.6172840E-02
    1      -13.198209
    2      -12.785842
    3      -12.784607
    4      -12.293981
    5      -10.572496
    6      -10.210419
    7      -10.209317
    8       -9.937452
    9       -9.790043
   10       -9.588766
   11       -9.587699
   12       -9.187234
   13       -8.156981
   14       -7.874652
   15       -7.873459
   16       -7.596569
   17       -6.490766
   18       -6.303552
   19       -6.300570
   20       -6.034927
   21       -4.902934
   22       -4.662391
   23       -4.660273
   24       -4.393469
   25       -4.298979
   26       -4.063189
   27       -4.062377
   28       -3.802027
   29       -2.525432
   30       -2.107138
   31       -1.942434
   32       -1.940007
   33       -1.757892
   34       -0.876873
   35       -0.746067
   36       -0.742896
   37       -0.739805
   38       -0.737052
   39       -0.590013
   40       -0.047421
   41        0.070102
   42        0.070539
   43        0.193005
   44        0.581837
   45        1.313237
   46        1.375537
   47        1.465141
   48        1.468405
   49        1.506460