   32   32    1    1
  0.9254429E+01  0.4932875E-09  0.4932875E-09  0.1405931E-08  0.5000000E-15
  1.000000000000000E-004
  CAR 
 graphite                                
    128     76     84
 
  0.0000000E+00  0.0000000E+00  0.0000000E+00  0.6944444E-02
    1      -15.314322
    2      -15.213325
    3      -15.213014
    4      -15.106989
    5      -10.016888
    6      -10.006393
    7      -10.003639
    8       -9.978030
    9       -9.976326
   10       -9.966461
   11       -9.964799
   12       -9.964794
   13       -9.961264
   14       -9.941843
   15       -9.929609
   16       -9.926995
   17       -8.950368
   18       -8.949461
   19       -8.948002
   20       -8.927435
   21       -8.926794
   22       -8.924827
   23       -8.923948
   24       -8.923938
   25       -8.921970
   26       -8.892534
   27       -8.891680
   28       -8.889372
   29       -4.040733
   30       -3.338369
   31       -3.336955
   32       -2.499996
   33       -2.123997
   34       -2.121904
   35       -2.108197
   36       -2.106022
   37       -2.106018
   38       -2.105102
   39       -2.102379
   40       -2.090356
   41       -2.088170
   42       -2.087246
   43       -2.085785
   44       -2.070683
   45        1.265855
   46        1.270547
   47        1.271352
   48        1.274695
   49        1.282869
   50        1.286150
   51        1.286945
   52        1.291448
   53        1.621520
   54        1.625355
   55        1.627410
   56        1.917470
   57        1.920176
   58        1.927223
   59        1.927733
   60        1.927758
   61        1.931383
   62        2.143613
   63        2.159053
   64        2.160880
   65        5.784804
   66        5.787004
   67        5.790743
   68        5.937326
   69        5.939805
   70        5.941767
   71        5.944273
   72        5.944552
   73        5.947395
   74        6.343237
   75        6.349327
   76        6.352463
   77        8.231858
   78       10.521804
   79       10.524310
   80       11.527606
   81       11.531386
   82       11.563278
   83       11.665944
   84       11.666868
 
  0.1666667E+00 -0.1387779E-16  0.0000000E+00  0.1388889E-01
    1      -15.149051
    2      -15.049044
    3      -15.048738
    4      -14.943836
    5      -11.303446
    6      -11.228150
    7      -11.227909
    8      -11.149844
    9      -10.435161
   10      -10.427876
   11      -10.369730
   12      -10.368938
   13      -10.361922
   14      -10.361290
   15      -10.301781
   16      -10.294031
   17       -8.317578
   18       -8.311407
   19       -8.265687
   20       -8.263909
   21       -8.258540
   22       -8.258031
   23       -8.209263
   24       -8.202853
   25       -7.472501
   26       -7.419638
   27       -7.418074
   28       -7.363329
   29       -3.840378
   30       -3.142615
   31       -3.141208
   32       -2.613506
   33       -2.597058
   34       -2.591574
   35       -2.591355
   36       -2.575834
   37       -2.573618
   38       -2.569106
   39       -2.552394
   40       -2.310458
   41       -1.959808
   42       -1.943759
   43       -1.941253
   44       -1.924807
   45        0.573189
   46        0.617361
   47        0.627402
   48        0.631106
   49        0.640151
   50        0.928628
   51        0.936068
   52        0.939719
   53        0.949174
   54        1.080552
   55        1.082420
   56        1.413513
   57        1.418533
   58        1.630049
   59        1.810314
   60        1.812881
   61        1.819016
   62        1.819635
   63        2.187393
   64        2.199009
   65        6.000611
   66        6.002232
   67        6.218254
   68        6.221342
   69        6.223868
   70        6.226954
   71        6.621388
   72        6.628142
   73        6.725008
   74        7.041973
   75        7.045703
   76        7.499464
   77        8.435740
   78       10.707152
   79       10.709640
   80       11.618072
   81       11.749114
   82       11.750236
   83       11.878409
   84       12.260967
 
  0.3333333E+00 -0.2775558E-16  0.0000000E+00  0.1388889E-01
    1      -14.654961
    2      -14.558014
    3      -14.557722
    4      -14.456284
    5      -12.710420
    6      -12.625578
    7      -12.625322
    8      -12.537017
    9      -10.855583
   10      -10.851935
   11      -10.783552
   12      -10.782847
   13      -10.779631
   14      -10.778737
   15      -10.708382
   16      -10.704611
   17       -7.145077
   18       -7.135955
   19       -7.097364
   20       -7.095551
   21       -7.087625
   22       -7.086829
   23       -7.046487
   24       -7.037495
   25       -5.360433
   26       -5.317349
   27       -5.315529
   28       -5.271685
   29       -3.767700
   30       -3.753628
   31       -3.738727
   32       -3.738214
   33       -3.725262
   34       -3.723121
   35       -3.708383
   36       -3.694134
   37       -3.243991
   38       -2.560400
   39       -2.559006
   40       -1.748043
   41       -1.486223
   42       -1.470891
   43       -1.468188
   44       -1.452591
   45       -1.031929
   46       -1.012531
   47       -1.008912
   48       -0.989612
   49       -0.951521
   50       -0.342951
   51       -0.341533
   52        0.131586
   53        0.142673
   54        0.146297
   55        0.158247
   56        0.363133
   57        1.127170
   58        1.130677
   59        1.622146
   60        1.624663
   61        1.627827
   62        1.628518
   63        2.161939
   64        2.167891
   65        6.537635
   66        6.541009
   67        6.793320
   68        6.795274
   69        6.797909
   70        6.800854
   71        7.114443
   72        7.118125
   73        8.883784
   74        9.048084
   75        9.181431
   76        9.184431
   77        9.568996
   78       11.252855
   79       11.255431
   80       11.429390
   81       11.903986
   82       11.972212
   83       11.973672
   84       12.190220
 
  0.5000000E+00  0.0000000E+00  0.0000000E+00  0.6944444E-02
    1      -13.839335
    2      -13.836654
    3      -13.748640
    4      -13.745969
    5      -13.745951
    6      -13.743234
    7      -13.651324
    8      -13.648582
    9      -11.003478
   10      -11.001830
   11      -10.930410
   12      -10.928873
   13      -10.928858
   14      -10.927049
   15      -10.853324
   16      -10.851623
   17       -6.242407
   18       -6.240823
   19       -6.216852
   20       -6.216850
   21       -6.216400
   22       -6.212568
   23       -6.191644
   24       -6.189118
   25       -4.659141
   26       -4.657393
   27       -4.643057
   28       -4.640613
   29       -4.639436
   30       -4.639434
   31       -4.620627
   32       -4.619606
   33       -3.145433
   34       -3.141979
   35       -3.115059
   36       -3.109840
   37       -3.109835
   38       -3.109397
   39       -3.079377
   40       -3.076910
   41       -2.268564
   42       -2.266375
   43       -1.612219
   44       -1.610054
   45       -1.609927
   46       -1.606964
   47       -0.837161
   48       -0.834679
   49       -0.753201
   50       -0.750186
   51       -0.738809
   52       -0.737425
   53       -0.737405
   54       -0.731183
   55       -0.723137
   56       -0.715012
   57        1.013336
   58        1.015333
   59        1.538231
   60        1.541455
   61        1.541629
   62        1.542822
   63        2.130080
   64        2.132315
   65        6.872560
   66        6.874964
   67        7.098752
   68        7.099138
   69        7.099146
   70        7.103661
   71        7.327173
   72        7.329649
   73       10.064089
   74       10.064896
   75       11.297079
   76       11.300438
   77       11.426740
   78       11.435434
   79       11.436008
   80       11.441899
   81       11.766858
   82       11.770381
   83       12.098411
   84       12.103723
 
  0.0000000E+00  0.1666667E+00  0.0000000E+00  0.1388889E-01
    1      -15.149047
    2      -15.049041
    3      -15.048733
    4      -14.943831
    5      -11.303458
    6      -11.228161
    7      -11.227928
    8      -11.149864
    9      -10.435249
   10      -10.427662
   11      -10.369943
   12      -10.368941
   13      -10.361914
   14      -10.360713
   15      -10.301821
   16      -10.293749
   17       -8.317907
   18       -8.312274
   19       -8.265696
   20       -8.265105
   21       -8.258909
   22       -8.258509
   23       -8.209482
   24       -8.203505
   25       -7.471631
   26       -7.418116
   27       -7.417906
   28       -7.362504
   29       -3.840388
   30       -3.142626
   31       -3.141220
   32       -2.612434
   33       -2.596744
   34       -2.591567
   35       -2.589266
   36       -2.575770
   37       -2.573618
   38       -2.567938
   39       -2.552418
   40       -2.310471
   41       -1.960789
   42       -1.943766
   43       -1.943598
   44       -1.926292
   45        0.572700
   46        0.620779
   47        0.631111
   48        0.631475
   49        0.641749
   50        0.927310
   51        0.936045
   52        0.936074
   53        0.944639
   54        1.080321
   55        1.081207
   56        1.413652
   57        1.419480
   58        1.629199
   59        1.810655
   60        1.812875
   61        1.819071
   62        1.821576
   63        2.187494
   64        2.200101
   65        5.999099
   66        6.001818
   67        6.217711
   68        6.219882
   69        6.223352
   70        6.225479
   71        6.621005
   72        6.626460
   73        6.726564
   74        7.044174
   75        7.046432
   76        7.500920
   77        8.435732
   78       10.707121
   79       10.709609
   80       11.617483
   81       11.748901
   82       11.749237
   83       11.877786
   84       12.265263
 
  0.1666667E+00  0.1666667E+00  0.0000000E+00  0.1388889E-01
    1      -14.819068
    2      -14.721162
    3      -14.720865
    4      -14.618257
    5      -11.923794
    6      -11.920985
    7      -11.845240
    8      -11.842497
    9      -11.842479
   10      -11.839573
   11      -11.760994
   12      -11.758114
   13       -9.592282
   14       -9.554930
   15       -9.553609
   16       -9.520776
   17       -8.547448
   18       -8.527557
   19       -8.524408
   20       -8.496765
   21       -6.365295
   22       -6.361927
   23       -6.318935
   24       -6.315063
   25       -6.315046
   26       -6.312405
   27       -6.267697
   28       -6.264454
   29       -3.939338
   30       -3.909471
   31       -3.907525
   32       -3.877026
   33       -3.441684
   34       -2.753281
   35       -2.751886
   36       -2.285646
   37       -2.283220
   38       -2.265505
   39       -2.263875
   40       -2.263871
   41       -2.260130
   42       -2.243301
   43       -2.240077
   44       -1.933981
   45       -0.417302
   46       -0.407272
   47       -0.403449
   48       -0.394820
   49       -0.059989
   50       -0.058036
   51        0.251317
   52        0.257235
   53        0.260759
   54        0.269721
   55        0.505479
   56        0.507433
   57        0.507515
   58        0.510416
   59        1.148728
   60        1.151058
   61        2.221151
   62        2.515467
   63        2.517870
   64        2.732827
   65        5.684546
   66        5.723290
   67        5.727601
   68        5.951861
   69        7.684889
   70        7.687290
   71        7.992853
   72        7.996795
   73        7.997152
   74        7.998905
   75        8.385724
   76        8.388386
   77        8.845560
   78       11.079201
   79       11.081691
   80       12.337252
   81       12.340322
   82       12.517121
   83       12.528639
   84       12.557945
 
  0.3333333E+00  0.1666667E+00  0.0000000E+00  0.1388889E-01
    1      -14.163317
    2      -14.069423
    3      -14.069142
    4      -13.971128
    5      -13.192241
    6      -13.104439
    7      -13.104172
    8      -13.012736
    9      -12.238495
   10      -12.156818
   11      -12.156514
   12      -12.071451
   13       -9.568825
   14       -9.508921
   15       -9.508478
   16       -9.447433
   17       -7.680477
   18       -7.641405
   19       -7.638849
   20       -7.598564
   21       -5.374039
   22       -5.344342
   23       -5.342276
   24       -5.310577
   25       -5.209429
   26       -5.175859
   27       -5.174398
   28       -5.140588
   29       -4.227010
   30       -4.191968
   31       -4.190180
   32       -4.154361
   33       -3.185137
   34       -3.162865
   35       -3.161374
   36       -3.137981
   37       -2.654077
   38       -2.141956
   39       -2.121691
   40       -2.118062
   41       -2.096805
   42       -1.984900
   43       -1.983724
   44       -1.646824
   45       -1.629077
   46       -1.626656
   47       -1.608490
   48       -1.504689
   49       -1.194951
   50       -0.872157
   51       -0.870863
   52       -0.751851
   53       -0.739517
   54       -0.735502
   55       -0.722155
   56       -0.391830
   57       -0.131871
   58        0.199858
   59        0.201010
   60        0.882674
   61        2.528529
   62        2.924148
   63        2.926265
   64        3.306758
   65        5.405710
   66        5.579327
   67        5.582531
   68        5.818758
   69        8.482442
   70        8.711019
   71        8.712645
   72        8.955216
   73        9.664193
   74        9.971294
   75       10.202455
   76       10.205164
   77       10.492851
   78       10.878702
   79       11.785258
   80       11.790201
   81       12.091121
   82       12.213201
   83       12.383869
   84       12.388397
 
  0.5000000E+00  0.1666667E+00  0.0000000E+00  0.1388889E-01
    1      -14.164513
    2      -14.070617
    3      -14.070333
    4      -13.972317
    5      -13.190558
    6      -13.102759
    7      -13.102495
    8      -13.011059
    9      -12.239700
   10      -12.158042
   11      -12.157731
   12      -12.072668
   13       -9.565958
   14       -9.505728
   15       -9.505543
   16       -9.444140
   17       -7.675713
   18       -7.635797
   19       -7.634901
   20       -7.593837
   21       -5.382316
   22       -5.352172
   23       -5.351509
   24       -5.319326
   25       -5.218724
   26       -5.185584
   27       -5.182804
   28       -5.149302
   29       -4.230679
   30       -4.195962
   31       -4.193498
   32       -4.158012
   33       -3.174015
   34       -3.152158
   35       -3.149155
   36       -3.126273
   37       -2.655368
   38       -2.139874
   39       -2.119044
   40       -2.117225
   41       -2.095207
   42       -1.986143
   43       -1.985005
   44       -1.643424
   45       -1.626010
   46       -1.622818
   47       -1.604860
   48       -1.502966
   49       -1.196213
   50       -0.870500
   51       -0.869147
   52       -0.753541
   53       -0.740625
   54       -0.738416
   55       -0.725107
   56       -0.393108
   57       -0.130231
   58        0.198388
   59        0.199637
   60        0.881043
   61        2.529973
   62        2.928182
   63        2.929151
   64        3.313864
   65        5.403293
   66        5.579951
   67        5.581512
   68        5.818536
   69        8.478731
   70        8.707633
   71        8.709912
   72        8.953667
   73        9.662502
   74        9.971383
   75       10.201131
   76       10.204323
   77       10.490810
   78       10.881040
   79       11.784196
   80       11.789091
   81       12.089731
   82       12.211072
   83       12.382910
   84       12.387172
 
 -0.3333333E+00  0.1666667E+00  0.0000000E+00  0.1388889E-01
    1      -14.819784
    2      -14.721860
    3      -14.721559
    4      -14.618966
    5      -11.925989
    6      -11.920199
    7      -11.846268
    8      -11.845975
    9      -11.840440
   10      -11.840199
   11      -11.763305
   12      -11.757493
   13       -9.581634
   14       -9.542896
   15       -9.542755
   16       -9.508561
   17       -8.547633
   18       -8.525868
   19       -8.525755
   20       -8.496295
   21       -6.373243
   22       -6.367548
   23       -6.326035
   24       -6.324044
   25       -6.320308
   26       -6.318536
   27       -6.275921
   28       -6.270286
   29       -3.952883
   30       -3.922203
   31       -3.922038
   32       -3.890683
   33       -3.442477
   34       -2.754048
   35       -2.752659
   36       -2.281238
   37       -2.268162
   38       -2.261494
   39       -2.258849
   40       -2.248364
   41       -2.245886
   42       -2.238641
   43       -2.225702
   44       -1.934764
   45       -0.421711
   46       -0.411245
   47       -0.411166
   48       -0.400900
   49       -0.062978
   50       -0.056802
   51        0.257790
   52        0.264899
   53        0.264926
   54        0.272661
   55        0.502570
   56        0.503882
   57        0.509086
   58        0.510707
   59        1.144621
   60        1.151913
   61        2.224249
   62        2.524542
   63        2.524731
   64        2.747647
   65        5.679609
   66        5.724953
   67        5.726795
   68        5.954800
   69        7.681094
   70        7.684404
   71        7.989000
   72        7.992212
   73        7.992566
   74        7.995862
   75        8.382363
   76        8.383941
   77        8.844514
   78       11.078126
   79       11.080611
   80       12.339248
   81       12.350293
   82       12.517578
   83       12.540429
   84       12.561203
 
 -0.1666667E+00  0.1666667E+00  0.0000000E+00  0.1388889E-01
    1      -15.149285
    2      -15.049278
    3      -15.048969
    4      -14.944067
    5      -11.309756
    6      -11.234506
    7      -11.234273
    8      -11.156261
    9      -10.426550
   10      -10.424591
   11      -10.361308
   12      -10.359573
   13      -10.359562
   14      -10.357319
   15      -10.292802
   16      -10.290774
   17       -8.315652
   18       -8.313889
   19       -8.263971
   20       -8.261356
   21       -8.261345
   22       -8.260554
   23       -8.207140
   24       -8.205480
   25       -7.478987
   26       -7.426237
   27       -7.424404
   28       -7.369752
   29       -3.840656
   30       -3.142891
   31       -3.141487
   32       -2.613154
   33       -2.611235
   34       -2.591662
   35       -2.590734
   36       -2.590730
   37       -2.587286
   38       -2.568941
   39       -2.566301
   40       -2.310736
   41       -1.943704
   42       -1.927583
   43       -1.925264
   44       -1.908932
   45        0.567033
   46        0.609209
   47        0.618353
   48        0.622462
   49        0.633309
   50        0.935902
   51        0.945133
   52        0.948950
   53        0.956055
   54        1.073323
   55        1.074817
   56        1.419375
   57        1.421407
   58        1.620774
   59        1.819338
   60        1.820163
   61        1.820248
   62        1.823726
   63        2.199141
   64        2.201229
   65        5.998587
   66        6.001049
   67        6.218158
   68        6.223308
   69        6.223570
   70        6.224971
   71        6.623634
   72        6.626483
   73        6.723281
   74        7.037891
   75        7.041569
   76        7.494824
   77        8.435373
   78       10.706737
   79       10.709225
   80       11.650432
   81       11.781535
   82       11.782707
   83       11.910533
   84       12.261716
 
 -0.2710505E-19  0.3333333E+00  0.0000000E+00  0.1388889E-01
    1      -14.654945
    2      -14.558001
    3      -14.557702
    4      -14.456267
    5      -12.710385
    6      -12.625547
    7      -12.625282
    8      -12.536981
    9      -10.855898
   10      -10.851698
   11      -10.784318
   12      -10.782857
   13      -10.779626
   14      -10.777971
   15      -10.708626
   16      -10.704295
   17       -7.145577
   18       -7.136859
   19       -7.097375
   20       -7.096922
   21       -7.087872
   22       -7.087599
   23       -7.046839
   24       -7.038160
   25       -5.359437
   26       -5.315564
   27       -5.315393
   28       -5.270753
   29       -3.766601
   30       -3.753328
   31       -3.738217
   32       -3.736444
   33       -3.724720
   34       -3.723120
   35       -3.707098
   36       -3.693892
   37       -3.244035
   38       -2.560445
   39       -2.559061
   40       -1.748102
   41       -1.487302
   42       -1.470901
   43       -1.470794
   44       -1.454291
   45       -1.029770
   46       -1.009132
   47       -1.008905
   48       -0.988206
   49       -0.951714
   50       -0.343147
   51       -0.341970
   52        0.130259
   53        0.142664
   54        0.142762
   55        0.155279
   56        0.362748
   57        1.127251
   58        1.131507
   59        1.622418
   60        1.624628
   61        1.627879
   62        1.630275
   63        2.162145
   64        2.168853
   65        6.536575
   66        6.539942
   67        6.791882
   68        6.793772
   69        6.797902
   70        6.799706
   71        7.113090
   72        7.117501
   73        8.884882
   74        9.048071
   75        9.182652
   76        9.185141
   77        9.569952
   78       11.252730
   79       11.255310
   80       11.429303
   81       11.903281
   82       11.972175
   83       11.972227
   84       12.189568
 
  0.1666667E+00  0.3333333E+00  0.0000000E+00  0.1388889E-01
    1      -14.163303
    2      -14.069410
    3      -14.069126
    4      -13.971112
    5      -13.192206
    6      -13.104412
    7      -13.104126
    8      -13.012698
    9      -12.238540
   10      -12.156842
   11      -12.156580
   12      -12.071498
   13       -9.568765
   14       -9.508803
   15       -9.508470
   16       -9.447367
   17       -7.680818
   18       -7.641408
   19       -7.639648
   20       -7.599039
   21       -5.373617
   22       -5.343624
   23       -5.342273
   24       -5.310264
   25       -5.210722
   26       -5.177038
   27       -5.175859
   28       -5.141946
   29       -4.225702
   30       -4.190183
   31       -4.189406
   32       -4.153098
   33       -3.183608
   34       -3.161371
   35       -3.159785
   36       -3.136394
   37       -2.654114
   38       -2.140710
   39       -2.119952
   40       -2.118057
   41       -2.096121
   42       -1.984919
   43       -1.983776
   44       -1.648189
   45       -1.629702
   46       -1.629079
   47       -1.610264
   48       -1.504897
   49       -1.195002
   50       -0.872375
   51       -0.871136
   52       -0.752451
   53       -0.739520
   54       -0.737357
   55       -0.724089
   56       -0.391517
   57       -0.132161
   58        0.200198
   59        0.201383
   60        0.883098
   61        2.528983
   62        2.925044
   63        2.926282
   64        3.307171
   65        5.405197
   66        5.579291
   67        5.581220
   68        5.817993
   69        8.481222
   70        8.710069
   71        8.711369
   72        8.954198
   73        9.664196
   74        9.972369
   75       10.203500
   76       10.205993
   77       10.493768
   78       10.878664
   79       11.785056
   80       11.790040
   81       12.091146
   82       12.213524
   83       12.384404
   84       12.388673
 
  0.3333333E+00  0.3333333E+00  0.0000000E+00  0.1388889E-01
    1      -13.356239
    2      -13.353653
    3      -13.351172
    4      -13.268999
    5      -13.265733
    6      -13.265715
    7      -13.264363
    8      -13.262831
    9      -13.260652
   10      -13.174495
   11      -13.171964
   12      -13.169398
   13       -8.351404
   14       -8.294001
   15       -8.292141
   16       -8.286668
   17       -8.284610
   18       -8.280346
   19       -8.278281
   20       -8.223126
   21       -6.241956
   22       -6.241872
   23       -6.240106
   24       -6.239556
   25       -3.473758
   26       -3.470198
   27       -3.468767
   28       -3.456900
   29       -3.452558
   30       -3.452550
   31       -3.452119
   32       -3.451532
   33       -3.447482
   34       -3.436474
   35       -3.434617
   36       -3.430699
   37       -2.116595
   38       -2.112225
   39       -2.109881
   40       -2.103717
   41       -2.101139
   42       -2.099544
   43       -2.098493
   44       -2.098478
   45       -2.094565
   46       -2.087019
   47       -2.085799
   48       -2.080442
   49       -1.693285
   50       -1.691182
   51       -1.688591
   52       -1.054586
   53       -1.051417
   54       -1.051296
   55       -1.050124
   56       -1.048679
   57       -1.046180
   58       -0.302370
   59       -0.300112
   60       -0.297437
   61        3.799348
   62        4.267858
   63        4.273683
   64        4.277438
   65        4.277667
   66        4.291290
   67        4.292767
   68        4.816491
   69       10.478360
   70       10.481477
   71       10.484562
   72       10.641947
   73       10.655037
   74       10.655359
   75       10.656025
   76       10.656551
   77       10.657249
   78       10.683918
   79       10.686338
   80       10.697536
   81       10.834529
   82       10.837337
   83       10.840536
   84       12.702352
 
  0.5000000E+00  0.3333333E+00  0.0000000E+00  0.1388889E-01
    1      -14.165212
    2      -14.071320
    3      -14.071026
    4      -13.973013
    5      -13.194096
    6      -13.106313
    7      -13.105988
    8      -13.014582
    9      -12.234695
   10      -12.153009
   11      -12.152763
   12      -12.067672
   13       -9.558636
   14       -9.498499
   15       -9.498224
   16       -9.436932
   17       -7.684069
   18       -7.644451
   19       -7.643714
   20       -7.602937
   21       -5.380659
   22       -5.350680
   23       -5.349820
   24       -5.317799
   25       -5.217077
   26       -5.184166
   27       -5.181629
   28       -5.148437
   29       -4.237585
   30       -4.202789
   31       -4.200150
   32       -4.164533
   33       -3.179809
   34       -3.158279
   35       -3.155099
   36       -3.132330
   37       -2.656201
   38       -2.148925
   39       -2.127893
   40       -2.125897
   41       -2.103743
   42       -1.987042
   43       -1.985926
   44       -1.633008
   45       -1.615342
   46       -1.612287
   47       -1.594561
   48       -1.506978
   49       -1.197083
   50       -0.874544
   51       -0.873262
   52       -0.743476
   53       -0.730399
   54       -0.728323
   55       -0.715067
   56       -0.387766
   57       -0.134447
   58        0.203753
   59        0.205160
   60        0.886663
   61        2.535381
   62        2.932970
   63        2.934042
   64        3.317144
   65        5.405290
   66        5.575881
   67        5.577451
   68        5.809168
   69        8.482208
   70        8.707556
   71        8.710147
   72        8.949309
   73        9.661573
   74        9.965874
   75       10.197297
   76       10.200269
   77       10.489864
   78       10.876393
   79       11.781728
   80       11.786808
   81       12.096420
   82       12.207468
   83       12.383053
   84       12.387441
 
 -0.3333333E+00  0.3333333E+00  0.0000000E+00  0.1388889E-01
    1      -14.655895
    2      -14.558953
    3      -14.558646
    4      -14.457213
    5      -12.714215
    6      -12.629398
    7      -12.629090
    8      -12.541067
    9      -10.848302
   10      -10.846588
   11      -10.776562
   12      -10.774904
   13      -10.774890
   14      -10.773078
   15      -10.701022
   16      -10.699263
   17       -7.144110
   18       -7.142236
   19       -7.096947
   20       -7.094059
   21       -7.094047
   22       -7.093355
   23       -7.045746
   24       -7.044020
   25       -5.369557
   26       -5.326415
   27       -5.324388
   28       -5.280551
   29       -3.765108
   30       -3.763490
   31       -3.736130
   32       -3.735832
   33       -3.735824
   34       -3.732419
   35       -3.706056
   36       -3.703883
   37       -3.245097
   38       -2.561503
   39       -2.560122
   40       -1.749167
   41       -1.471234
   42       -1.455823
   43       -1.453221
   44       -1.437826
   45       -1.041892
   46       -1.022321
   47       -1.019087
   48       -0.999386
   49       -0.955801
   50       -0.347409
   51       -0.346162
   52        0.142156
   53        0.153752
   54        0.157316
   55        0.168426
   56        0.358213
   57        1.133743
   58        1.135664
   59        1.630172
   60        1.631141
   61        1.631269
   62        1.634641
   63        2.170189
   64        2.172399
   65        6.537648
   66        6.540249
   67        6.790652
   68        6.795445
   69        6.795653
   70        6.796609
   71        7.110084
   72        7.112686
   73        8.878006
   74        9.046723
   75        9.175408
   76        9.178731
   77        9.564510
   78       11.251409
   79       11.254000
   80       11.427684
   81       11.933750
   82       12.001335
   83       12.002747
   84       12.217887
 
 -0.1666667E+00  0.3333333E+00  0.0000000E+00  0.1388889E-01
    1      -14.819773
    2      -14.721852
    3      -14.721544
    4      -14.618954
    5      -11.926388
    6      -11.919923
    7      -11.847237
    8      -11.846194
    9      -11.840330
   10      -11.839118
   11      -11.763596
   12      -11.757078
   13       -9.580959
   14       -9.542869
   15       -9.541386
   16       -9.507842
   17       -8.549315
   18       -8.528710
   19       -8.525860
   20       -8.497674
   21       -6.373768
   22       -6.366510
   23       -6.326043
   24       -6.325638
   25       -6.318542
   26       -6.317288
   27       -6.276289
   28       -6.268974
   29       -3.951971
   30       -3.922184
   31       -3.920052
   32       -3.889569
   33       -3.442507
   34       -2.754082
   35       -2.752694
   36       -2.282395
   37       -2.268440
   38       -2.261499
   39       -2.261036
   40       -2.247961
   41       -2.245885
   42       -2.239664
   43       -2.225424
   44       -1.934806
   45       -0.420367
   46       -0.411239
   47       -0.407495
   48       -0.397194
   49       -0.063102