<?xml version="1.0" encoding="ISO-8859-1"?>
<modeling>
 <generator>
  <i name="program" type="string">vasp </i>
  <i name="version" type="string">5.3.5  </i>
  <i name="subversion" type="string">31Mar14 (build Nov 04 2014 22:34:45) complex                          parallel </i>
  <i name="platform" type="string">atom-AMD-MKL </i>
  <i name="date" type="string">2016 10 14 </i>
  <i name="time" type="string">19:19:45 </i>
 </generator>
 <incar>
  <i type="string" name="SYSTEM">graphite</i>
  <i type="string" name="PREC">accurate</i>
  <i type="int" name="NELM">   200</i>
  <i type="int" name="IBRION">    -1</i>
  <i name="EDIFF">      0.00000001</i>
  <i name="EDIFFG">      0.00100000</i>
  <i type="int" name="NSW">     0</i>
  <i type="int" name="ISIF">     2</i>
  <i name="ENCUT">    600.00000000</i>
  <i type="int" name="ISMEAR">    -5</i>
  <i type="logical" name="LWAVE"> F  </i>
  <i type="logical" name="LCHARG"> F  </i>
  <i type="int" name="NELM">   200</i>
  <i type="string" name="GGA">PE</i>
 </incar>
 <kpoints>
  <generation param="Gamma">
   <v type="int" name="divisions">       6        6        4 </v>
   <v name="usershift">      0.00000000       0.00000000       0.00000000 </v>
   <v name="genvec1">      0.16666667      -0.00000000       0.00000000 </v>
   <v name="genvec2">      0.00000000       0.16666667       0.00000000 </v>
   <v name="genvec3">      0.00000000       0.00000000       0.25000000 </v>
   <v name="shift">      0.00000000       0.00000000       0.00000000 </v>
  </generation>
  <varray name="kpointlist" >
   <v>       0.00000000       0.00000000       0.00000000 </v>
   <v>       0.16666667      -0.00000000       0.00000000 </v>
   <v>       0.33333333      -0.00000000       0.00000000 </v>
   <v>       0.50000000       0.00000000       0.00000000 </v>
   <v>       0.00000000       0.16666667       0.00000000 </v>
   <v>       0.16666667       0.16666667       0.00000000 </v>
   <v>       0.33333333       0.16666667       0.00000000 </v>
   <v>       0.50000000       0.16666667       0.00000000 </v>
   <v>      -0.33333333       0.16666667       0.00000000 </v>
   <v>      -0.16666667       0.16666667       0.00000000 </v>
   <v>      -0.00000000       0.33333333       0.00000000 </v>
   <v>       0.16666667       0.33333333       0.00000000 </v>
   <v>       0.33333333       0.33333333       0.00000000 </v>
   <v>       0.50000000       0.33333333       0.00000000 </v>
   <v>      -0.33333333       0.33333333       0.00000000 </v>
   <v>      -0.16666667       0.33333333       0.00000000 </v>
   <v>       0.00000000       0.50000000       0.00000000 </v>
   <v>       0.16666667       0.50000000       0.00000000 </v>
   <v>       0.33333333       0.50000000       0.00000000 </v>
   <v>       0.50000000       0.50000000       0.00000000 </v>
   <v>       0.00000000       0.00000000       0.25000000 </v>
   <v>       0.16666667      -0.00000000       0.25000000 </v>
   <v>       0.33333333      -0.00000000       0.25000000 </v>
   <v>       0.50000000       0.00000000       0.25000000 </v>
   <v>      -0.33333333       0.00000000       0.25000000 </v>
   <v>      -0.16666667       0.00000000       0.25000000 </v>
   <v>       0.00000000       0.16666667       0.25000000 </v>
   <v>       0.16666667       0.16666667       0.25000000 </v>
   <v>       0.33333333       0.16666667       0.25000000 </v>
   <v>       0.50000000       0.16666667       0.25000000 </v>
   <v>      -0.33333333       0.16666667       0.25000000 </v>
   <v>      -0.16666667       0.16666667       0.25000000 </v>
   <v>      -0.00000000       0.33333333       0.25000000 </v>
   <v>       0.16666667       0.33333333       0.25000000 </v>
   <v>       0.33333333       0.33333333       0.25000000 </v>
   <v>       0.50000000       0.33333333       0.25000000 </v>
   <v>      -0.33333333       0.33333333       0.25000000 </v>
   <v>      -0.16666667       0.33333333       0.25000000 </v>
   <v>       0.00000000       0.50000000       0.25000000 </v>
   <v>       0.16666667       0.50000000       0.25000000 </v>
   <v>       0.33333333       0.50000000       0.25000000 </v>
   <v>       0.50000000       0.50000000       0.25000000 </v>
   <v>      -0.33333333       0.50000000       0.25000000 </v>
   <v>      -0.16666667       0.50000000       0.25000000 </v>
   <v>       0.00000000      -0.33333333       0.25000000 </v>
   <v>       0.16666667      -0.33333333       0.25000000 </v>
   <v>       0.33333333      -0.33333333       0.25000000 </v>
   <v>       0.50000000      -0.33333333       0.25000000 </v>
   <v>      -0.33333333      -0.33333333       0.25000000 </v>
   <v>      -0.16666667      -0.33333333       0.25000000 </v>
   <v>       0.00000000      -0.16666667       0.25000000 </v>
   <v>       0.16666667      -0.16666667       0.25000000 </v>
   <v>       0.33333333      -0.16666667       0.25000000 </v>
   <v>       0.50000000      -0.16666667       0.25000000 </v>
   <v>      -0.33333333      -0.16666667       0.25000000 </v>
   <v>      -0.16666667      -0.16666667       0.25000000 </v>
   <v>       0.00000000       0.00000000       0.50000000 </v>
   <v>       0.16666667      -0.00000000       0.50000000 </v>
   <v>       0.33333333      -0.00000000       0.50000000 </v>
   <v>       0.50000000       0.00000000       0.50000000 </v>
   <v>       0.00000000       0.16666667       0.50000000 </v>
   <v>       0.16666667       0.16666667       0.50000000 </v>
   <v>       0.33333333       0.16666667       0.50000000 </v>
   <v>       0.50000000       0.16666667       0.50000000 </v>
   <v>      -0.33333333       0.16666667       0.50000000 </v>
   <v>      -0.16666667       0.16666667       0.50000000 </v>
   <v>      -0.00000000       0.33333333       0.50000000 </v>
   <v>       0.16666667       0.33333333       0.50000000 </v>
   <v>       0.33333333       0.33333333       0.50000000 </v>
   <v>       0.50000000       0.33333333       0.50000000 </v>
   <v>      -0.33333333       0.33333333       0.50000000 </v>
   <v>      -0.16666667       0.33333333       0.50000000 </v>
   <v>       0.00000000       0.50000000       0.50000000 </v>
   <v>       0.16666667       0.50000000       0.50000000 </v>
   <v>       0.33333333       0.50000000       0.50000000 </v>
   <v>       0.50000000       0.50000000       0.50000000 </v>
  </varray>
  <varray name="weights" >
   <v>       0.00694444 </v>
   <v>       0.01388889 </v>
   <v>       0.01388889 </v>
   <v>       0.00694444 </v>
   <v>       0.01388889 </v>
   <v>       0.01388889 </v>
   <v>       0.01388889 </v>
   <v>       0.01388889 </v>
   <v>       0.01388889 </v>
   <v>       0.01388889 </v>
   <v>       0.01388889 </v>
   <v>       0.01388889 </v>
   <v>       0.01388889 </v>
   <v>       0.01388889 </v>
   <v>       0.01388889 </v>
   <v>       0.01388889 </v>
   <v>       0.00694444 </v>
   <v>       0.01388889 </v>
   <v>       0.01388889 </v>
   <v>       0.00694444 </v>
   <v>       0.01388889 </v>
   <v>       0.01388889 </v>
   <v>       0.01388889 </v>
   <v>       0.01388889 </v>
   <v>       0.01388889 </v>
   <v>       0.01388889 </v>
   <v>       0.01388889 </v>
   <v>       0.01388889 </v>
   <v>       0.01388889 </v>
   <v>       0.01388889 </v>
   <v>       0.01388889 </v>
   <v>       0.01388889 </v>
   <v>       0.01388889 </v>
   <v>       0.01388889 </v>
   <v>       0.01388889 </v>
   <v>       0.01388889 </v>
   <v>       0.01388889 </v>
   <v>       0.01388889 </v>
   <v>       0.01388889 </v>
   <v>       0.01388889 </v>
   <v>       0.01388889 </v>
   <v>       0.01388889 </v>
   <v>       0.01388889 </v>
   <v>       0.01388889 </v>
   <v>       0.01388889 </v>
   <v>       0.01388889 </v>
   <v>       0.01388889 </v>
   <v>       0.01388889 </v>
   <v>       0.01388889 </v>
   <v>       0.01388889 </v>
   <v>       0.01388889 </v>
   <v>       0.01388889 </v>
   <v>       0.01388889 </v>
   <v>       0.01388889 </v>
   <v>       0.01388889 </v>
   <v>       0.01388889 </v>
   <v>       0.00694444 </v>
   <v>       0.01388889 </v>
   <v>       0.01388889 </v>
   <v>       0.00694444 </v>
   <v>       0.01388889 </v>
   <v>       0.01388889 </v>
   <v>       0.01388889 </v>
   <v>       0.01388889 </v>
   <v>       0.01388889 </v>
   <v>       0.01388889 </v>
   <v>       0.01388889 </v>
   <v>       0.01388889 </v>
   <v>       0.01388889 </v>
   <v>       0.01388889 </v>
   <v>       0.01388889 </v>
   <v>       0.01388889 </v>
   <v>       0.00694444 </v>
   <v>       0.01388889 </v>
   <v>       0.01388889 </v>
   <v>       0.00694444 </v>
  </varray>
  <varray name="tetrahedronlist"  type="int" >
   <v type="int" >        2        2        5        6       27 </v>
   <v type="int" >        2        1        2        5       27 </v>
   <v type="int" >        2        1        2       21       27 </v>
   <v type="int" >        2        2        6       27       28 </v>
   <v type="int" >        2        2       22       27       28 </v>
   <v type="int" >        2        2       21       22       27 </v>
   <v type="int" >        2        3        6        7       28 </v>
   <v type="int" >        2        2        3        6       28 </v>
   <v type="int" >        2        2        3       22       28 </v>
   <v type="int" >        2        3        7       28       29 </v>
   <v type="int" >        2        3       23       28       29 </v>
   <v type="int" >        2        3       22       23       28 </v>
   <v type="int" >        2        4        7        8       29 </v>
   <v type="int" >        2        3        4        7       29 </v>
   <v type="int" >        2        3        4       23       29 </v>
   <v type="int" >        2        4        8       29       30 </v>
   <v type="int" >        2        4       24       29       30 </v>
   <v type="int" >        2        4       23       24       29 </v>
   <v type="int" >        2        3        8        9       30 </v>
   <v type="int" >        2        3        4        8       30 </v>
   <v type="int" >        2        3        4       24       30 </v>
   <v type="int" >        2        3        9       30       31 </v>
   <v type="int" >        2        3       25       30       31 </v>
   <v type="int" >        2        3       24       25       30 </v>
   <v type="int" >        2        2        9       10       31 </v>
   <v type="int" >        2        2        3        9       31 </v>
   <v type="int" >        2        2        3       25       31 </v>
   <v type="int" >        2        2       10       31       32 </v>
   <v type="int" >        2        2       26       31       32 </v>
   <v type="int" >        2        2       25       26       31 </v>
   <v type="int" >        2        1        5       10       32 </v>
   <v type="int" >        2        1        2       10       32 </v>
   <v type="int" >        2        1        2       26       32 </v>
   <v type="int" >        2        1        5       27       32 </v>
   <v type="int" >        2        1       21       27       32 </v>
   <v type="int" >        2        1       21       26       32 </v>
   <v type="int" >        2        6       11       12       33 </v>
   <v type="int" >        2        5        6       11       33 </v>
   <v type="int" >        2        5        6       27       33 </v>
   <v type="int" >        2        6       12       33       34 </v>
   <v type="int" >        2        6       28       33       34 </v>
   <v type="int" >        2        6       27       28       33 </v>
   <v type="int" >        2        7       12       13       34 </v>
   <v type="int" >        2        6        7       12       34 </v>
   <v type="int" >        2        6        7       28       34 </v>
   <v type="int" >        2        7       13       34       35 </v>
   <v type="int" >        2        7       29       34       35 </v>
   <v type="int" >        2        7       28       29       34 </v>
   <v type="int" >        2        8       13       14       35 </v>
   <v type="int" >        2        7        8       13       35 </v>
   <v type="int" >        2        7        8       29       35 </v>
   <v type="int" >        2        8       14       35       36 </v>
   <v type="int" >        2        8       30       35       36 </v>
   <v type="int" >        2        8       29       30       35 </v>
   <v type="int" >        2        9       14       15       36 </v>
   <v type="int" >        2        8        9       14       36 </v>
   <v type="int" >        2        8        9       30       36 </v>
   <v type="int" >        2        9       15       36       37 </v>
   <v type="int" >        2        9       31       36       37 </v>
   <v type="int" >        2        9       30       31       36 </v>
   <v type="int" >        2       10       15       16       37 </v>
   <v type="int" >        2        9       10       15       37 </v>
   <v type="int" >        2        9       10       31       37 </v>
   <v type="int" >        2       10       16       37       38 </v>
   <v type="int" >        2       10       32       37       38 </v>
   <v type="int" >        2       10       31       32       37 </v>
   <v type="int" >        2        5       11       16       38 </v>
   <v type="int" >        2        5       10       16       38 </v>
   <v type="int" >        2        5       10       32       38 </v>
   <v type="int" >        2        5       11       33       38 </v>
   <v type="int" >        2        5       27       33       38 </v>
   <v type="int" >        2        5       27       32       38 </v>
   <v type="int" >        2       12       17       18       39 </v>
   <v type="int" >        2       11       12       17       39 </v>
   <v type="int" >        2       11       12       33       39 </v>
   <v type="int" >        2       12       18       39       40 </v>
   <v type="int" >        2       12       34       39       40 </v>
   <v type="int" >        2       12       33       34       39 </v>
   <v type="int" >        2       13       18       19       40 </v>
   <v type="int" >        2       12       13       18       40 </v>
   <v type="int" >        2       12       13       34       40 </v>
   <v type="int" >        2       13       19       40       41 </v>
   <v type="int" >        2       13       35       40       41 </v>
   <v type="int" >        2       13       34       35       40 </v>
   <v type="int" >        2       14       19       20       41 </v>
   <v type="int" >        2       13       14       19       41 </v>
   <v type="int" >        2       13       14       35       41 </v>
   <v type="int" >        2       14       20       41       42 </v>
   <v type="int" >        2       14       36       41       42 </v>
   <v type="int" >        2       14       35       36       41 </v>
   <v type="int" >        2       15       19       20       42 </v>
   <v type="int" >        2       14       15       20       42 </v>
   <v type="int" >        2       14       15       36       42 </v>
   <v type="int" >        2       15       19       42       43 </v>
   <v type="int" >        2       15       37       42       43 </v>
   <v type="int" >        2       15       36       37       42 </v>
   <v type="int" >        2       16       18       19       43 </v>
   <v type="int" >        2       15       16       19       43 </v>
   <v type="int" >        2       15       16       37       43 </v>
   <v type="int" >        2       16       18       43       44 </v>
   <v type="int" >        2       16       38       43       44 </v>
   <v type="int" >        2       16       37       38       43 </v>
   <v type="int" >        2       11       17       18       44 </v>
   <v type="int" >        2       11       16       18       44 </v>
   <v type="int" >        2       11       16       38       44 </v>
   <v type="int" >        2       11       17       39       44 </v>
   <v type="int" >        2       11       33       39       44 </v>
   <v type="int" >        2       11       33       38       44 </v>
   <v type="int" >        2       11       16       18       45 </v>
   <v type="int" >        2       11       17       18       45 </v>
   <v type="int" >        2       17       18       39       45 </v>
   <v type="int" >        2       16       18       45       46 </v>
   <v type="int" >        2       18       40       45       46 </v>
   <v type="int" >        2       18       39       40       45 </v>
   <v type="int" >        2       15       16       19       46 </v>
   <v type="int" >        2       16       18       19       46 </v>
   <v type="int" >        2       18       19       40       46 </v>
   <v type="int" >        2       15       19       46       47 </v>
   <v type="int" >        2       19       41       46       47 </v>
   <v type="int" >        2       19       40       41       46 </v>
   <v type="int" >        2       14       15       20       47 </v>
   <v type="int" >        2       15       19       20       47 </v>
   <v type="int" >        2       19       20       41       47 </v>
   <v type="int" >        2       14       20       47       48 </v>
   <v type="int" >        2       20       42       47       48 </v>
   <v type="int" >        2       20       41       42       47 </v>
   <v type="int" >        2       13       14       19       48 </v>
   <v type="int" >        2       14       19       20       48 </v>
   <v type="int" >        2       19       20       42       48 </v>
   <v type="int" >        2       13       19       48       49 </v>
   <v type="int" >        2       19       43       48       49 </v>
   <v type="int" >        2       19       42       43       48 </v>
   <v type="int" >        2       12       13       18       49 </v>
   <v type="int" >        2       13       18       19       49 </v>
   <v type="int" >        2       18       19       43       49 </v>
   <v type="int" >        2       12       18       49       50 </v>
   <v type="int" >        2       18       44       49       50 </v>
   <v type="int" >        2       18       43       44       49 </v>
   <v type="int" >        2       11       12       17       50 </v>
   <v type="int" >        2       12       17       18       50 </v>
   <v type="int" >        2       17       18       44       50 </v>
   <v type="int" >        2       11       17       45       50 </v>
   <v type="int" >        2       17       39       45       50 </v>
   <v type="int" >        2       17       39       44       50 </v>
   <v type="int" >        2        5       10       16       51 </v>
   <v type="int" >        2        5       11       16       51 </v>
   <v type="int" >        2       11       16       45       51 </v>
   <v type="int" >        2       10       16       51       52 </v>
   <v type="int" >        2       16       46       51       52 </v>
   <v type="int" >        2       16       45       46       51 </v>
   <v type="int" >        2        9       10       15       52 </v>
   <v type="int" >        2       10       15       16       52 </v>
   <v type="int" >        2       15       16       46       52 </v>
   <v type="int" >        2        9       15       52       53 </v>
   <v type="int" >        2       15       47       52       53 </v>
   <v type="int" >        2       15       46       47       52 </v>
   <v type="int" >        2        8        9       14       53 </v>
   <v type="int" >        2        9       14       15       53 </v>
   <v type="int" >        2       14       15       47       53 </v>
   <v type="int" >        2        8       14       53       54 </v>
   <v type="int" >        2       14       48       53       54 </v>
   <v type="int" >        2       14       47       48       53 </v>
   <v type="int" >        2        7        8       13       54 </v>
   <v type="int" >        2        8       13       14       54 </v>
   <v type="int" >        2       13       14       48       54 </v>
   <v type="int" >        2        7       13       54       55 </v>
   <v type="int" >        2       13       49       54       55 </v>
   <v type="int" >        2       13       48       49       54 </v>
   <v type="int" >        2        6        7       12       55 </v>
   <v type="int" >        2        7       12       13       55 </v>
   <v type="int" >        2       12       13       49       55 </v>
   <v type="int" >        2        6       12       55       56 </v>
   <v type="int" >        2       12       50       55       56 </v>
   <v type="int" >        2       12       49       50       55 </v>
   <v type="int" >        2        5        6       11       56 </v>
   <v type="int" >        2        6       11       12       56 </v>
   <v type="int" >        2       11       12       50       56 </v>
   <v type="int" >        2        5       11       51       56 </v>
   <v type="int" >        2       11       45       51       56 </v>
   <v type="int" >        2       11       45       50       56 </v>
   <v type="int" >        2        1        2       10       21 </v>
   <v type="int" >        2        1        5       10       21 </v>
   <v type="int" >        2        5       10       21       51 </v>
   <v type="int" >        2        2       10       21       22 </v>
   <v type="int" >        2       10       21       22       52 </v>
   <v type="int" >        2       10       21       51       52 </v>
   <v type="int" >        2        2        3        9       22 </v>
   <v type="int" >        2        2        9       10       22 </v>
   <v type="int" >        2        9       10       22       52 </v>
   <v type="int" >        2        3        9       22       23 </v>
   <v type="int" >        2        9       22       23       53 </v>
   <v type="int" >        2        9       22       52       53 </v>
   <v type="int" >        2        3        4        8       23 </v>
   <v type="int" >        2        3        8        9       23 </v>
   <v type="int" >        2        8        9       23       53 </v>
   <v type="int" >        2        4        8       23       24 </v>
   <v type="int" >        2        8       23       24       54 </v>
   <v type="int" >        2        8       23       53       54 </v>
   <v type="int" >        2        3        4        7       24 </v>
   <v type="int" >        2        4        7        8       24 </v>
   <v type="int" >        2        7        8       24       54 </v>
   <v type="int" >        2        3        7       24       25 </v>
   <v type="int" >        2        7       24       25       55 </v>
   <v type="int" >        2        7       24       54       55 </v>
   <v type="int" >        2        2        3        6       25 </v>
   <v type="int" >        2        3        6        7       25 </v>
   <v type="int" >        2        6        7       25       55 </v>
   <v type="int" >        2        2        6       25       26 </v>
   <v type="int" >        2        6       25       26       56 </v>
   <v type="int" >        2        6       25       55       56 </v>
   <v type="int" >        2        1        2        5       26 </v>
   <v type="int" >        2        2        5        6       26 </v>
   <v type="int" >        2        5        6       26       56 </v>
   <v type="int" >        2        1        5       21       26 </v>
   <v type="int" >        2        5       21       26       51 </v>
   <v type="int" >        2        5       26       51       56 </v>
   <v type="int" >        2       22       27       28       61 </v>
   <v type="int" >        2       21       22       27       61 </v>
   <v type="int" >        2       21       22       57       61 </v>
   <v type="int" >        2       22       28       61       62 </v>
   <v type="int" >        2       22       58       61       62 </v>
   <v type="int" >        2       22       57       58       61 </v>
   <v type="int" >        2       23       28       29       62 </v>
   <v type="int" >        2       22       23       28       62 </v>
   <v type="int" >        2       22       23       58       62 </v>
   <v type="int" >        2       23       29       62       63 </v>
   <v type="int" >        2       23       59       62       63 </v>
   <v type="int" >        2       23       58       59       62 </v>
   <v type="int" >        2       24       29       30       63 </v>
   <v type="int" >        2       23       24       29       63 </v>
   <v type="int" >        2       23       24       59       63 </v>
   <v type="int" >        2       24       30       63       64 </v>
   <v type="int" >        2       24       60       63       64 </v>
   <v type="int" >        2       24       59       60       63 </v>
   <v type="int" >        2       25       30       31       64 </v>
   <v type="int" >        2       24       25       30       64 </v>
   <v type="int" >        2       24       25       60       64 </v>
   <v type="int" >        2       25       31       64       65 </v>
   <v type="int" >        2       25       59       64       65 </v>
   <v type="int" >        2       25       59       60       64 </v>
   <v type="int" >        2       26       31       32       65 </v>
   <v type="int" >        2       25       26       31       65 </v>
   <v type="int" >        2       25       26       59       65 </v>
   <v type="int" >        2       26       32       65       66 </v>
   <v type="int" >        2       26       58       65       66 </v>
   <v type="int" >        2       26       58       59       65 </v>
   <v type="int" >        2       21       27       32       66 </v>
   <v type="int" >        2       21       26       32       66 </v>
   <v type="int" >        2       21       26       58       66 </v>
   <v type="int" >        2       21       27       61       66 </v>
   <v type="int" >        2       21       57       61       66 </v>
   <v type="int" >        2       21       57       58       66 </v>
   <v type="int" >        2       28       33       34       67 </v>
   <v type="int" >        2       27       28       33       67 </v>
   <v type="int" >        2       27       28       61       67 </v>
   <v type="int" >        2       28       34       67       68 </v>
   <v type="int" >        2       28       62       67       68 </v>
   <v type="int" >        2       28       61       62       67 </v>
   <v type="int" >        2       29       34       35       68 </v>
   <v type="int" >        2       28       29       34       68 </v>
   <v type="int" >        2       28       29       62       68 </v>
   <v type="int" >        2       29       35       68       69 </v>
   <v type="int" >        2       29       63       68       69 </v>
   <v type="int" >        2       29       62       63       68 </v>
   <v type="int" >        2       30       35       36       69 </v>
   <v type="int" >        2       29       30       35       69 </v>
   <v type="int" >        2       29       30       63       69 </v>
   <v type="int" >        2       30       36       69       70 </v>
   <v type="int" >        2       30       64       69       70 </v>
   <v type="int" >        2       30       63       64       69 </v>
   <v type="int" >        2       31       36       37       70 </v>
   <v type="int" >        2       30       31       36       70 </v>
   <v type="int" >        2       30       31       64       70 </v>
   <v type="int" >        2       31       37       70       71 </v>
   <v type="int" >        2       31       65       70       71 </v>
   <v type="int" >        2       31       64       65       70 </v>
   <v type="int" >        2       32       37       38       71 </v>
   <v type="int" >        2       31       32       37       71 </v>
   <v type="int" >        2       31       32       65       71 </v>
   <v type="int" >        2       32       38       71       72 </v>
   <v type="int" >        2       32       66       71       72 </v>
   <v type="int" >        2       32       65       66       71 </v>
   <v type="int" >        2       27       33       38       72 </v>
   <v type="int" >        2       27       32       38       72 </v>
   <v type="int" >        2       27       32       66       72 </v>
   <v type="int" >        2       27       33       67       72 </v>
   <v type="int" >        2       27       61       67       72 </v>
   <v type="int" >        2       27       61       66       72 </v>
   <v type="int" >        2       34       39       40       73 </v>
   <v type="int" >        2       33       34       39       73 </v>
   <v type="int" >        2       33       34       67       73 </v>
   <v type="int" >        2       34       40       73       74 </v>
   <v type="int" >        2       34       68       73       74 </v>
   <v type="int" >        2       34       67       68       73 </v>
   <v type="int" >        2       35       40       41       74 </v>
   <v type="int" >        2       34       35       40       74 </v>
   <v type="int" >        2       34       35       68       74 </v>
   <v type="int" >        2       35       41       74       75 </v>
   <v type="int" >        2       35       69       74       75 </v>
   <v type="int" >        2       35       68       69       74 </v>
   <v type="int" >        2       36       41       42       75 </v>
   <v type="int" >        2       35       36       41       75 </v>
   <v type="int" >        2       35       36       69       75 </v>
   <v type="int" >        2       36       42       75       76 </v>
   <v type="int" >        2       36       70       75       76 </v>
   <v type="int" >        2       36       69       70       75 </v>
   <v type="int" >        2       37       42       43       76 </v>
   <v type="int" >        2       36       37       42       76 </v>
   <v type="int" >        2       36       37       70       76 </v>
   <v type="int" >        2       37       43       75       76 </v>
   <v type="int" >        2       37       71       75       76 </v>
   <v type="int" >        2       37       70       71       76 </v>
   <v type="int" >        2       38       43       44       75 </v>
   <v type="int" >        2       37       38       43       75 </v>
   <v type="int" >        2       37       38       71       75 </v>
   <v type="int" >        2       38       44       74       75 </v>
   <v type="int" >        2       38       72       74       75 </v>
   <v type="int" >        2       38       71       72       75 </v>
   <v type="int" >        2       33       39       44       74 </v>
   <v type="int" >        2       33       38       44       74 </v>
   <v type="int" >        2       33       38       72       74 </v>
   <v type="int" >        2       33       39       73       74 </v>
   <v type="int" >        2       33       67       73       74 </v>
   <v type="int" >        2       33       67       72       74 </v>
   <v type="int" >        2       40       45       46       67 </v>
   <v type="int" >        2       39       40       45       67 </v>
   <v type="int" >        2       39       40       67       73 </v>
   <v type="int" >        2       40       46       67       72 </v>
   <v type="int" >        2       40       67       72       74 </v>
   <v type="int" >        2       40       67       73       74 </v>
   <v type="int" >        2       41       46       47       72 </v>
   <v type="int" >        2       40       41       46       72 </v>
   <v type="int" >        2       40       41       72       74 </v>
   <v type="int" >        2       41       47       71       72 </v>
   <v type="int" >        2       41       71       72       75 </v>
   <v type="int" >        2       41       72       74       75 </v>
   <v type="int" >        2       42       47       48       71 </v>
   <v type="int" >        2       41       42       47       71 </v>
   <v type="int" >        2       41       42       71       75 </v>
   <v type="int" >        2       42       48       70       71 </v>
   <v type="int" >        2       42       70       71       76 </v>
   <v type="int" >        2       42       71       75       76 </v>
   <v type="int" >        2       43       48       49       70 </v>
   <v type="int" >        2       42       43       48       70 </v>
   <v type="int" >        2       42       43       70       76 </v>
   <v type="int" >        2       43       49       69       70 </v>
   <v type="int" >        2       43       69       70       75 </v>
   <v type="int" >        2       43       70       75       76 </v>
   <v type="int" >        2       44       49       50       69 </v>
   <v type="int" >        2       43       44       49       69 </v>
   <v type="int" >        2       43       44       69       75 </v>
   <v type="int" >        2       44       50       68       69 </v>
   <v type="int" >        2       44       68       69       74 </v>
   <v type="int" >        2       44       69       74       75 </v>
   <v type="int" >        2       39       45       50       68 </v>
   <v type="int" >        2       39       44       50       68 </v>
   <v type="int" >        2       39       44       68       74 </v>
   <v type="int" >        2       39       45       67       68 </v>
   <v type="int" >        2       39       67       68       73 </v>
   <v type="int" >        2       39       68       73       74 </v>
   <v type="int" >        2       46       51       52       61 </v>
   <v type="int" >        2       45       46       51       61 </v>
   <v type="int" >        2       45       46       61       67 </v>
   <v type="int" >        2       46       52       61       66 </v>
   <v type="int" >        2       46       61       66       72 </v>
   <v type="int" >        2       46       61       67       72 </v>
   <v type="int" >        2       47       52       53       66 </v>
   <v type="int" >        2       46       47       52       66 </v>
   <v type="int" >        2       46       47       66       72 </v>
   <v type="int" >        2       47       53       65       66 </v>
   <v type="int" >        2       47       65       66       71 </v>
   <v type="int" >        2       47       66       71       72 </v>
   <v type="int" >        2       48       53       54       65 </v>
   <v type="int" >        2       47       48       53       65 </v>
   <v type="int" >        2       47       48       65       71 </v>
   <v type="int" >        2       48       54       64       65 </v>
   <v type="int" >        2       48       64       65       70 </v>
   <v type="int" >        2       48       65       70       71 </v>
   <v type="int" >        2       49       54       55       64 </v>
   <v type="int" >        2       48       49       54       64 </v>
   <v type="int" >        2       48       49       64       70 </v>
   <v type="int" >        2       49       55       63       64 </v>
   <v type="int" >        2       49       63       64       69 </v>
   <v type="int" >        2       49       64       69       70 </v>
   <v type="int" >        2       50       55       56       63 </v>
   <v type="int" >        2       49       50       55       63 </v>
   <v type="int" >        2       49       50       63       69 </v>
   <v type="int" >        2       50       56       62       63 </v>
   <v type="int" >        2       50       62       63       68 </v>
   <v type="int" >        2       50       63       68       69 </v>
   <v type="int" >        2       45       51       56       62 </v>
   <v type="int" >        2       45       50       56       62 </v>
   <v type="int" >        2       45       50       62       68 </v>
   <v type="int" >        2       45       51       61       62 </v>
   <v type="int" >        2       45       61       62       67 </v>
   <v type="int" >        2       45       62       67       68 </v>
   <v type="int" >        2       21       22       52       57 </v>
   <v type="int" >        2       21       51       52       57 </v>
   <v type="int" >        2       51       52       57       61 </v>
   <v type="int" >        2       22       52       57       58 </v>
   <v type="int" >        2       52       57       58       66 </v>
   <v type="int" >        2       52       57       61       66 </v>
   <v type="int" >        2       22       23       53       58 </v>
   <v type="int" >        2       22       52       53       58 </v>
   <v type="int" >        2       52       53       58       66 </v>
   <v type="int" >        2       23       53       58       59 </v>
   <v type="int" >        2       53       58       59       65 </v>
   <v type="int" >        2       53       58       65       66 </v>
   <v type="int" >        2       23       24       54       59 </v>
   <v type="int" >        2       23       53       54       59 </v>
   <v type="int" >        2       53       54       59       65 </v>
   <v type="int" >        2       24       54       59       60 </v>
   <v type="int" >        2       54       59       60       64 </v>
   <v type="int" >        2       54       59       64       65 </v>
   <v type="int" >        2       24       25       55       60 </v>
   <v type="int" >        2       24       54       55       60 </v>
   <v type="int" >        2       54       55       60       64 </v>
   <v type="int" >        2       25       55       59       60 </v>
   <v type="int" >        2       55       59       60       63 </v>
   <v type="int" >        2       55       60       63       64 </v>
   <v type="int" >        2       25       26       56       59 </v>
   <v type="int" >        2       25       55       56       59 </v>
   <v type="int" >        2       55       56       59       63 </v>
   <v type="int" >        2       26       56       58       59 </v>
   <v type="int" >        2       56       58       59       62 </v>
   <v type="int" >        2       56       59       62       63 </v>
   <v type="int" >        2       21       26       51       58 </v>
   <v type="int" >        2       26       51       56       58 </v>
   <v type="int" >        2       51       56       58       62 </v>
   <v type="int" >        2       21       51       57       58 </v>
   <v type="int" >        2       51       57       58       61 </v>
   <v type="int" >        2       51       58       61       62 </v>
  </varray>
  <i name="volumeweight">      0.00115741 </i>
 </kpoints>
 <parameters>
  <separator name="general" >
   <i type="string" name="SYSTEM">graphite</i>
   <i type="logical" name="LCOMPAT"> F  </i>
  </separator>
  <separator name="electronic" >
   <i type="string" name="PREC">accura</i>
   <i name="ENMAX">    600.00000000</i>
   <i name="ENAUG">    644.87300000</i>
   <i name="EDIFF">      0.00000001</i>
   <i type="int" name="IALGO">    38</i>
   <i type="int" name="IWAVPR">    10</i>
   <i type="int" name="NBANDS">    84</i>
   <i name="NELECT">    128.00000000</i>
   <i type="int" name="TURBO">     0</i>
   <i type="int" name="IRESTART">     0</i>
   <i type="int" name="NREBOOT">     0</i>
   <i type="int" name="NMIN">     0</i>
   <i name="EREF">      0.00000000</i>
   <separator name="electronic smearing" >
    <i type="int" name="ISMEAR">    -5</i>
    <i name="SIGMA">      0.20000000</i>
    <i name="KSPACING">      0.50000000</i>
    <i type="logical" name="KGAMMA"> T  </i>
   </separator>
   <separator name="electronic projectors" >
    <i type="logical" name="LREAL"> F  </i>
    <v name="ROPT">      0.00000000</v>
    <i type="int" name="LMAXPAW">  -100</i>
    <i type="int" name="LMAXMIX">     2</i>
    <i type="logical" name="NLSPLINE"> F  </i>
   </separator>
   <separator name="electronic startup" >
    <i type="int" name="ISTART">     0</i>
    <i type="int" name="ICHARG">     2</i>
    <i type="int" name="INIWAV">     1</i>
   </separator>
   <separator name="electronic spin" >
    <i type="int" name="ISPIN">     1</i>
    <i type="logical" name="LNONCOLLINEAR"> F  </i>
    <v name="MAGMOM">      1.00000000      1.00000000      1.00000000      1.00000000      1.00000000      1.00000000      1.00000000      1.00000000      1.00000000      1.00000000      1.00000000      1.00000000      1.00000000      1.00000000      1.00000000      1.00000000      1.00000000      1.00000000      1.00000000      1.00000000
      1.00000000      1.00000000      1.00000000      1.00000000      1.00000000      1.00000000      1.00000000      1.00000000      1.00000000      1.00000000      1.00000000      1.00000000</v>
    <i name="NUPDOWN">     -1.00000000</i>
    <i type="logical" name="LSORBIT"> F  </i>
    <v name="SAXIS">      0.00000000      0.00000000      1.00000000</v>
    <i type="logical" name="LSPIRAL"> F  </i>
    <v name="QSPIRAL">      0.00000000      0.00000000      0.00000000</v>
    <i type="logical" name="LZEROZ"> F  </i>
   </separator>
   <separator name="electronic exchange-correlation" >
    <i type="logical" name="LASPH"> F  </i>
    <i type="logical" name="LMETAGGA"> F  </i>
   </separator>
   <separator name="electronic convergence" >
    <i type="int" name="NELM">   200</i>
    <i type="int" name="NELMDL">     0</i>
    <i type="int" name="NELMIN">     2</i>
    <i name="ENINI">    600.00000000</i>
    <separator name="electronic convergence detail" >
     <i type="logical" name="LDIAG"> T  </i>
     <i type="logical" name="LSUBROT"> F  </i>
     <i name="WEIMIN">      0.00000000</i>
     <i name="EBREAK">      0.00000000</i>
     <i name="DEPER">      0.30000000</i>
     <i type="int" name="NRMM">     4</i>
     <i name="TIME">      0.40000000</i>
    </separator>
   </separator>
   <separator name="electronic mixer" >
    <i name="AMIX">      0.40000000</i>
    <i name="BMIX">      1.00000000</i>
    <i name="AMIN">      0.10000000</i>
    <i name="AMIX_MAG">      1.60000000</i>
    <i name="BMIX_MAG">      1.00000000</i>
    <separator name="electronic mixer details" >
     <i type="int" name="IMIX">     4</i>
     <i type="int" name="MAXMIX">   -45</i>
     <i name="WC">    100.00000000</i>
     <i type="int" name="INIMIX">     1</i>
     <i type="int" name="MIXPRE">     1</i>
     <i type="int" name="MREMOVE">     5</i>
    </separator>
   </separator>
   <separator name="electronic dipolcorrection" >
    <i type="logical" name="LDIPOL"> F  </i>
    <i type="logical" name="LMONO"> F  </i>
    <i type="int" name="IDIPOL">     0</i>
    <i name="EPSILON">      1.00000000</i>
    <v name="DIPOL">   -100.00000000   -100.00000000   -100.00000000</v>
    <i name="EFIELD">      0.00000000</i>
   </separator>
  </separator>
  <separator name="grids" >
   <i type="int" name="NGX">    40</i>
   <i type="int" name="NGY">    40</i>
   <i type="int" name="NGZ">   112</i>
   <i type="int" name="NGXF">    80</i>
   <i type="int" name="NGYF">    80</i>
   <i type="int" name="NGZF">   224</i>
   <i type="logical" name="ADDGRID"> F  </i>
  </separator>
  <separator name="ionic" >
   <i type="int" name="NSW">     0</i>
   <i type="int" name="IBRION">    -1</i>
   <i type="int" name="ISIF">     2</i>
   <i name="PSTRESS">      0.00000000</i>
   <i name="EDIFFG">      0.00100000</i>
   <i type="int" name="NFREE">     0</i>
   <i name="POTIM">      0.50000000</i>
   <i name="SMASS">     -3.00000000</i>
   <i name="SCALEE">      1.00000000</i>
  </separator>
  <separator name="ionic md" >
   <i name="TEBEG">      0.00010000</i>
   <i name="TEEND">      0.00010000</i>
   <i type="int" name="NBLOCK">     1</i>
   <i type="int" name="KBLOCK">     1</i>
   <i type="int" name="NPACO">   256</i>
   <i name="APACO">     16.00000000</i>
  </separator>
  <separator name="symmetry" >
   <i type="int" name="ISYM">     2</i>
   <i name="SYMPREC">      0.00001000</i>
  </separator>
  <separator name="dos" >
   <i type="logical" name="LORBIT"> F  </i>
   <v name="RWIGS">     -1.00000000</v>
   <i type="int" name="NEDOS">   301</i>
   <i name="EMIN">     10.00000000</i>
   <i name="EMAX">    -10.00000000</i>
   <i name="EFERMI">      0.00000000</i>
  </separator>
  <separator name="writing" >
   <i type="int" name="NWRITE">     2</i>
   <i type="logical" name="LWAVE"> F  </i>
   <i type="logical" name="LCHARG"> F  </i>
   <i type="logical" name="LPARD"> F  </i>
   <i type="logical" name="LVTOT"> F  </i>
   <i type="logical" name="LVHAR"> F  </i>
   <i type="logical" name="LELF"> F  </i>
   <i type="logical" name="LOPTICS"> F  </i>
   <v name="STM">      0.00000000      0.00000000      0.00000000      0.00000000      0.00000000      0.00000000      0.00000000</v>
  </separator>
  <separator name="performance" >
   <i type="int" name="NPAR">     6</i>
   <i type="int" name="NSIM">     4</i>
   <i type="int" name="NBLK">    -1</i>
   <i type="logical" name="LPLANE"> T  </i>
   <i type="logical" name="LSCALAPACK"> T  </i>
   <i type="logical" name="LSCAAWARE"> F  </i>
   <i type="logical" name="LSCALU"> F  </i>
   <i type="logical" name="LASYNC"> F  </i>
   <i type="logical" name="LORBITALREAL"> F  </i>
  </separator>
  <separator name="miscellaneous" >
   <i type="int" name="IDIOT">     3</i>
   <i type="logical" name="LMUSIC"> F  </i>
   <v name="POMASS">     12.01100000</v>
   <v name="DARWINR">      0.00000000</v>
   <v name="DARWINV">      1.00000000</v>
   <i type="logical" name="LCORR"> T  </i>
  </separator>
  <i type="logical" name="GGA_COMPAT"> T  </i>
  <i type="logical" name="LBERRY"> F  </i>
  <i type="int" name="ICORELEVEL">     0</i>
  <i type="logical" name="LDAU"> F  </i>
  <i type="int" name="I_CONSTRAINED_M">     0</i>
  <separator name="electronic exchange-correlation" >
   <i type="string" name="GGA">PE</i>
   <i type="int" name="VOSKOWN">     0</i>
   <i type="logical" name="LHFCALC"> F  </i>
   <i type="string" name="PRECFOCK"></i>
   <i type="logical" name="LSYMGRAD"> F  </i>
   <i type="logical" name="LHFONE"> F  </i>
   <i type="logical" name="LRHFCALC"> F  </i>
   <i type="logical" name="LTHOMAS"> F  </i>
   <i type="logical" name="LMODELHF"> F  </i>
   <i name="ENCUT4O">     -1.00000000</i>
   <i type="int" name="EXXOEP">     0</i>
   <i type="int" name="FOURORBIT">     0</i>
   <i name="AEXX">      0.00000000</i>
   <i name="HFALPHA">      0.00000000</i>
   <i name="MCALPHA">      0.00000000</i>
   <i name="ALDAX">      1.00000000</i>
   <i name="AGGAX">      1.00000000</i>
   <i name="ALDAC">      1.00000000</i>
   <i name="AGGAC">      1.00000000</i>
   <i type="int" name="NKREDX">     1</i>
   <i type="int" name="NKREDY">     1</i>
   <i type="int" name="NKREDZ">     1</i>
   <i type="logical" name="SHIFTRED"> F  </i>
   <i type="logical" name="ODDONLY"> F  </i>
   <i type="logical" name="EVENONLY"> F  </i>
   <i type="int" name="LMAXFOCK">     0</i>
   <i type="int" name="NMAXFOCKAE">     0</i>
   <i type="logical" name="LFOCKAEDFT"> F  </i>
   <i name="HFSCREEN">      0.00000000</i>
   <i name="HFSCREENC">      0.00000000</i>
   <i type="int" name="NBANDSGWLOW">     0</i>
  </separator>
  <separator name="vdW DFT" >
   <i type="logical" name="LUSE_VDW"> F  </i>
   <i name="Zab_VDW">     -0.84910000</i>
   <i name="PARAM1">      0.12340000</i>
   <i name="PARAM2">      1.00000000</i>
   <i name="PARAM3">      0.00000000</i>
  </separator>
  <separator name="model GW" >
   <i type="int" name="MODEL_GW">     0</i>
   <i name="MODEL_EPS0">      5.55265723</i>
   <i name="MODEL_ALPHA">      1.00000000</i>
  </separator>
  <separator name="linear response parameters" >
   <i type="logical" name="LEPSILON"> F  </i>
   <i type="logical" name="LRPA"> F  </i>
   <i type="logical" name="LNABLA"> F  </i>
   <i type="logical" name="LVEL"> F  </i>
   <i type="int" name="KINTER">     0</i>
   <i name="CSHIFT">      0.10000000</i>
   <i name="OMEGAMAX">     -1.00000000</i>
   <i name="DEG_THRESHOLD">      0.00200000</i>
  </separator>
  <separator name="orbital magnetization" >
   <i type="logical" name="NUCIND"> F  </i>
   <v name="MAGPOS">      0.00000000      0.00000000      0.00000000</v>
   <i type="logical" name="LNICSALL"> T  </i>
   <i type="logical" name="ORBITALMAG"> F  </i>
   <i type="logical" name="LMAGBLOCH"> F  </i>
   <i type="logical" name="LCHIMAG"> F  </i>
   <i type="logical" name="LGAUGE"> T  </i>
   <i type="int" name="MAGATOM">     0</i>
   <v name="MAGDIPOL">      0.00000000      0.00000000      0.00000000</v>
   <v name="AVECCONST">      0.00000000      0.00000000      0.00000000</v>
  </separator>
  <separator name="response functions" >
   <i type="logical" name="LADDER"> F  </i>
   <i type="logical" name="LFXC"> F  </i>
   <i type="logical" name="LHARTREE"> T  </i>
   <i type="int" name="IBSE">     0</i>
   <i type="logical" name="LTCTE"> F  </i>
   <i type="logical" name="LTETE"> F  </i>
   <i type="logical" name="LTRIPLET"> F  </i>
   <i type="logical" name="LFXCEPS"> F  </i>
   <i type="logical" name="LFXHEG"> F  </i>
   <i type="logical" name="L2ORDER"> F  </i>
   <i type="logical" name="LUSEW"> F  </i>
   <i name="ENCUTGW">     -2.00000000</i>
   <i name="ENCUTGWSOFT">     -2.00000000</i>
   <i name="ENCUTLF">     -1.00000000</i>
   <i type="int" name="LMAXMP2">    -1</i>
   <i name="SCISSOR">      0.00000000</i>
   <i type="int" name="NOMEGA">     0</i>
   <i type="int" name="NOMEGAR">     0</i>
   <i type="int" name="NBANDSGW">    -1</i>
   <i type="int" name="NBANDSO">    -1</i>
   <i type="int" name="NBANDSV">    -1</i>
   <i type="int" name="NELM">   200</i>
   <i type="int" name="DIM">     3</i>
   <i type="int" name="ANTIRES">     0</i>
   <i name="OMEGAMAX">    -30.00000000</i>
   <i name="OMEGAMIN">    -30.00000000</i>
   <i name="OMEGATL">   -200.00000000</i>
   <i type="int" name="OMEGAGRID">     0</i>
   <i name="CSHIFT">     -0.10000000</i>
   <i type="logical" name="SELFENERGY"> F  </i>
   <i type="logical" name="LSPECTRAL"> F  </i>
   <i type="logical" name="ODDONLYGW"> F  </i>
   <i type="logical" name="EVENONLYGW"> F  </i>
   <i type="int" name="NKREDLFX">     1</i>
   <i type="int" name="NKREDLFY">     1</i>
   <i type="int" name="NKREDLFZ">     1</i>
   <i type="int" name="MAXMEM">  1800</i>
   <i type="int" name="TELESCOPE">     0</i>
   <i type="int" name="TAUPAR">     1</i>
  </separator>
  <separator name="External order field" >
   <i name="OFIELD_KAPPA">      0.00000000</i>
   <v name="OFIELD_K">      0.00000000      0.00000000      0.00000000</v>
   <i name="OFIELD_Q6_NEAR">      0.00000000</i>
   <i name="OFIELD_Q6_FAR">      0.00000000</i>
   <i name="OFIELD_A">      0.00000000</i>
  </separator>
 </parameters>
 <atominfo>
  <atoms>      32 </atoms>
  <types>       1 </types>
  <array name="atoms" >
   <dimension dim="1">ion</dimension>
   <field type="string">element</field>
   <field type="int">atomtype</field>
   <set>
    <rc><c>C </c><c>   1</c></rc>
    <rc><c>C </c><c>   1</c></rc>
    <rc><c>C </c><c>   1</c></rc>
    <rc><c>C </c><c>   1</c></rc>
    <rc><c>C </c><c>   1</c></rc>
    <rc><c>C </c><c>   1</c></rc>
    <rc><c>C </c><c>   1</c></rc>
    <rc><c>C </c><c>   1</c></rc>
    <rc><c>C </c><c>   1</c></rc>
    <rc><c>C </c><c>   1</c></rc>
    <rc><c>C </c><c>   1</c></rc>
    <rc><c>C </c><c>   1</c></rc>
    <rc><c>C </c><c>   1</c></rc>
    <rc><c>C </c><c>   1</c></rc>
    <rc><c>C </c><c>   1</c></rc>
    <rc><c>C </c><c>   1</c></rc>
    <rc><c>C </c><c>   1</c></rc>
    <rc><c>C </c><c>   1</c></rc>
    <rc><c>C </c><c>   1</c></rc>
    <rc><c>C </c><c>   1</c></rc>
    <rc><c>C </c><c>   1</c></rc>
    <rc><c>C </c><c>   1</c></rc>
    <rc><c>C </c><c>   1</c></rc>
    <rc><c>C </c><c>   1</c></rc>
    <rc><c>C </c><c>   1</c></rc>
    <rc><c>C </c><c>   1</c></rc>
    <rc><c>C </c><c>   1</c></rc>
    <rc><c>C </c><c>   1</c></rc>
    <rc><c>C </c><c>   1</c></rc>
    <rc><c>C </c><c>   1</c></rc>
    <rc><c>C </c><c>   1</c></rc>
    <rc><c>C </c><c>   1</c></rc>
   </set>
  </array>
  <array name="atomtypes" >
   <dimension dim="1">type</dimension>
   <field type="int">atomspertype</field>
   <field type="string">element</field>
   <field>mass</field>
   <field>valence</field>
   <field type="string">pseudopotential</field>
   <set>
    <rc><c>  32</c><c>C </c><c>     12.01100000</c><c>      4.00000000</c><c> PAW_PBE C 08Apr2002                    </c></rc>
   </set>
  </array>
 </atominfo>
 <structure name="initialpos" >
  <crystal>
   <varray name="basis" >
    <v>       4.93287450      -0.00191929       0.00000000 </v>
    <v>      -2.46809940       4.27103499       0.00000000 </v>
    <v>       0.00000000       0.00000000      14.05931154 </v>
   </varray>
   <i name="volume">    296.14171911 </i>
   <varray name="rec_basis" >
    <v>       0.20276715       0.11717288       0.00000000 </v>
    <v>       0.00009112       0.23418794       0.00000000 </v>
    <v>       0.00000000       0.00000000       0.07112724 </v>
   </varray>
  </crystal>
  <varray name="positions" >
   <v>       0.49967330       0.00032672       0.12500000 </v>
   <v>       0.99967330       0.00032672       0.12500000 </v>
   <v>       0.49967330       0.50032672       0.12500000 </v>
   <v>       0.99967330       0.50032672       0.12500000 </v>
   <v>       0.49967330       0.00032672       0.62500000 </v>
   <v>       0.99967330       0.00032672       0.62500000 </v>
   <v>       0.49967330       0.50032672       0.62500000 </v>
   <v>       0.99967330       0.50032672       0.62500000 </v>
   <v>       0.00032672       0.49967330       0.37500000 </v>
   <v>       0.50032672       0.49967330       0.37500000 </v>
   <v>       0.00032672       0.99967330       0.37500000 </v>
   <v>       0.50032672       0.99967330       0.37500000 </v>
   <v>       0.00032672       0.49967330       0.87500000 </v>
   <v>       0.50032672       0.49967330       0.87500000 </v>
   <v>       0.00032672       0.99967330       0.87500000 </v>
   <v>       0.50032672       0.99967330       0.87500000 </v>
   <v>       0.16696362       0.33370753       0.12567116 </v>
   <v>       0.66629246       0.33370753       0.12500000 </v>
   <v>       0.16629246       0.83370753       0.12500000 </v>
   <v>       0.66629246       0.83370753       0.12500000 </v>
   <v>       0.16629246       0.33370753       0.62500000 </v>
   <v>       0.66629246       0.33370753       0.62500000 </v>
   <v>       0.16629246       0.83370753       0.62500000 </v>
   <v>       0.66629246       0.83370753       0.62500000 </v>
   <v>       0.33370753       0.16629246       0.37500000 </v>
   <v>       0.83370753       0.16629246       0.37500000 </v>
   <v>       0.33370753       0.66629246       0.37500000 </v>
   <v>       0.83370753       0.66629246       0.37500000 </v>
   <v>       0.33370753       0.16629246       0.87500000 </v>
   <v>       0.83370753       0.16629246       0.87500000 </v>
   <v>       0.33370753       0.66629246       0.87500000 </v>
   <v>       0.83370753       0.66629246       0.87500000 </v>
  </varray>
 </structure>
 <calculation>
  <scstep>
   <time name="dav">  244.61  244.76</time>
   <time name="total">  245.99  246.16</time>
   <energy>
    <i name="alphaZ">    281.74243124 </i>
    <i name="ewald">  -3451.21589638 </i>
    <i name="hartreedc">  -1343.73871625 </i>
    <i name="XCdc">    442.52645585 </i>
    <i name="pawpsdc">   1210.60617908 </i>
    <i name="pawaedc">  -1247.42152856 </i>
    <i name="eentropy">      0.00000000 </i>
    <i name="bandstr">     14.83845654 </i>
    <i name="atom">   4708.80920826 </i>
    <i name="e_fr_energy">    616.14658979 </i>
    <i name="e_wo_entrp">    616.14658979 </i>
    <i name="e_0_energy">    616.14658979 </i>
   </energy>
  </scstep>
  <scstep>
   <time name="dav">  286.62  286.77</time>
   <time name="total">  286.68  286.83</time>
   <energy>
    <i name="e_fr_energy">   -260.22719869 </i>
    <i name="e_wo_entrp">   -260.22719869 </i>
    <i name="e_0_energy">   -260.22719869 </i>
   </energy>
  </scstep>
  <scstep>
   <time name="dav">  281.33  281.47</time>
   <time name="total">  281.41  281.55</time>
   <energy>
    <i name="e_fr_energy">   -313.02605788 </i>
    <i name="e_wo_entrp">   -313.02605788 </i>
    <i name="e_0_energy">   -313.02605788 </i>
   </energy>
  </scstep>
  <scstep>
   <time name="dav">  291.96  292.11</time>
   <time name="total">  292.03  292.18</time>
   <energy>
    <i name="e_fr_energy">   -314.07441639 </i>
    <i name="e_wo_entrp">   -314.07441639 </i>
    <i name="e_0_energy">   -314.07441639 </i>
   </energy>
  </scstep>
  <scstep>
   <time name="dav">  299.02  299.17</time>
   <time name="total">  305.31  305.47</time>
   <energy>
    <i name="e_fr_energy">   -314.10397249 </i>
    <i name="e_wo_entrp">   -314.10397249 </i>
    <i name="e_0_energy">   -314.10397249 </i>
   </energy>
  </scstep>
  <scstep>
   <time name="dav">  265.06  265.21</time>
   <time name="total">  273.01  273.17</time>
   <energy>
    <i name="e_fr_energy">   -299.46799360 </i>
    <i name="e_wo_entrp">   -299.46799360 </i>
    <i name="e_0_energy">   -299.46799360 </i>
   </energy>
  </scstep>
  <scstep>
   <time name="dav">  267.89  268.02</time>
   <time name="total">  275.04  275.18</time>
   <energy>
    <i name="e_fr_energy">   -294.79568694 </i>
    <i name="e_wo_entrp">   -294.79568694 </i>
    <i name="e_0_energy">   -294.79568694 </i>
   </energy>
  </scstep>
  <scstep>
   <time name="dav">  275.67  275.81</time>
   <time name="total">  282.77  282.92</time>
   <energy>
    <i name="e_fr_energy">   -294.82506537 </i>
    <i name="e_wo_entrp">   -294.82506537 </i>
    <i name="e_0_energy">   -294.82506537 </i>
   </energy>
  </scstep>
  <scstep>
   <time name="dav">  271.82  271.96</time>
   <time name="total">  278.82  278.97</time>
   <energy>
    <i name="e_fr_energy">   -294.84190994 </i>
    <i name="e_wo_entrp">   -294.84190994 </i>
    <i name="e_0_energy">   -294.84190994 </i>
   </energy>
  </scstep>
  <scstep>
   <time name="dav">  263.92  264.05</time>
   <time name="total">  270.44  270.58</time>
   <energy>
    <i name="e_fr_energy">   -294.84308145 </i>
    <i name="e_wo_entrp">   -294.84308145 </i>
    <i name="e_0_energy">   -294.84308145 </i>
   </energy>
  </scstep>
  <scstep>
   <time name="dav">  302.88  303.03</time>
   <time name="total">  310.92  311.08</time>
   <energy>
    <i name="e_fr_energy">   -294.84302712 </i>
    <i name="e_wo_entrp">   -294.84302712 </i>
    <i name="e_0_energy">   -294.84302712 </i>
   </energy>
  </scstep>
  <scstep>
   <time name="dav">  360.07  360.25</time>
   <time name="total">  367.14  367.33</time>
   <energy>
    <i name="e_fr_energy">   -294.84700863 </i>
    <i name="e_wo_entrp">   -294.84700863 </i>
    <i name="e_0_energy">   -294.84700863 </i>
   </energy>
  </scstep>
  <scstep>
   <time name="dav">  279.90  280.05</time>
   <time name="total">  287.17  287.33</time>
   <energy>
    <i name="e_fr_energy">   -294.84391995 </i>
    <i name="e_wo_entrp">   -294.84391995 </i>
    <i name="e_0_energy">   -294.84391995 </i>
   </energy>
  </scstep>
  <scstep>
   <time name="dav">  280.14  280.28</time>
   <time name="total">  286.96  287.10</time>
   <energy>
    <i name="e_fr_energy">   -294.84362271 </i>
    <i name="e_wo_entrp">   -294.84362271 </i>
    <i name="e_0_energy">   -294.84362271 </i>
   </energy>
  </scstep>
  <scstep>
   <time name="dav">  358.57  358.75</time>
   <time name="total">  365.77  365.96</time>
   <energy>
    <i name="e_fr_energy">   -294.84520789 </i>
    <i name="e_wo_entrp">   -294.84520789 </i>
    <i name="e_0_energy">   -294.84520789 </i>
   </energy>
  </scstep>
  <scstep>
   <time name="dav">  295.74  295.88</time>
   <time name="total">  302.20  302.36</time>
   <energy>
    <i name="e_fr_energy">   -294.84350720 </i>
    <i name="e_wo_entrp">   -294.84350720 </i>
    <i name="e_0_energy">   -294.84350720 </i>
   </energy>
  </scstep>
  <scstep>
   <time name="dav">  270.24  270.37</time>
   <time name="total">  277.11  277.25</time>
   <energy>
    <i name="e_fr_energy">   -294.84349087 </i>
    <i name="e_wo_entrp">   -294.84349087 </i>
    <i name="e_0_energy">   -294.84349087 </i>
   </energy>
  </scstep>
  <scstep>
   <time name="dav">  320.97  321.13</time>
   <time name="total">  328.04  328.21</time>
   <energy>
    <i name="e_fr_energy">   -294.84353072 </i>
    <i name="e_wo_entrp">   -294.84353072 </i>
    <i name="e_0_energy">   -294.84353072 </i>
   </energy>
  </scstep>
  <scstep>
   <time name="dav">  272.61  272.75</time>
   <time name="total">  278.99  279.14</time>
   <energy>
    <i name="e_fr_energy">   -294.84347559 </i>
    <i name="e_wo_entrp">   -294.84347559 </i>
    <i name="e_0_energy">   -294.84347559 </i>
   </energy>
  </scstep>
  <scstep>
   <time name="dav">  306.06  306.22</time>
   <time name="total">  313.01  313.18</time>
   <energy>
    <i name="e_fr_energy">   -294.84352163 </i>
    <i name="e_wo_entrp">   -294.84352163 </i>
    <i name="e_0_energy">   -294.84352163 </i>
   </energy>
  </scstep>
  <scstep>
   <time name="dav">  324.79  324.95</time>
   <time name="total">  332.01  332.18</time>
   <energy>
    <i name="e_fr_energy">   -294.84346020 </i>
    <i name="e_wo_entrp">   -294.84346020 </i>
    <i name="e_0_energy">   -294.84346020 </i>
   </energy>
  </scstep>
  <scstep>
   <time name="dav">  276.02  276.15</time>
   <time name="total">  282.94  283.09</time>
   <energy>
    <i name="e_fr_energy">   -294.84347458 </i>
    <i name="e_wo_entrp">   -294.84347458 </i>
    <i name="e_0_energy">   -294.84347458 </i>
   </energy>
  </scstep>
  <scstep>
   <time name="dav">  286.02  286.17</time>
   <time name="total">  292.78  292.93</time>
   <energy>
    <i name="e_fr_energy">   -294.84345498 </i>
    <i name="e_wo_entrp">   -294.84345498 </i>
    <i name="e_0_energy">   -294.84345498 </i>
   </energy>
  </scstep>
  <scstep>
   <time name="dav">  271.00  271.14</time>
   <time name="total">  277.95  278.10</time>
   <energy>
    <i name="e_fr_energy">   -294.84345060 </i>
    <i name="e_wo_entrp">   -294.84345060 </i>
    <i name="e_0_energy">   -294.84345060 </i>
   </energy>
  </scstep>
  <scstep>
   <time name="dav">  275.40  275.54</time>
   <time name="total">  282.62  282.77</time>
   <energy>
    <i name="e_fr_energy">   -294.84345128 </i>
    <i name="e_wo_entrp">   -294.84345128 </i>
    <i name="e_0_energy">   -294.84345128 </i>
   </energy>
  </scstep>
  <scstep>
   <time name="dav">  214.45  214.55</time>
   <time name="total">  221.53  221.65</time>
   <energy>
    <i name="e_fr_energy">   -294.84345136 </i>
    <i name="e_wo_entrp">   -294.84345136 </i>
    <i name="e_0_energy">   -294.84345136 </i>
   </energy>
  </scstep>
  <scstep>
   <time name="dav">  198.26  198.35</time>
   <time name="total">  204.91  205.02</time>
   <energy>
    <i name="e_fr_energy">   -294.84345197 </i>
    <i name="e_wo_entrp">   -294.84345197 </i>
    <i name="e_0_energy">   -294.84345197 </i>
   </energy>
  </scstep>
  <scstep>
   <time name="dav">  299.89  300.04</time>
   <time name="total">  307.54  307.71</time>
   <energy>
    <i name="e_fr_energy">   -294.84344958 </i>
    <i name="e_wo_entrp">   -294.84344958 </i>
    <i name="e_0_energy">   -294.84344958 </i>
   </energy>
  </scstep>
  <scstep>
   <time name="dav">  283.47  283.62</time>
   <time name="total">  291.24  291.39</time>
   <energy>
    <i name="e_fr_energy">   -294.84345145 </i>
    <i name="e_wo_entrp">   -294.84345145 </i>
    <i name="e_0_energy">   -294.84345145 </i>
   </energy>
  </scstep>
  <scstep>
   <time name="dav">  272.64  272.79</time>
   <time name="total">  279.33  279.48</time>
   <energy>
    <i name="e_fr_energy">   -294.84345019 </i>
    <i name="e_wo_entrp">   -294.84345019 </i>
    <i name="e_0_energy">   -294.84345019 </i>
   </energy>
  </scstep>
  <scstep>
   <time name="dav">  283.63  283.77</time>
   <time name="total">  290.79  290.95</time>
   <energy>
    <i name="e_fr_energy">   -294.84344955 </i>
    <i name="e_wo_entrp">   -294.84344955 </i>
    <i name="e_0_energy">   -294.84344955 </i>
   </energy>
  </scstep>
  <scstep>
   <time name="dav">  257.48  257.61</time>
   <time name="total">  263.82  263.95</time>
   <energy>
    <i name="e_fr_energy">   -294.84344980 </i>
    <i name="e_wo_entrp">   -294.84344980 </i>
    <i name="e_0_energy">   -294.84344980 </i>
   </energy>
  </scstep>
  <scstep>
   <time name="dav">  269.95  270.08</time>
   <time name="total">  277.09  277.23</time>
   <energy>
    <i name="e_fr_energy">   -294.84344955 </i>
    <i name="e_wo_entrp">   -294.84344955 </i>
    <i name="e_0_energy">   -294.84344955 </i>
   </energy>
  </scstep>
  <scstep>
   <time name="dav">  234.96  235.08</time>
   <time name="total">  241.84  241.96</time>
   <energy>
    <i name="e_fr_energy">   -294.84344990 </i>
    <i name="e_wo_entrp">   -294.84344990 </i>
    <i name="e_0_energy">   -294.84344990 </i>
   </energy>
  </scstep>
  <scstep>
   <time name="dav">  266.17  266.30</time>
   <time name="total">  272.86  272.99</time>
   <energy>
    <i name="e_fr_energy">   -294.84344982 </i>
    <i name="e_wo_entrp">   -294.84344982 </i>
    <i name="e_0_energy">   -294.84344982 </i>
   </energy>
  </scstep>
  <scstep>
   <time name="dav">  258.91  259.03</time>
   <time name="total">  266.09  266.22</time>
   <energy>
    <i name="e_fr_energy">   -294.84344976 </i>
    <i name="e_wo_entrp">   -294.84344976 </i>
    <i name="e_0_energy">   -294.84344976 </i>
   </energy>
  </scstep>
  <scstep>
   <time name="dav">  237.46  237.57</time>
   <time name="total">  244.57  244.70</time>
   <energy>
    <i name="e_fr_energy">   -294.84344957 </i>
    <i name="e_wo_entrp">   -294.84344957 </i>
    <i name="e_0_energy">   -294.84344957 </i>
   </energy>
  </scstep>
  <scstep>
   <time name="dav">  200.29  200.39</time>
   <time name="total">  207.47  207.58</time>
   <energy>
    <i name="e_fr_energy">   -294.84344955 </i>
    <i name="e_wo_entrp">   -294.84344955 </i>
    <i name="e_0_energy">   -294.84344955 </i>
   </energy>
  </scstep>
  <scstep>
   <time name="dav">  197.46  197.56</time>
   <time name="total">  204.31  204.42</time>
   <energy>
    <i name="e_fr_energy">   -294.84344957 </i>
    <i name="e_wo_entrp">   -294.84344957 </i>
    <i name="e_0_energy">   -294.84344957 </i>
   </energy>
  </scstep>
  <scstep>
   <time name="dav">  193.86  193.96</time>
   <time name="total">  200.79  200.90</time>
   <energy>
    <i name="e_fr_energy">   -294.84344960 </i>
    <i name="e_wo_entrp">   -294.84344960 </i>
    <i name="e_0_energy">   -294.84344960 </i>
   </energy>
  </scstep>
  <scstep>
   <time name="dav">  132.07  132.14</time>
   <time name="total">  137.85  137.92</time>
   <energy>
    <i name="e_fr_energy">   -294.84344964 </i>
    <i name="e_wo_entrp">   -294.84344964 </i>
    <i name="e_0_energy">   -294.84344964 </i>
   </energy>
  </scstep>
  <scstep>
   <time name="dav">   85.41   85.45</time>
   <time name="total">   86.29   86.34</time>
   <energy>
    <i name="alphaZ">    281.74243124 </i>
    <i name="ewald">  -3451.21589638 </i>
    <i name="hartreedc">  -1635.03813163 </i>
    <i name="XCdc">    460.82668785 </i>
    <i name="pawpsdc">   2221.93594193 </i>
    <i name="pawaedc">  -2263.25810654 </i>
    <i name="eentropy">      0.00000000 </i>
    <i name="bandstr">   -618.64558436 </i>
    <i name="atom">   4708.80920826 </i>
    <i name="e_fr_energy">   -294.84344963 </i>
    <i name="e_wo_entrp">   -294.84344963 </i>
    <i name="e_0_energy">   -294.84344963 </i>
   </energy>
  </scstep>
  <structure>
   <crystal>
    <varray name="basis" >
     <v>       4.93287450      -0.00191929       0.00000000 </v>
     <v>      -2.46809940       4.27103499       0.00000000 </v>
     <v>       0.00000000       0.00000000      14.05931154 </v>
    </varray>
    <i name="volume">    296.14171911 </i>
    <varray name="rec_basis" >
     <v>       0.20276715       0.11717288       0.00000000 </v>
     <v>       0.00009112       0.23418794       0.00000000 </v>
     <v>       0.00000000       0.00000000       0.07112724 </v>
    </varray>
   </crystal>
   <varray name="positions" >
    <v>       0.49967330       0.00032672       0.12500000 </v>
    <v>       0.99967330       0.00032672       0.12500000 </v>
    <v>       0.49967330       0.50032672       0.12500000 </v>
    <v>       0.99967330       0.50032672       0.12500000 </v>
    <v>       0.49967330       0.00032672       0.62500000 </v>
    <v>       0.99967330       0.00032672       0.62500000 </v>
    <v>       0.49967330       0.50032672       0.62500000 </v>
    <v>       0.99967330       0.50032672       0.62500000 </v>
    <v>       0.00032672       0.49967330       0.37500000 </v>
    <v>       0.50032672       0.49967330       0.37500000 </v>
    <v>       0.00032672       0.99967330       0.37500000 </v>
    <v>       0.50032672       0.99967330       0.37500000 </v>
    <v>       0.00032672       0.49967330       0.87500000 </v>
    <v>       0.50032672       0.49967330       0.87500000 </v>
    <v>       0.00032672       0.99967330       0.87500000 </v>
    <v>       0.50032672       0.99967330       0.87500000 </v>
    <v>       0.16696362       0.33370753       0.12567116 </v>
    <v>       0.66629246       0.33370753       0.12500000 </v>
    <v>       0.16629246       0.83370753       0.12500000 </v>
    <v>       0.66629246       0.83370753       0.12500000 </v>
    <v>       0.16629246       0.33370753       0.62500000 </v>
    <v>       0.66629246       0.33370753       0.62500000 </v>
    <v>       0.16629246       0.83370753       0.62500000 </v>
    <v>       0.66629246       0.83370753       0.62500000 </v>
    <v>       0.33370753       0.16629246       0.37500000 </v>
    <v>       0.83370753       0.16629246       0.37500000 </v>
    <v>       0.33370753       0.66629246       0.37500000 </v>
    <v>       0.83370753       0.66629246       0.37500000 </v>
    <v>       0.33370753       0.16629246       0.87500000 </v>
    <v>       0.83370753       0.16629246       0.87500000 </v>
    <v>       0.33370753       0.66629246       0.87500000 </v>
    <v>       0.83370753       0.66629246       0.87500000 </v>
   </varray>
  </structure>
  <varray name="forces" >
   <v>      -0.02753011       0.00835195       0.00956619 </v>
   <v>      -0.00138923       0.00882769       0.04522460 </v>
   <v>       0.04273256       0.03375642       0.04484647 </v>
   <v>       0.04237598      -0.01689399       0.04551808 </v>
   <v>      -0.00991448       0.00916023      -0.00278178 </v>
   <v>      -0.00991450       0.00916112      -0.00277407 </v>
   <v>      -0.00991323       0.00916161      -0.00277941 </v>
   <v>      -0.00991262       0.00915916      -0.00276546 </v>
   <v>       0.01771403      -0.01402444       0.00302772 </v>
   <v>       0.01779644      -0.01399119       0.00311377 </v>
   <v>       0.01773050      -0.01402670       0.00307131 </v>
   <v>       0.01781519      -0.01400998       0.00260936 </v>
   <v>       0.01382394      -0.00450815       0.00308802 </v>
   <v>       0.01375373      -0.00439324       0.00297025 </v>
   <v>       0.01369340      -0.00444320       0.00301856 </v>
   <v>       0.01385056      -0.00445820       0.00256937 </v>
   <v>      -0.17900970      -0.00825872      -0.13499737 </v>
   <v>       0.06225181      -0.00745045      -0.00721051 </v>
   <v>       0.02749953      -0.02750766      -0.00727994 </v>
   <v>       0.02761034       0.01267509      -0.00723441 </v>
   <v>       0.00780487      -0.00787386       0.00047038 </v>
   <v>       0.00780434      -0.00787334       0.00035213 </v>
   <v>       0.00780554      -0.00787351       0.00035216 </v>
   <v>       0.00780528      -0.00787526       0.00035324 </v>
   <v>      -0.01689681       0.01311590      -0.00025721 </v>
   <v>      -0.01661337       0.01312019      -0.00021787 </v>
   <v>      -0.01675568       0.01288689      -0.00027030 </v>
   <v>      -0.01672631       0.01302765      -0.00041036 </v>
   <v>      -0.01117781       0.00317670      -0.00016066 </v>
   <v>      -0.01145955       0.00318315      -0.00031368 </v>
   <v>      -0.01132102       0.00342139      -0.00027591 </v>
   <v>      -0.01133361       0.00327677      -0.00042267 </v>
  </varray>
  <varray name="stress" >
   <v>      -0.89811259       2.44237729       0.11126978 </v>
   <v>       2.44237727       1.90258664      -0.05306448 </v>
   <v>       0.11126976      -0.05306445     -14.78434998 </v>
  </varray>
  <energy>
   <i name="e_fr_energy">   -299.57392735 </i>
   <i name="e_wo_entrp">   -299.57392735 </i>
   <i name="e_0_energy">      0.00000000 </i>
  </energy>
  <time name="totalsc">11461.1511467.21</time>
  <eigenvalues>
   <array>
    <dimension dim="1">band</dimension>
    <dimension dim="2">kpoint</dimension>
    <dimension dim="3">spin</dimension>
    <field>eigene</field>
    <field>occ</field>
    <set>
     <set comment="spin 1">
      <set comment="kpoint 1">
       <r>  -15.3143    1.0000 </r>
       <r>  -15.2133    1.0000 </r>
       <r>  -15.2130    1.0000 </r>
       <r>  -15.1070    1.0000 </r>
       <r>  -10.0169    1.0000 </r>
       <r>  -10.0064    1.0000 </r>
       <r>  -10.0036    1.0000 </r>
       <r>   -9.9780    1.0000 </r>
       <r>   -9.9763    1.0000 </r>
       <r>   -9.9665    1.0000 </r>
       <r>   -9.9648    1.0000 </r>
       <r>   -9.9648    1.0000 </r>
       <r>   -9.9613    1.0000 </r>
       <r>   -9.9418    1.0000 </r>
       <r>   -9.9296    1.0000 </r>
       <r>   -9.9270    1.0000 </r>
       <r>   -8.9504    1.0000 </r>
       <r>   -8.9495    1.0000 </r>
       <r>   -8.9480    1.0000 </r>
       <r>   -8.9274    1.0000 </r>
       <r>   -8.9268    1.0000 </r>
       <r>   -8.9248    1.0000 </r>
       <r>   -8.9239    1.0000 </r>
       <r>   -8.9239    1.0000 </r>
       <r>   -8.9220    1.0000 </r>
       <r>   -8.8925    1.0000 </r>
       <r>   -8.8917    1.0000 </r>
       <r>   -8.8894    1.0000 </r>
       <r>   -4.0407    1.0000 </r>
       <r>   -3.3384    1.0000 </r>
       <r>   -3.3370    1.0000 </r>
       <r>   -2.5000    1.0000 </r>
       <r>   -2.1240    1.0000 </r>
       <r>   -2.1219    1.0000 </r>
       <r>   -2.1082    1.0000 </r>
       <r>   -2.1060    1.0000 </r>
       <r>   -2.1060    1.0000 </r>
       <r>   -2.1051    1.0000 </r>
       <r>   -2.1024    1.0000 </r>
       <r>   -2.0904    1.0000 </r>
       <r>   -2.0882    1.0000 </r>
       <r>   -2.0872    1.0000 </r>
       <r>   -2.0858    1.0000 </r>
       <r>   -2.0707    1.0000 </r>
       <r>    1.2659    1.0000 </r>
       <r>    1.2705    1.0000 </r>
       <r>    1.2714    1.0000 </r>
       <r>    1.2747    1.0000 </r>
       <r>    1.2829    1.0000 </r>
       <r>    1.2862    1.0000 </r>
       <r>    1.2869    1.0000 </r>
       <r>    1.2914    1.0000 </r>
       <r>    1.6215    1.0000 </r>
       <r>    1.6254    1.0000 </r>
       <r>    1.6274    1.0000 </r>
       <r>    1.9175    1.0000 </r>
       <r>    1.9202    1.0000 </r>
       <r>    1.9272    1.0000 </r>
       <r>    1.9277    1.0000 </r>
       <r>    1.9278    1.0000 </r>
       <r>    1.9314    1.0000 </r>
       <r>    2.1436    1.0000 </r>
       <r>    2.1591    1.0000 </r>
       <r>    2.1609    1.0000 </r>
       <r>    5.7848    0.0000 </r>
       <r>    5.7870    0.0000 </r>
       <r>    5.7907    0.0000 </r>
       <r>    5.9373    0.0000 </r>
       <r>    5.9398    0.0000 </r>
       <r>    5.9418    0.0000 </r>
       <r>    5.9443    0.0000 </r>
       <r>    5.9446    0.0000 </r>
       <r>    5.9474    0.0000 </r>
       <r>    6.3432    0.0000 </r>
       <r>    6.3493    0.0000 </r>
       <r>    6.3525    0.0000 </r>
       <r>    8.2319    0.0000 </r>
       <r>   10.5218    0.0000 </r>
       <r>   10.5243    0.0000 </r>
       <r>   11.5276    0.0000 </r>
       <r>   11.5314    0.0000 </r>
       <r>   11.5633    0.0000 </r>
       <r>   11.6659    0.0000 </r>
       <r>   11.6669    0.0000 </r>
      </set>
      <set comment="kpoint 2">
       <r>  -15.1491    1.0000 </r>
       <r>  -15.0490    1.0000 </r>
       <r>  -15.0487    1.0000 </r>
       <r>  -14.9438    1.0000 </r>
       <r>  -11.3034    1.0000 </r>
       <r>  -11.2281    1.0000 </r>
       <r>  -11.2279    1.0000 </r>
       <r>  -11.1498    1.0000 </r>
       <r>  -10.4352    1.0000 </r>
       <r>  -10.4279    1.0000 </r>
       <r>  -10.3697    1.0000 </r>
       <r>  -10.3689    1.0000 </r>
       <r>  -10.3619    1.0000 </r>
       <r>  -10.3613    1.0000 </r>
       <r>  -10.3018    1.0000 </r>
       <r>  -10.2940    1.0000 </r>
       <r>   -8.3176    1.0000 </r>
       <r>   -8.3114    1.0000 </r>
       <r>   -8.2657    1.0000 </r>
       <r>   -8.2639    1.0000 </r>
       <r>   -8.2585    1.0000 </r>
       <r>   -8.2580    1.0000 </r>
       <r>   -8.2093    1.0000 </r>
       <r>   -8.2029    1.0000 </r>
       <r>   -7.4725    1.0000 </r>
       <r>   -7.4196    1.0000 </r>
       <r>   -7.4181    1.0000 </r>
       <r>   -7.3633    1.0000 </r>
       <r>   -3.8404    1.0000 </r>
       <r>   -3.1426    1.0000 </r>
       <r>   -3.1412    1.0000 </r>
       <r>   -2.6135    1.0000 </r>
       <r>   -2.5971    1.0000 </r>
       <r>   -2.5916    1.0000 </r>
       <r>   -2.5914    1.0000 </r>
       <r>   -2.5758    1.0000 </r>
       <r>   -2.5736    1.0000 </r>
       <r>   -2.5691    1.0000 </r>
       <r>   -2.5524    1.0000 </r>
       <r>   -2.3105    1.0000 </r>
       <r>   -1.9598    1.0000 </r>
       <r>   -1.9438    1.0000 </r>
       <r>   -1.9413    1.0000 </r>
       <r>   -1.9248    1.0000 </r>
       <r>    0.5732    1.0000 </r>
       <r>    0.6174    1.0000 </r>
       <r>    0.6274    1.0000 </r>
       <r>    0.6311    1.0000 </r>
       <r>    0.6402    1.0000 </r>
       <r>    0.9286    1.0000 </r>
       <r>    0.9361    1.0000 </r>
       <r>    0.9397    1.0000 </r>
       <r>    0.9492    1.0000 </r>
       <r>    1.0806    1.0000 </r>
       <r>    1.0824    1.0000 </r>
       <r>    1.4135    1.0000 </r>
       <r>    1.4185    1.0000 </r>
       <r>    1.6300    1.0000 </r>
       <r>    1.8103    1.0000 </r>
       <r>    1.8129    1.0000 </r>
       <r>    1.8190    1.0000 </r>
       <r>    1.8196    1.0000 </r>
       <r>    2.1874    1.0000 </r>
       <r>    2.1990    1.0000 </r>
       <r>    6.0006    0.0000 </r>
       <r>    6.0022    0.0000 </r>
       <r>    6.2183    0.0000 </r>
       <r>    6.2213    0.0000 </r>
       <r>    6.2239    0.0000 </r>
       <r>    6.2270    0.0000 </r>
       <r>    6.6214    0.0000 </r>
       <r>    6.6281    0.0000 </r>
       <r>    6.7250    0.0000 </r>
       <r>    7.0420    0.0000 </r>
       <r>    7.0457    0.0000 </r>
       <r>    7.4995    0.0000 </r>
       <r>    8.4357    0.0000 </r>
       <r>   10.7072    0.0000 </r>
       <r>   10.7096    0.0000 </r>
       <r>   11.6181    0.0000 </r>
       <r>   11.7491    0.0000 </r>
       <r>   11.7502    0.0000 </r>
       <r>   11.8784    0.0000 </r>
       <r>   12.2610    0.0000 </r>
      </set>
      <set comment="kpoint 3">
       <r>  -14.6550    1.0000 </r>
       <r>  -14.5580    1.0000 </r>
       <r>  -14.5577    1.0000 </r>
       <r>  -14.4563    1.0000 </r>
       <r>  -12.7104    1.0000 </r>
       <r>  -12.6256    1.0000 </r>
       <r>  -12.6253    1.0000 </r>
       <r>  -12.5370    1.0000 </r>
       <r>  -10.8556    1.0000 </r>
       <r>  -10.8519    1.0000 </r>
       <r>  -10.7836    1.0000 </r>
       <r>  -10.7828    1.0000 </r>
       <r>  -10.7796    1.0000 </r>
       <r>  -10.7787    1.0000 </r>
       <r>  -10.7084    1.0000 </r>
       <r>  -10.7046    1.0000 </r>
       <r>   -7.1451    1.0000 </r>
       <r>   -7.1360    1.0000 </r>
       <r>   -7.0974    1.0000 </r>
       <r>   -7.0956    1.0000 </r>
       <r>   -7.0876    1.0000 </r>
       <r>   -7.0868    1.0000 </r>
       <r>   -7.0465    1.0000 </r>
       <r>   -7.0375    1.0000 </r>
       <r>   -5.3604    1.0000 </r>
[...]
       <r>   -4.6275    1.0000 </r>
       <r>   -4.6275    1.0000 </r>
       <r>   -4.6261    1.0000 </r>
       <r>   -4.6228    1.0000 </r>
       <r>   -3.1457    1.0000 </r>
       <r>   -3.1455    1.0000 </r>
       <r>   -3.1455    1.0000 </r>
       <r>   -3.1405    1.0000 </r>
       <r>   -3.0997    1.0000 </r>
       <r>   -3.0995    1.0000 </r>
       <r>   -3.0995    1.0000 </r>
       <r>   -3.0931    1.0000 </r>
       <r>   -2.0887    1.0000 </r>
       <r>   -2.0864    1.0000 </r>
       <r>   -2.0862    1.0000 </r>
       <r>   -2.0840    1.0000 </r>
       <r>   -1.0838    1.0000 </r>
       <r>   -1.0811    1.0000 </r>
       <r>   -1.0810    1.0000 </r>
       <r>   -1.0786    1.0000 </r>
       <r>   -0.7418    1.0000 </r>
       <r>   -0.7319    1.0000 </r>
       <r>   -0.7319    1.0000 </r>
       <r>   -0.7302    1.0000 </r>
       <r>   -0.7156    1.0000 </r>
       <r>   -0.7106    1.0000 </r>
       <r>   -0.7105    1.0000 </r>
       <r>   -0.7087    1.0000 </r>
       <r>    1.1680    1.0000 </r>
       <r>    1.1689    1.0000 </r>
       <r>    1.1690    1.0000 </r>
       <r>    1.1721    1.0000 </r>
       <r>    1.9550    1.0000 </r>
       <r>    1.9559    1.0000 </r>
       <r>    1.9560    1.0000 </r>
       <r>    1.9596    1.0000 </r>
       <r>    6.9364    0.0000 </r>
       <r>    6.9411    0.0000 </r>
       <r>    6.9411    0.0000 </r>
       <r>    6.9416    0.0000 </r>
       <r>    7.2501    0.0000 </r>
       <r>    7.2545    0.0000 </r>
       <r>    7.2545    0.0000 </r>
       <r>    7.2551    0.0000 </r>
       <r>   10.6122    0.0000 </r>
       <r>   10.6174    0.0000 </r>
       <r>   10.6174    0.0000 </r>
       <r>   10.6220    0.0000 </r>
       <r>   11.3854    0.0000 </r>
       <r>   11.3890    0.0000 </r>
       <r>   11.3902    0.0000 </r>
       <r>   11.3953    0.0000 </r>
       <r>   11.6701    0.0000 </r>
       <r>   11.6719    0.0000 </r>
       <r>   11.6724    0.0000 </r>
       <r>   11.6781    0.0000 </r>
      </set>
     </set>
    </set>
   </array>
  </eigenvalues>
  <separator name="orbital magnetization" >
   <v name="MAGDIPOLOUT">      0.00000000      0.00000000      0.00000000</v>
  </separator>
  <dos>
   <i name="efermi">      4.27839097 </i>
   <total>
    <array>
     <dimension dim="1">gridpoints</dimension>
     <dimension dim="2">spin</dimension>
     <field>energy</field>
     <field>total</field>
     <field>integrated</field>
     <set>
      <set comment="spin 1">
       <r>   -17.3143     0.0000     0.0000 </r>
       <r>   -17.2076     0.0000     0.0000 </r>
       <r>   -17.1009     0.0000     0.0000 </r>
       <r>   -16.9942     0.0000     0.0000 </r>
       <r>   -16.8874     0.0000     0.0000 </r>
       <r>   -16.7807     0.0000     0.0000 </r>
       <r>   -16.6740     0.0000     0.0000 </r>
       <r>   -16.5673     0.0000     0.0000 </r>
       <r>   -16.4605     0.0000     0.0000 </r>
       <r>   -16.3538     0.0000     0.0000 </r>
       <r>   -16.2471     0.0000     0.0000 </r>
       <r>   -16.1404     0.0000     0.0000 </r>
       <r>   -16.0337     0.0000     0.0000 </r>
       <r>   -15.9269     0.0000     0.0000 </r>
       <r>   -15.8202     0.0000     0.0000 </r>
       <r>   -15.7135     0.0000     0.0000 </r>
       <r>   -15.6068     0.0000     0.0000 </r>
       <r>   -15.5000     0.0000     0.0000 </r>
       <r>   -15.3933     0.0000     0.0000 </r>
       <r>   -15.2866     0.2046     0.0022 </r>
       <r>   -15.1799     2.4663     0.1281 </r>
       <r>   -15.0732     4.2120     0.4918 </r>
       <r>   -14.9664     5.1037     1.0100 </r>
       <r>   -14.8597     4.8518     1.5147 </r>
       <r>   -14.7530     5.1426     2.0522 </r>
       <r>   -14.6463     5.0309     2.5980 </r>
       <r>   -14.5395     4.7921     3.1212 </r>
       <r>   -14.4328     4.8331     3.6310 </r>
       <r>   -14.3261     5.0521     4.1585 </r>
       <r>   -14.2194     5.2714     4.7094 </r>
       <r>   -14.1127     7.0850     5.3398 </r>
       <r>   -14.0059     8.0611     6.1542 </r>
       <r>   -13.8992     6.3300     7.0083 </r>
       <r>   -13.7925     2.5891     7.4638 </r>
       <r>   -13.6858     1.8851     7.6876 </r>
       <r>   -13.5790     2.1472     7.8990 </r>
       <r>   -13.4723     2.5044     8.1472 </r>
       <r>   -13.3656     2.8619     8.4335 </r>
       <r>   -13.2589     6.3782     8.8324 </r>
       <r>   -13.1522     9.9478     9.9299 </r>
       <r>   -13.0454     7.3781    10.8948 </r>
       <r>   -12.9387     3.9822    11.3865 </r>
       <r>   -12.8320     4.0804    11.8167 </r>
       <r>   -12.7253     4.1787    12.2574 </r>
       <r>   -12.6185     4.2997    12.7095 </r>
       <r>   -12.5118     4.4305    13.1755 </r>
       <r>   -12.4051     4.5538    13.6549 </r>
       <r>   -12.2984     4.6771    14.1475 </r>
       <r>   -12.1917     5.3347    14.6695 </r>
       <r>   -12.0849     6.2505    15.2822 </r>
       <r>   -11.9782     6.2178    15.9718 </r>
       <r>   -11.8715     5.6775    16.6053 </r>
       <r>   -11.7648     5.3793    17.1914 </r>
       <r>   -11.6580     5.5374    17.7738 </r>
       <r>   -11.5513     5.6996    18.3734 </r>
       <r>   -11.4446     5.8619    18.9903 </r>
       <r>   -11.3379     6.0242    19.6246 </r>
       <r>   -11.2312     5.6403    20.2501 </r>
       <r>   -11.1244     5.3057    20.8322 </r>
       <r>   -11.0177     5.3555    21.4011 </r>
       <r>   -10.9110     4.5352    21.9443 </r>
       <r>   -10.8043     4.2924    22.3945 </r>
       <r>   -10.6975     4.9840    22.8958 </r>
       <r>   -10.5908     5.1603    23.4371 </r>
       <r>   -10.4841     5.3366    23.9972 </r>
       <r>   -10.3774     7.2483    24.6335 </r>
       <r>   -10.2707    11.6128    25.6575 </r>
       <r>   -10.1639     9.3432    26.7757 </r>
       <r>   -10.0572     7.0728    27.6517 </r>
       <r>    -9.9505     4.9808    28.2883 </r>
       <r>    -9.8438     4.4183    28.7846 </r>
       <r>    -9.7370     3.9714    29.2323 </r>
       <r>    -9.6303     3.5245    29.6323 </r>
       <r>    -9.5236     6.6801    30.2776 </r>
       <r>    -9.4169     2.0711    30.8506 </r>
       <r>    -9.3102     1.8719    31.0610 </r>
       <r>    -9.2034     1.6727    31.2502 </r>
       <r>    -9.0967     1.4734    31.4180 </r>
       <r>    -8.9900     1.2742    31.5647 </r>
       <r>    -8.8833     1.3912    31.6986 </r>
       <r>    -8.7765     1.8883    31.8736 </r>
       <r>    -8.6698     2.3853    32.1016 </r>
       <r>    -8.5631     2.8822    32.3827 </r>
       <r>    -8.4564     5.9274    32.8089 </r>
       <r>    -8.3497    10.4585    33.6833 </r>
       <r>    -8.2429     5.0617    34.5719 </r>
       <r>    -8.1362     5.2770    35.0962 </r>
       <r>    -8.0295     6.4007    35.7193 </r>
       <r>    -7.9228     7.5244    36.4624 </r>
       <r>    -7.8160     8.6481    37.3254 </r>
       <r>    -7.7093     9.7719    38.3083 </r>
       <r>    -7.6026     6.1908    39.2135 </r>
       <r>    -7.4959     5.5402    39.8113 </r>
       <r>    -7.3892     5.6058    40.4055 </r>
       <r>    -7.2824     5.5598    41.0052 </r>
       <r>    -7.1757     5.4112    41.5906 </r>
       <r>    -7.0690     5.2391    42.1595 </r>
       <r>    -6.9623     5.1120    42.7114 </r>
       <r>    -6.8555     4.9938    43.2507 </r>
       <r>    -6.7488     4.8756    43.7773 </r>
       <r>    -6.6421     4.7573    44.2913 </r>
       <r>    -6.5354     4.6391    44.7927 </r>
       <r>    -6.4287     4.5209    45.2815 </r>
       <r>    -6.3219     4.4015    45.7577 </r>
       <r>    -6.2152     4.5802    46.2288 </r>
       <r>    -6.1085     5.1792    46.7506 </r>
       <r>    -6.0018     5.7543    47.3341 </r>
       <r>    -5.8950     6.3295    47.9789 </r>
       <r>    -5.7883     6.9047    48.6851 </r>
       <r>    -5.6816     7.4798    49.4526 </r>
       <r>    -5.5749     8.0550    50.2816 </r>
       <r>    -5.4682     8.6302    51.1719 </r>
       <r>    -5.3614     7.0631    52.0996 </r>
       <r>    -5.2547     4.2184    52.5964 </r>
       <r>    -5.1480     7.4578    53.1916 </r>
       <r>    -5.0413     6.2505    53.9337 </r>
       <r>    -4.9345     4.8354    54.5253 </r>
       <r>    -4.8278     3.4202    54.9658 </r>
       <r>    -4.7211     2.0049    55.2553 </r>
       <r>    -4.6144     1.2306    55.4037 </r>
       <r>    -4.5077     2.6557    55.6111 </r>
       <r>    -4.4009     4.0808    55.9706 </r>
       <r>    -4.2942     5.5057    56.4821 </r>
       <r>    -4.1875     9.4475    57.2174 </r>
       <r>    -4.0808    11.1468    58.4073 </r>
       <r>    -3.9740    10.4475    59.5542 </r>
       <r>    -3.8673    12.0379    60.7370 </r>
       <r>    -3.7606     6.7961    61.8579 </r>
       <r>    -3.6539     5.1140    62.4435 </r>
       <r>    -3.5472     5.9276    63.0302 </r>
       <r>    -3.4404     6.9701    63.7127 </r>
       <r>    -3.3337    11.9785    64.7186 </r>
       <r>    -3.2270    17.2539    66.2708 </r>
       <r>    -3.1203     8.8696    68.5736 </r>
       <r>    -3.0135     6.5931    69.2863 </r>
       <r>    -2.9068     6.8347    70.0018 </r>
       <r>    -2.8001     7.1884    70.7490 </r>
       <r>    -2.6934     8.0128    71.5501 </r>
       <r>    -2.5867    11.7981    72.6004 </r>
       <r>    -2.4799    15.7838    74.3607 </r>
       <r>    -2.3732    13.1306    75.8994 </r>
       <r>    -2.2665    10.1303    77.1995 </r>
       <r>    -2.1598    20.6771    78.7791 </r>
       <r>    -2.0530    15.6609    81.8476 </r>
       <r>    -1.9463    21.0171    83.9151 </r>
       <r>    -1.8396    13.0813    85.4484 </r>
       <r>    -1.7329    14.7940    86.9272 </r>
       <r>    -1.6262    14.2921    88.5316 </r>
       <r>    -1.5194     8.1318    89.6226 </r>
       <r>    -1.4127     6.9870    90.3698 </r>
       <r>    -1.3060     8.3612    91.2044 </r>
       <r>    -1.1993     8.6595    92.1037 </r>
       <r>    -1.0925     9.7099    93.0811 </r>
       <r>    -0.9858    10.0222    94.1482 </r>
       <r>    -0.8791     9.9605    95.2064 </r>
       <r>    -0.7724    11.3785    96.3471 </r>
       <r>    -0.6657    11.7482    98.1601 </r>
       <r>    -0.5589    11.3101    99.3744 </r>
       <r>    -0.4522    11.8185   100.6083 </r>
       <r>    -0.3455    10.0219   101.8635 </r>
       <r>    -0.2388    10.5777   102.9603 </r>
       <r>    -0.1320     9.9624   104.0522 </r>
       <r>    -0.0253     9.6641   105.0998 </r>
       <r>     0.0814     9.5502   106.1251 </r>
       <r>     0.1881     9.5752   107.1428 </r>
       <r>     0.2948     9.3281   108.1579 </r>
       <r>     0.4016     9.0791   109.1386 </r>
       <r>     0.5083     8.9958   110.1007 </r>
       <r>     0.6150     9.2441   111.0655 </r>
       <r>     0.7217     9.7309   112.0993 </r>
       <r>     0.8285     9.8466   113.1427 </r>
       <r>     0.9352    10.8520   114.2343 </r>
       <r>     1.0419    10.3647   115.3886 </r>
       <r>     1.1486     8.9495   116.4207 </r>
       <r>     1.2553     7.3892   117.2983 </r>
       <r>     1.3621     6.1760   118.0132 </r>
       <r>     1.4688     5.8026   118.6313 </r>
       <r>     1.5755     4.4839   119.1735 </r>
       <r>     1.6822     3.2410   119.5911 </r>
       <r>     1.7890     2.8629   119.9047 </r>
       <r>     1.8957     4.3602   120.2755 </r>
       <r>     2.0024     6.4063   120.8339 </r>
       <r>     2.1091     9.6464   121.6545 </r>
       <r>     2.2158     8.5984   122.8022 </r>
       <r>     2.3226     7.1046   123.6313 </r>
       <r>     2.4293     6.2112   124.3389 </r>
       <r>     2.5360     5.4633   124.9640 </r>
       <r>     2.6427     4.1055   125.4626 </r>
       <r>     2.7495     3.4678   125.8636 </r>
       <r>     2.8562     3.1060   126.2135 </r>
       <r>     2.9629     2.7552   126.5264 </r>
       <r>     3.0696     2.4033   126.8015 </r>
       <r>     3.1763     2.0863   127.0409 </r>
       <r>     3.2831     1.7584   127.2466 </r>
       <r>     3.3898     1.4612   127.4149 </r>
       <r>     3.4965     1.2560   127.5599 </r>
       <r>     3.6032     1.0508   127.6830 </r>
       <r>     3.7100     0.8455   127.7842 </r>
       <r>     3.8167     0.6409   127.8635 </r>
       <r>     3.9234     0.4647   127.9223 </r>
       <r>     4.0301     0.3086   127.9634 </r>
       <r>     4.1368     0.1667   127.9886 </r>
       <r>     4.2436     0.0371   127.9994 </r>
       <r>     4.3503     0.0644   128.0021 </r>
       <r>     4.4570     0.1813   128.0151 </r>
       <r>     4.5637     0.3126   128.0413 </r>
       <r>     4.6705     0.4608   128.0824 </r>
       <r>     4.7772     0.6331   128.1405 </r>
       <r>     4.8839     0.8474   128.2193 </r>
       <r>     4.9906     1.0677   128.3215 </r>
       <r>     5.0973     1.2882   128.4472 </r>
       <r>     5.2041     1.5090   128.5964 </r>
       <r>     5.3108     1.7299   128.7693 </r>
       <r>     5.4175     2.4187   128.9691 </r>
       <r>     5.5242     3.5603   129.2970 </r>
       <r>     5.6310     3.9778   129.7051 </r>
       <r>     5.7377     4.6543   130.1483 </r>
       <r>     5.8444     7.5012   130.7844 </r>
       <r>     5.9511    10.9983   131.7421 </r>
       <r>     6.0578     9.9630   132.9740 </r>
       <r>     6.1646     7.7931   133.9088 </r>
       <r>     6.2713     6.5176   134.6559 </r>
       <r>     6.3780     6.0131   135.3220 </r>
       <r>     6.4847     5.7086   135.9471 </r>
       <r>     6.5915     4.9738   136.5194 </r>
       <r>     6.6982     4.5390   137.0164 </r>
       <r>     6.8049     4.1031   137.4798 </r>
       <r>     6.9116     3.7717   137.8977 </r>
       <r>     7.0183     3.8718   138.3025 </r>
       <r>     7.1251     4.2912   138.7356 </r>
       <r>     7.2318     4.6987   139.2170 </r>
       <r>     7.3385     4.8090   139.7287 </r>
       <r>     7.4452     4.6857   140.2353 </r>
       <r>     7.5520     4.5563   140.7297 </r>
       <r>     7.6587     4.3760   141.2063 </r>
       <r>     7.7654     4.2246   141.6646 </r>
       <r>     7.8721     4.1255   142.1098 </r>
       <r>     7.9789     4.0606   142.5463 </r>
       <r>     8.0856     4.0172   142.9773 </r>
       <r>     8.1923     3.9859   143.4042 </r>
       <r>     8.2990     4.0232   143.8298 </r>
       <r>     8.4057     4.3366   144.2732 </r>
       <r>     8.5125     4.3421   144.7480 </r>
       <r>     8.6192     4.0740   145.1953 </r>
       <r>     8.7259     4.0202   145.6273 </r>
       <r>     8.8326     3.9509   146.0521 </r>
       <r>     8.9394     3.8877   146.4715 </r>
       <r>     9.0461     3.8558   146.8827 </r>
       <r>     9.1528     3.9000   147.2963 </r>
       <r>     9.2595     3.9438   147.7150 </r>
       <r>     9.3662     3.9843   148.1380 </r>
       <r>     9.4730     4.0278   148.5655 </r>
       <r>     9.5797     4.0462   148.9965 </r>
       <r>     9.6864     4.1927   149.4318 </r>
       <r>     9.7931     4.5981   149.9023 </r>
       <r>     9.8999     4.7957   150.4056 </r>
       <r>    10.0066     6.5859   150.9731 </r>
       <r>    10.1133     5.3775   151.6171 </r>
       <r>    10.2200     5.5251   152.1934 </r>
       <r>    10.3267     6.2765   152.8299 </r>
       <r>    10.4335     5.4782   153.4359 </r>
       <r>    10.5402     5.8631   154.0867 </r>
       <r>    10.6469     3.8372   154.6005 </r>
       <r>    10.7536     2.9318   154.9403 </r>
       <r>    10.8604     4.2798   155.3132 </r>
       <r>    10.9671     3.2003   155.7375 </r>
       <r>    11.0738     2.9610   156.0610 </r>
       <r>    11.1805     3.0462   156.3807 </r>
       <r>    11.2872     3.2175   156.7148 </r>
       <r>    11.3940     3.3722   157.0637 </r>
       <r>    11.5007     4.3896   157.4825 </r>
       <r>    11.6074     7.1655   158.0315 </r>
       <r>    11.7141     8.2968   158.8996 </r>
       <r>    11.8209     9.6400   159.8578 </r>
       <r>    11.9276    11.5363   160.9823 </r>
       <r>    12.0343    12.5510   162.2866 </r>
       <r>    12.1410    12.9873   163.6477 </r>
       <r>    12.2477    13.6127   165.0543 </r>
       <r>    12.3545    12.3637   166.4944 </r>
       <r>    12.4612     7.3051   167.5896 </r>
       <r>    12.5679     0.6724   167.9868 </r>
       <r>    12.6746     0.0056   167.9999 </r>
       <r>    12.7814     0.0000   168.0000 </r>
       <r>    12.8881     0.0000   168.0000 </r>
       <r>    12.9948     0.0000   168.0000 </r>
       <r>    13.1015     0.0000   168.0000 </r>
       <r>    13.2082     0.0000   168.0000 </r>
       <r>    13.3150     0.0000   168.0000 </r>
       <r>    13.4217     0.0000   168.0000 </r>
       <r>    13.5284     0.0000   168.0000 </r>
       <r>    13.6351     0.0000   168.0000 </r>
       <r>    13.7419     0.0000   168.0000 </r>
       <r>    13.8486     0.0000   168.0000 </r>
       <r>    13.9553     0.0000   168.0000 </r>
       <r>    14.0620     0.0000   168.0000 </r>
       <r>    14.1687     0.0000   168.0000 </r>
       <r>    14.2755     0.0000   168.0000 </r>
       <r>    14.3822     0.0000   168.0000 </r>
       <r>    14.4889     0.0000   168.0000 </r>
       <r>    14.5956     0.0000   168.0000 </r>
       <r>    14.7024     0.0000   168.0000 </r>
      </set>
     </set>
    </array>
   </total>
  </dos>
 </calculation>
 <structure name="finalpos" >
  <crystal>
   <varray name="basis" >
    <v>       4.93287450      -0.00191929       0.00000000 </v>
    <v>      -2.46809940       4.27103499       0.00000000 </v>
    <v>       0.00000000       0.00000000      14.05931154 </v>
   </varray>
   <i name="volume">    296.14171911 </i>
   <varray name="rec_basis" >
    <v>       0.20276715       0.11717288       0.00000000 </v>
    <v>       0.00009112       0.23418794       0.00000000 </v>
    <v>       0.00000000       0.00000000       0.07112724 </v>
   </varray>
  </crystal>
  <varray name="positions" >
   <v>       0.49967330       0.00032672       0.12500000 </v>
   <v>       0.99967330       0.00032672       0.12500000 </v>
   <v>       0.49967330       0.50032672       0.12500000 </v>
   <v>       0.99967330       0.50032672       0.12500000 </v>
   <v>       0.49967330       0.00032672       0.62500000 </v>
   <v>       0.99967330       0.00032672       0.62500000 </v>
   <v>       0.49967330       0.50032672       0.62500000 </v>
   <v>       0.99967330       0.50032672       0.62500000 </v>
   <v>       0.00032672       0.49967330       0.37500000 </v>
   <v>       0.50032672       0.49967330       0.37500000 </v>
   <v>       0.00032672       0.99967330       0.37500000 </v>
   <v>       0.50032672       0.99967330       0.37500000 </v>
   <v>       0.00032672       0.49967330       0.87500000 </v>
   <v>       0.50032672       0.49967330       0.87500000 </v>
   <v>       0.00032672       0.99967330       0.87500000 </v>
   <v>       0.50032672       0.99967330       0.87500000 </v>
   <v>       0.16696362       0.33370753       0.12567116 </v>
   <v>       0.66629246       0.33370753       0.12500000 </v>
   <v>       0.16629246       0.83370753       0.12500000 </v>
   <v>       0.66629246       0.83370753       0.12500000 </v>
   <v>       0.16629246       0.33370753       0.62500000 </v>
   <v>       0.66629246       0.33370753       0.62500000 </v>
   <v>       0.16629246       0.83370753       0.62500000 </v>
   <v>       0.66629246       0.83370753       0.62500000 </v>
   <v>       0.33370753       0.16629246       0.37500000 </v>
   <v>       0.83370753       0.16629246       0.37500000 </v>
   <v>       0.33370753       0.66629246       0.37500000 </v>
   <v>       0.83370753       0.66629246       0.37500000 </v>
   <v>       0.33370753       0.16629246       0.87500000 </v>
   <v>       0.83370753       0.16629246       0.87500000 </v>
   <v>       0.33370753       0.66629246       0.87500000 </v>
   <v>       0.83370753       0.66629246       0.87500000 </v>
  </varray>
 </structure>
</modeling>
