  12  12   0   0
  0.1041962E+02  0.4804181E-09  0.6372692E-09  0.4084047E-09  0.5000000E-15
  1.000000000000000E-004
  CAR 
 ethylene                                
      9.97442494    -17.70449026  301     -3.17305978      1.00000000
    -17.704  0.0000E+00  0.0000E+00
    -17.612  0.0000E+00  0.0000E+00
    -17.520  0.0000E+00  0.0000E+00
    -17.428  0.0000E+00  0.0000E+00
    -17.335  0.0000E+00  0.0000E+00
    -17.243  0.0000E+00  0.0000E+00
    -17.151  0.0000E+00  0.0000E+00
    -17.059  0.0000E+00  0.0000E+00
    -16.966  0.0000E+00  0.0000E+00
    -16.874  0.0000E+00  0.0000E+00
    -16.782  0.0000E+00  0.0000E+00
    -16.690  0.0000E+00  0.0000E+00
    -16.597  0.0000E+00  0.0000E+00
    -16.505  0.0000E+00  0.0000E+00
    -16.413  0.0000E+00  0.0000E+00
    -16.321  0.0000E+00  0.0000E+00
    -16.228  0.0000E+00  0.0000E+00
    -16.136  0.0000E+00  0.0000E+00
    -16.044  0.0000E+00  0.0000E+00
    -15.951  0.0000E+00  0.0000E+00
    -15.859  0.0000E+00  0.0000E+00
    -15.767  0.0000E+00  0.0000E+00
    -15.675  0.9613E-02  0.1338E-03
    -15.582  0.2941E-01  0.1857E-02
    -15.490  0.8989E-01  0.6620E-02
    -15.398  0.1178E+00  0.1913E-01
    -15.306  0.0000E+00  0.2000E-01
    -15.213  0.0000E+00  0.2000E-01
    -15.121  0.0000E+00  0.2000E-01
    -15.029  0.0000E+00  0.2000E-01
    -14.937  0.0000E+00  0.2000E-01
    -14.844  0.0000E+00  0.2000E-01
    -14.752  0.0000E+00  0.2000E-01
    -14.660  0.0000E+00  0.2000E-01
    -14.568  0.0000E+00  0.2000E-01
    -14.475  0.0000E+00  0.2000E-01
    -14.383  0.0000E+00  0.2000E-01
    -14.291  0.0000E+00  0.2000E-01
    -14.198  0.0000E+00  0.2000E-01
    -14.106  0.0000E+00  0.2000E-01
    -14.014  0.0000E+00  0.2000E-01
    -13.922  0.0000E+00  0.2000E-01
    -13.829  0.0000E+00  0.2000E-01
    -13.737  0.0000E+00  0.2000E-01
    -13.645  0.0000E+00  0.2000E-01
    -13.553  0.0000E+00  0.2000E-01
    -13.460  0.0000E+00  0.2000E-01
    -13.368  0.0000E+00  0.2000E-01
    -13.276  0.0000E+00  0.2000E-01
    -13.184  0.0000E+00  0.2000E-01
    -13.091  0.0000E+00  0.2000E-01
    -12.999  0.0000E+00  0.2000E-01
    -12.907  0.0000E+00  0.2000E-01
    -12.815  0.0000E+00  0.2000E-01
    -12.722  0.0000E+00  0.2000E-01
    -12.630  0.0000E+00  0.2000E-01
    -12.538  0.0000E+00  0.2000E-01
    -12.445  0.0000E+00  0.2000E-01
    -12.353  0.0000E+00  0.2000E-01
    -12.261  0.0000E+00  0.2000E-01
    -12.169  0.0000E+00  0.2000E-01
    -12.076  0.0000E+00  0.2000E-01
    -11.984  0.0000E+00  0.2000E-01
    -11.892  0.0000E+00  0.2000E-01
    -11.800  0.0000E+00  0.2000E-01
    -11.707  0.0000E+00  0.2000E-01
    -11.615  0.0000E+00  0.2000E-01
    -11.523  0.0000E+00  0.2000E-01
    -11.431  0.0000E+00  0.2000E-01
    -11.338  0.0000E+00  0.2000E-01
    -11.246  0.0000E+00  0.2000E-01
    -11.154  0.0000E+00  0.2000E-01
    -11.062  0.2736E-01  0.2014E-01
    -10.969  0.5710E-01  0.2481E-01
    -10.877  0.7325E-01  0.3058E-01
    -10.785  0.6230E-01  0.3812E-01
    -10.692  0.0000E+00  0.4000E-01
    -10.600  0.0000E+00  0.4000E-01
    -10.508  0.0000E+00  0.4000E-01
    -10.416  0.0000E+00  0.4000E-01
    -10.323  0.0000E+00  0.4000E-01
    -10.231  0.0000E+00  0.4000E-01
    -10.139  0.0000E+00  0.4000E-01
    -10.047  0.0000E+00  0.4000E-01
     -9.954  0.0000E+00  0.4000E-01
     -9.862  0.0000E+00  0.4000E-01
     -9.770  0.0000E+00  0.4000E-01
     -9.678  0.0000E+00  0.4000E-01
     -9.585  0.0000E+00  0.4000E-01
     -9.493  0.0000E+00  0.4000E-01
     -9.401  0.0000E+00  0.4000E-01
     -9.309  0.0000E+00  0.4000E-01
     -9.216  0.0000E+00  0.4000E-01
     -9.124  0.0000E+00  0.4000E-01
     -9.032  0.0000E+00  0.4000E-01
     -8.940  0.0000E+00  0.4000E-01
     -8.847  0.0000E+00  0.4000E-01
     -8.755  0.0000E+00  0.4000E-01
     -8.663  0.0000E+00  0.4000E-01
     -8.570  0.0000E+00  0.4000E-01
     -8.478  0.0000E+00  0.4000E-01
     -8.386  0.2306E-02  0.4000E-01
     -8.294  0.4806E-01  0.4263E-01
     -8.201  0.3852E-01  0.4673E-01
     -8.109  0.3135E-01  0.4980E-01
     -8.017  0.3087E-01  0.5264E-01
     -7.925  0.5601E-01  0.5627E-01
     -7.832  0.1962E-01  0.5982E-01
     -7.740  0.0000E+00  0.6000E-01
     -7.648  0.0000E+00  0.6000E-01
     -7.556  0.0000E+00  0.6000E-01
     -7.463  0.0000E+00  0.6000E-01
     -7.371  0.0000E+00  0.6000E-01
     -7.279  0.0000E+00  0.6000E-01
     -7.187  0.3205E-02  0.6004E-01
     -7.094  0.9709E-02  0.6063E-01
     -7.002  0.1942E-01  0.6193E-01
     -6.910  0.4440E-01  0.6463E-01
     -6.817  0.1099E+00  0.7204E-01
     -6.725  0.3473E-01  0.7706E-01
     -6.633  0.1892E-01  0.7952E-01
     -6.541  0.0000E+00  0.8000E-01
     -6.448  0.0000E+00  0.8000E-01
     -6.356  0.0000E+00  0.8000E-01
     -6.264  0.0000E+00  0.8000E-01
     -6.172  0.0000E+00  0.8000E-01
     -6.079  0.0000E+00  0.8000E-01
     -5.987  0.0000E+00  0.8000E-01
     -5.895  0.0000E+00  0.8000E-01
     -5.803  0.0000E+00  0.8000E-01
     -5.710  0.0000E+00  0.8000E-01
     -5.618  0.4880E-02  0.8004E-01
     -5.526  0.1049E-01  0.8083E-01
     -5.434  0.1417E-01  0.8197E-01
     -5.341  0.1952E-01  0.8351E-01
     -5.249  0.3098E-01  0.8574E-01
     -5.157  0.5355E-01  0.8997E-01
     -5.064  0.3815E-01  0.9435E-01
     -4.972  0.2213E-01  0.9741E-01
     -4.880  0.1219E-01  0.9896E-01
     -4.788  0.6125E-02  0.9978E-01
     -4.695  0.0000E+00  0.1000E+00
     -4.603  0.0000E+00  0.1000E+00
     -4.511  0.0000E+00  0.1000E+00
     -4.419  0.0000E+00  0.1000E+00
     -4.326  0.0000E+00  0.1000E+00
     -4.234  0.0000E+00  0.1000E+00
     -4.142  0.0000E+00  0.1000E+00
     -4.050  0.0000E+00  0.1000E+00
     -3.957  0.0000E+00  0.1000E+00
     -3.865  0.1033E-03  0.1000E+00
     -3.773  0.5710E-02  0.1003E+00
     -3.681  0.1228E-01  0.1011E+00
     -3.588  0.2631E-01  0.1028E+00
     -3.496  0.7466E-01  0.1071E+00
     -3.404  0.5689E-01  0.1146E+00
     -3.311  0.2442E-01  0.1179E+00
     -3.219  0.1592E-01  0.1197E+00
     -3.127  0.0000E+00  0.1200E+00
     -3.035  0.0000E+00  0.1200E+00
     -2.942  0.0000E+00  0.1200E+00
     -2.850  0.0000E+00  0.1200E+00
     -2.758  0.0000E+00  0.1200E+00
     -2.666  0.0000E+00  0.1200E+00
     -2.573  0.0000E+00  0.1200E+00
     -2.481  0.0000E+00  0.1200E+00
     -2.389  0.0000E+00  0.1200E+00
     -2.297  0.0000E+00  0.1200E+00
     -2.204  0.0000E+00  0.1200E+00
     -2.112  0.0000E+00  0.1200E+00
     -2.020  0.0000E+00  0.1200E+00
     -1.928  0.0000E+00  0.1200E+00
     -1.835  0.0000E+00  0.1200E+00
     -1.743  0.0000E+00  0.1200E+00
     -1.651  0.0000E+00  0.1200E+00
     -1.558  0.0000E+00  0.1200E+00
     -1.466  0.0000E+00  0.1200E+00
     -1.374  0.0000E+00  0.1200E+00
     -1.282  0.0000E+00  0.1200E+00
     -1.189  0.0000E+00  0.1200E+00
     -1.097  0.0000E+00  0.1200E+00
     -1.005  0.0000E+00  0.1200E+00
     -0.913  0.0000E+00  0.1200E+00
     -0.820  0.0000E+00  0.1200E+00
     -0.728  0.0000E+00  0.1200E+00
     -0.636  0.0000E+00  0.1200E+00
     -0.544  0.0000E+00  0.1200E+00
     -0.451  0.0000E+00  0.1200E+00
     -0.359  0.0000E+00  0.1200E+00
     -0.267  0.0000E+00  0.1200E+00
     -0.175  0.0000E+00  0.1200E+00
     -0.082  0.0000E+00  0.1200E+00
      0.010  0.0000E+00  0.1200E+00
      0.102  0.0000E+00  0.1200E+00
      0.195  0.0000E+00  0.1200E+00
      0.287  0.0000E+00  0.1200E+00
      0.379  0.0000E+00  0.1200E+00
      0.471  0.0000E+00  0.1200E+00
      0.564  0.0000E+00  0.1200E+00
      0.656  0.0000E+00  0.1200E+00
      0.748  0.0000E+00  0.1200E+00
      0.840  0.0000E+00  0.1200E+00
      0.933  0.0000E+00  0.1200E+00
      1.025  0.0000E+00  0.1200E+00
      1.117  0.0000E+00  0.1200E+00
      1.209  0.0000E+00  0.1200E+00
      1.302  0.2116E-02  0.1200E+00
      1.394  0.4186E-02  0.1203E+00
      1.486  0.5595E-02  0.1208E+00
      1.578  0.7018E-02  0.1214E+00
      1.671  0.8376E-02  0.1221E+00
      1.763  0.1012E-01  0.1229E+00
      1.855  0.1256E-01  0.1240E+00
      1.948  0.1502E-01  0.1253E+00
      2.040  0.1577E-01  0.1267E+00
      2.132  0.1684E-01  0.1282E+00
      2.224  0.1847E-01  0.1299E+00
      2.317  0.2283E-01  0.1317E+00
      2.409  0.2450E-01  0.1340E+00
      2.501  0.2573E-01  0.1363E+00
      2.593  0.2311E-01  0.1385E+00
      2.686  0.7502E-02  0.1397E+00
      2.778  0.5863E-05  0.1400E+00
      2.870  0.0000E+00  0.1400E+00
      2.962  0.0000E+00  0.1400E+00
      3.055  0.0000E+00  0.1400E+00
      3.147  0.0000E+00  0.1400E+00
      3.239  0.0000E+00  0.1400E+00
      3.331  0.1110E-02  0.1400E+00
      3.424  0.4609E-02  0.1404E+00
      3.516  0.5050E-02  0.1408E+00
      3.608  0.5576E-02  0.1413E+00
      3.701  0.6163E-02  0.1419E+00
      3.793  0.6707E-02  0.1425E+00
      3.885  0.7441E-02  0.1431E+00
      3.977  0.8388E-02  0.1438E+00
      4.070  0.9184E-02  0.1447E+00
      4.162  0.1003E-01  0.1455E+00
      4.254  0.1155E-01  0.1465E+00
      4.346  0.1369E-01  0.1477E+00
      4.439  0.1679E-01  0.1491E+00
      4.531  0.2120E-01  0.1508E+00
      4.623  0.2430E-01  0.1530E+00
      4.715  0.2163E-01  0.1551E+00
      4.808  0.1590E-01  0.1569E+00
      4.900  0.1234E-01  0.1582E+00
      4.992  0.9778E-02  0.1592E+00
      5.084  0.1027E-01  0.1601E+00
      5.177  0.1125E-01  0.1611E+00
      5.269  0.1210E-01  0.1622E+00
      5.361  0.1352E-01  0.1634E+00
      5.454  0.1714E-01  0.1649E+00
      5.546  0.1657E-01  0.1665E+00
      5.638  0.1725E-01  0.1680E+00
      5.730  0.1757E-01  0.1696E+00
      5.823  0.2022E-01  0.1713E+00
      5.915  0.2090E-01  0.1733E+00
      6.007  0.1743E-01  0.1751E+00
      6.099  0.1430E-01  0.1765E+00
      6.192  0.1238E-01  0.1777E+00
      6.284  0.1248E-01  0.1789E+00
      6.376  0.9975E-02  0.1799E+00
      6.468  0.1048E-01  0.1808E+00
      6.561  0.1310E-01  0.1820E+00
      6.653  0.1284E-01  0.1831E+00
      6.745  0.1272E-01  0.1843E+00
      6.837  0.9486E-02  0.1853E+00
      6.930  0.8818E-02  0.1862E+00
      7.022  0.1074E-01  0.1871E+00
      7.114  0.7903E-02  0.1879E+00
      7.207  0.6880E-02  0.1886E+00
      7.299  0.5201E-02  0.1892E+00
      7.391  0.2377E-02  0.1895E+00
      7.483  0.1562E-02  0.1897E+00
      7.576  0.1209E-02  0.1898E+00
      7.668  0.7835E-03  0.1899E+00
      7.760  0.4799E-03  0.1900E+00
      7.852  0.2294E-03  0.1900E+00
      7.945  0.1830E-04  0.1900E+00
      8.037  0.0000E+00  0.1900E+00
      8.129  0.0000E+00  0.1900E+00
      8.221  0.0000E+00  0.1900E+00
      8.314  0.0000E+00  0.1900E+00
      8.406  0.0000E+00  0.1900E+00
      8.498  0.0000E+00  0.1900E+00
      8.590  0.0000E+00  0.1900E+00
      8.683  0.0000E+00  0.1900E+00
      8.775  0.0000E+00  0.1900E+00
      8.867  0.0000E+00  0.1900E+00
      8.960  0.0000E+00  0.1900E+00
      9.052  0.0000E+00  0.1900E+00
      9.144  0.0000E+00  0.1900E+00
      9.236  0.0000E+00  0.1900E+00
      9.329  0.0000E+00  0.1900E+00
      9.421  0.0000E+00  0.1900E+00
      9.513  0.0000E+00  0.1900E+00
      9.605  0.0000E+00  0.1900E+00
      9.698  0.0000E+00  0.1900E+00
      9.790  0.0000E+00  0.1900E+00
      9.882  0.0000E+00  0.1900E+00
      9.974  0.0000E+00  0.1900E+00
