  12  12   0   0
  0.1041962E+02  0.4804181E-09  0.6372692E-09  0.4084047E-09  0.5000000E-15
  1.000000000000000E-004
  CAR 
 ethylene                                
      9.97670112    -17.70660190  301     -3.17286781      1.00000000
    -17.707  0.0000E+00  0.0000E+00
    -17.614  0.0000E+00  0.0000E+00
    -17.522  0.0000E+00  0.0000E+00
    -17.430  0.0000E+00  0.0000E+00
    -17.337  0.0000E+00  0.0000E+00
    -17.245  0.0000E+00  0.0000E+00
    -17.153  0.0000E+00  0.0000E+00
    -17.061  0.0000E+00  0.0000E+00
    -16.968  0.0000E+00  0.0000E+00
    -16.876  0.0000E+00  0.0000E+00
    -16.784  0.0000E+00  0.0000E+00
    -16.692  0.0000E+00  0.0000E+00
    -16.599  0.0000E+00  0.0000E+00
    -16.507  0.0000E+00  0.0000E+00
    -16.415  0.0000E+00  0.0000E+00
    -16.322  0.0000E+00  0.0000E+00
    -16.230  0.0000E+00  0.0000E+00
    -16.138  0.0000E+00  0.0000E+00
    -16.046  0.0000E+00  0.0000E+00
    -15.953  0.0000E+00  0.0000E+00
    -15.861  0.0000E+00  0.0000E+00
    -15.769  0.0000E+00  0.0000E+00
    -15.676  0.9696E-02  0.1370E-03
    -15.584  0.2953E-01  0.1869E-02
    -15.492  0.9017E-01  0.6662E-02
    -15.400  0.1117E+00  0.1918E-01
    -15.307  0.0000E+00  0.2000E-01
    -15.215  0.0000E+00  0.2000E-01
    -15.123  0.0000E+00  0.2000E-01
    -15.031  0.0000E+00  0.2000E-01
    -14.938  0.0000E+00  0.2000E-01
    -14.846  0.0000E+00  0.2000E-01
    -14.754  0.0000E+00  0.2000E-01
    -14.661  0.0000E+00  0.2000E-01
    -14.569  0.0000E+00  0.2000E-01
    -14.477  0.0000E+00  0.2000E-01
    -14.385  0.0000E+00  0.2000E-01
    -14.292  0.0000E+00  0.2000E-01
    -14.200  0.0000E+00  0.2000E-01
    -14.108  0.0000E+00  0.2000E-01
    -14.015  0.0000E+00  0.2000E-01
    -13.923  0.0000E+00  0.2000E-01
    -13.831  0.0000E+00  0.2000E-01
    -13.739  0.0000E+00  0.2000E-01
    -13.646  0.0000E+00  0.2000E-01
    -13.554  0.0000E+00  0.2000E-01
    -13.462  0.0000E+00  0.2000E-01
    -13.370  0.0000E+00  0.2000E-01
    -13.277  0.0000E+00  0.2000E-01
    -13.185  0.0000E+00  0.2000E-01
    -13.093  0.0000E+00  0.2000E-01
    -13.000  0.0000E+00  0.2000E-01
    -12.908  0.0000E+00  0.2000E-01
    -12.816  0.0000E+00  0.2000E-01
    -12.724  0.0000E+00  0.2000E-01
    -12.631  0.0000E+00  0.2000E-01
    -12.539  0.0000E+00  0.2000E-01
    -12.447  0.0000E+00  0.2000E-01
    -12.354  0.0000E+00  0.2000E-01
    -12.262  0.0000E+00  0.2000E-01
    -12.170  0.0000E+00  0.2000E-01
    -12.078  0.0000E+00  0.2000E-01
    -11.985  0.0000E+00  0.2000E-01
    -11.893  0.0000E+00  0.2000E-01
    -11.801  0.0000E+00  0.2000E-01
    -11.709  0.0000E+00  0.2000E-01
    -11.616  0.0000E+00  0.2000E-01
    -11.524  0.0000E+00  0.2000E-01
    -11.432  0.0000E+00  0.2000E-01
    -11.339  0.0000E+00  0.2000E-01
    -11.247  0.0000E+00  0.2000E-01
    -11.155  0.0000E+00  0.2000E-01
    -11.063  0.3033E-01  0.2017E-01
    -10.970  0.5716E-01  0.2488E-01
    -10.878  0.7362E-01  0.3066E-01
    -10.786  0.6207E-01  0.3821E-01
    -10.693  0.0000E+00  0.4000E-01
    -10.601  0.0000E+00  0.4000E-01
    -10.509  0.0000E+00  0.4000E-01
    -10.417  0.0000E+00  0.4000E-01
    -10.324  0.0000E+00  0.4000E-01
    -10.232  0.0000E+00  0.4000E-01
    -10.140  0.0000E+00  0.4000E-01
    -10.048  0.0000E+00  0.4000E-01
     -9.955  0.0000E+00  0.4000E-01
     -9.863  0.0000E+00  0.4000E-01
     -9.771  0.0000E+00  0.4000E-01
     -9.678  0.0000E+00  0.4000E-01
     -9.586  0.0000E+00  0.4000E-01
     -9.494  0.0000E+00  0.4000E-01
     -9.402  0.0000E+00  0.4000E-01
     -9.309  0.0000E+00  0.4000E-01
     -9.217  0.0000E+00  0.4000E-01
     -9.125  0.0000E+00  0.4000E-01
     -9.033  0.0000E+00  0.4000E-01
     -8.940  0.0000E+00  0.4000E-01
     -8.848  0.0000E+00  0.4000E-01
     -8.756  0.0000E+00  0.4000E-01
     -8.663  0.0000E+00  0.4000E-01
     -8.571  0.0000E+00  0.4000E-01
     -8.479  0.0000E+00  0.4000E-01
     -8.387  0.3433E-02  0.4001E-01
     -8.294  0.4872E-01  0.4273E-01
     -8.202  0.3824E-01  0.4681E-01
     -8.110  0.3137E-01  0.4987E-01
     -8.017  0.3106E-01  0.5272E-01
     -7.925  0.5655E-01  0.5642E-01
     -7.833  0.1709E-01  0.5987E-01
     -7.741  0.0000E+00  0.6000E-01
     -7.648  0.0000E+00  0.6000E-01
     -7.556  0.0000E+00  0.6000E-01
     -7.464  0.0000E+00  0.6000E-01
     -7.372  0.0000E+00  0.6000E-01
     -7.279  0.0000E+00  0.6000E-01
     -7.187  0.3236E-02  0.6004E-01
     -7.095  0.9748E-02  0.6064E-01
     -7.002  0.1949E-01  0.6194E-01
     -6.910  0.4469E-01  0.6465E-01
     -6.818  0.1096E+00  0.7210E-01
     -6.726  0.3463E-01  0.7709E-01
     -6.633  0.1872E-01  0.7953E-01
     -6.541  0.0000E+00  0.8000E-01
     -6.449  0.0000E+00  0.8000E-01
     -6.356  0.0000E+00  0.8000E-01
     -6.264  0.0000E+00  0.8000E-01
     -6.172  0.0000E+00  0.8000E-01
     -6.080  0.0000E+00  0.8000E-01
     -5.987  0.0000E+00  0.8000E-01
     -5.895  0.0000E+00  0.8000E-01
     -5.803  0.0000E+00  0.8000E-01
     -5.711  0.0000E+00  0.8000E-01
     -5.618  0.5193E-02  0.8004E-01
     -5.526  0.1053E-01  0.8084E-01
     -5.434  0.1423E-01  0.8199E-01
     -5.341  0.1964E-01  0.8353E-01
     -5.249  0.3134E-01  0.8578E-01
     -5.157  0.5280E-01  0.9005E-01
     -5.065  0.3777E-01  0.9442E-01
     -4.972  0.2190E-01  0.9745E-01
     -4.880  0.1204E-01  0.9898E-01
     -4.788  0.6003E-02  0.9979E-01
     -4.695  0.0000E+00  0.1000E+00
     -4.603  0.0000E+00  0.1000E+00
     -4.511  0.0000E+00  0.1000E+00
     -4.419  0.0000E+00  0.1000E+00
     -4.326  0.0000E+00  0.1000E+00
     -4.234  0.0000E+00  0.1000E+00
     -4.142  0.0000E+00  0.1000E+00
     -4.050  0.0000E+00  0.1000E+00
     -3.957  0.0000E+00  0.1000E+00
     -3.865  0.1287E-03  0.1000E+00
     -3.773  0.5760E-02  0.1003E+00
     -3.680  0.1237E-01  0.1011E+00
     -3.588  0.2676E-01  0.1028E+00
     -3.496  0.7565E-01  0.1072E+00
     -3.404  0.5575E-01  0.1147E+00
     -3.311  0.2426E-01  0.1179E+00
     -3.219  0.1552E-01  0.1197E+00
     -3.127  0.0000E+00  0.1200E+00
     -3.034  0.0000E+00  0.1200E+00
     -2.942  0.0000E+00  0.1200E+00
     -2.850  0.0000E+00  0.1200E+00
     -2.758  0.0000E+00  0.1200E+00
     -2.665  0.0000E+00  0.1200E+00
     -2.573  0.0000E+00  0.1200E+00
     -2.481  0.0000E+00  0.1200E+00
     -2.389  0.0000E+00  0.1200E+00
     -2.296  0.0000E+00  0.1200E+00
     -2.204  0.0000E+00  0.1200E+00
     -2.112  0.0000E+00  0.1200E+00
     -2.019  0.0000E+00  0.1200E+00
     -1.927  0.0000E+00  0.1200E+00
     -1.835  0.0000E+00  0.1200E+00
     -1.743  0.0000E+00  0.1200E+00
     -1.650  0.0000E+00  0.1200E+00
     -1.558  0.0000E+00  0.1200E+00
     -1.466  0.0000E+00  0.1200E+00
     -1.373  0.0000E+00  0.1200E+00
     -1.281  0.0000E+00  0.1200E+00
     -1.189  0.0000E+00  0.1200E+00
     -1.097  0.0000E+00  0.1200E+00
     -1.004  0.0000E+00  0.1200E+00
     -0.912  0.0000E+00  0.1200E+00
     -0.820  0.0000E+00  0.1200E+00
     -0.728  0.0000E+00  0.1200E+00
     -0.635  0.0000E+00  0.1200E+00
     -0.543  0.0000E+00  0.1200E+00
     -0.451  0.0000E+00  0.1200E+00
     -0.358  0.0000E+00  0.1200E+00
     -0.266  0.0000E+00  0.1200E+00
     -0.174  0.0000E+00  0.1200E+00
     -0.082  0.0000E+00  0.1200E+00
      0.011  0.0000E+00  0.1200E+00
      0.103  0.0000E+00  0.1200E+00
      0.195  0.0000E+00  0.1200E+00
      0.288  0.0000E+00  0.1200E+00
      0.380  0.0000E+00  0.1200E+00
      0.472  0.0000E+00  0.1200E+00
      0.564  0.0000E+00  0.1200E+00
      0.657  0.0000E+00  0.1200E+00
      0.749  0.0000E+00  0.1200E+00
      0.841  0.0000E+00  0.1200E+00
      0.933  0.0000E+00  0.1200E+00
      1.026  0.0000E+00  0.1200E+00
      1.118  0.0000E+00  0.1200E+00
      1.210  0.0000E+00  0.1200E+00
      1.303  0.2145E-02  0.1200E+00
      1.395  0.4188E-02  0.1203E+00
      1.487  0.5595E-02  0.1208E+00
      1.579  0.7018E-02  0.1214E+00
      1.672  0.8378E-02  0.1221E+00
      1.764  0.1013E-01  0.1230E+00
      1.856  0.1257E-01  0.1240E+00
      1.949  0.1502E-01  0.1253E+00
      2.041  0.1577E-01  0.1268E+00
      2.133  0.1685E-01  0.1283E+00
      2.225  0.1848E-01  0.1299E+00
      2.318  0.2286E-01  0.1318E+00
      2.410  0.2450E-01  0.1340E+00
      2.502  0.2573E-01  0.1363E+00
      2.594  0.2294E-01  0.1385E+00
      2.687  0.7461E-02  0.1397E+00
      2.779  0.2978E-05  0.1400E+00
      2.871  0.0000E+00  0.1400E+00
      2.964  0.0000E+00  0.1400E+00
      3.056  0.0000E+00  0.1400E+00
      3.148  0.0000E+00  0.1400E+00
      3.240  0.0000E+00  0.1400E+00
      3.333  0.1205E-02  0.1400E+00
      3.425  0.4604E-02  0.1404E+00
      3.517  0.5049E-02  0.1408E+00
      3.610  0.5574E-02  0.1413E+00
      3.702  0.6161E-02  0.1419E+00
      3.794  0.6704E-02  0.1425E+00
      3.886  0.7437E-02  0.1431E+00
      3.979  0.8383E-02  0.1438E+00
      4.071  0.9176E-02  0.1447E+00
      4.163  0.1002E-01  0.1455E+00
      4.255  0.1154E-01  0.1465E+00
      4.348  0.1368E-01  0.1477E+00
      4.440  0.1676E-01  0.1491E+00
      4.532  0.2126E-01  0.1508E+00
      4.625  0.2429E-01  0.1530E+00
      4.717  0.2164E-01  0.1551E+00
      4.809  0.1594E-01  0.1569E+00
      4.901  0.1234E-01  0.1582E+00
      4.994  0.9771E-02  0.1592E+00
      5.086  0.1028E-01  0.1601E+00
      5.178  0.1128E-01  0.1611E+00
      5.271  0.1215E-01  0.1622E+00
      5.363  0.1354E-01  0.1634E+00
      5.455  0.1717E-01  0.1649E+00
      5.547  0.1656E-01  0.1665E+00
      5.640  0.1721E-01  0.1680E+00
      5.732  0.1758E-01  0.1696E+00
      5.824  0.2024E-01  0.1714E+00
      5.916  0.2085E-01  0.1733E+00
      6.009  0.1744E-01  0.1751E+00
      6.101  0.1430E-01  0.1765E+00
      6.193  0.1235E-01  0.1777E+00
      6.286  0.1251E-01  0.1789E+00
      6.378  0.9925E-02  0.1799E+00
      6.470  0.1051E-01  0.1808E+00
      6.562  0.1309E-01  0.1820E+00
      6.655  0.1284E-01  0.1831E+00
      6.747  0.1268E-01  0.1843E+00
      6.839  0.9465E-02  0.1853E+00
      6.932  0.8802E-02  0.1862E+00
      7.024  0.1073E-01  0.1871E+00
      7.116  0.7923E-02  0.1879E+00
      7.208  0.6887E-02  0.1886E+00
      7.301  0.5220E-02  0.1892E+00
      7.393  0.2387E-02  0.1895E+00
      7.485  0.1561E-02  0.1897E+00
      7.577  0.1208E-02  0.1898E+00
      7.670  0.7815E-03  0.1899E+00
      7.762  0.4785E-03  0.1900E+00
      7.854  0.2281E-03  0.1900E+00
      7.947  0.1841E-04  0.1900E+00
      8.039  0.0000E+00  0.1900E+00
      8.131  0.0000E+00  0.1900E+00
      8.223  0.0000E+00  0.1900E+00
      8.316  0.0000E+00  0.1900E+00
      8.408  0.0000E+00  0.1900E+00
      8.500  0.0000E+00  0.1900E+00
      8.593  0.0000E+00  0.1900E+00
      8.685  0.0000E+00  0.1900E+00
      8.777  0.0000E+00  0.1900E+00
      8.869  0.0000E+00  0.1900E+00
      8.962  0.0000E+00  0.1900E+00
      9.054  0.0000E+00  0.1900E+00
      9.146  0.0000E+00  0.1900E+00
      9.238  0.0000E+00  0.1900E+00
      9.331  0.0000E+00  0.1900E+00
      9.423  0.0000E+00  0.1900E+00
      9.515  0.0000E+00  0.1900E+00
      9.608  0.0000E+00  0.1900E+00
      9.700  0.0000E+00  0.1900E+00
      9.792  0.0000E+00  0.1900E+00
      9.884  0.0000E+00  0.1900E+00
      9.977  0.0000E+00  0.1900E+00
