   12   12  200    1
  0.1041962E+02  0.4804181E-09  0.6372692E-09  0.4084047E-09  0.5000000E-15
  1.000000000000000E-004
  CAR 
 ethylene                                
     24    350     19
