   12   12  200    1
  0.1041962E+02  0.4804181E-09  0.6372692E-09  0.4084047E-09  0.5000000E-15
  1.000000000000000E-004
  CAR 
 ethylene                                
     24    350     19
 
  0.0000000E+00  0.0000000E+00  0.0000000E+00  0.8680556E-03
    1      -15.706602
    2      -15.410947
    3      -10.853399
    4      -10.848945
    5       -7.906559
    6       -7.834450
    7       -7.220667
    8       -6.847094
    9       -5.166954
   10       -4.717256
   11       -3.496489
   12       -3.211157
   13        1.262071
   14        2.632880
   15        3.324366
   16        4.620149
   17        5.852029
   18        6.923073
   19        7.068288
 
  0.8333333E-01  0.0000000E+00  0.0000000E+00  0.1736111E-02
    1      -15.698574
    2      -15.412357
    3      -10.868499
    4      -10.861340
    5       -7.911272
    6       -7.832862
    7       -7.195052
    8       -6.835739
    9       -5.170628
   10       -4.733904
   11       -3.493156
   12       -3.224312
   13        1.314666
   14        2.653441
   15        3.328340
   16        4.633919
   17        5.880806
   18        6.610439
   19        6.968660
 
  0.1666667E+00  0.0000000E+00  0.0000000E+00  0.1736111E-02
    1      -15.675489
    2      -15.417290
    3      -10.908837
    4      -10.895593
    5       -7.919265
    6       -7.829329
    7       -7.127672
    8       -6.807363
    9       -5.178303
   10       -4.780783
   11       -3.484668
   12       -3.259892
   13        1.465116
   14        2.702268
   15        3.353709
   16        4.674064
   17        5.959393
   18        6.063725
   19        6.692157
 
  0.2500000E+00  0.0000000E+00  0.0000000E+00  0.1736111E-02
    1      -15.640208
    2      -15.427579
    3      -10.961613
    4      -10.943490
    5       -7.919872
    6       -7.827127
    7       -7.038209
    8       -6.776261
    9       -5.181297
   10       -4.849687
   11       -3.474000
   12       -3.308111
   13        1.692610
   14        2.742642
   15        3.434140
   16        4.733931
   17        5.529205
   18        6.053775
   19        6.331179
 
  0.3333333E+00  0.0000000E+00  0.0000000E+00  0.1736111E-02
    1      -15.597107
    2      -15.445441
    3      -11.011109
    4      -10.993350
    5       -7.908220
    6       -7.830408
    7       -6.945359
    8       -6.758537
    9       -5.169584
   10       -4.929924
   11       -3.462786
   12       -3.357604
   13        1.965213
   14        2.732530
   15        3.596435
   16        4.757387
   17        5.110947
   18        5.863066
   19        6.259159
 
  0.4166667E+00  0.0000000E+00  0.0000000E+00  0.1736111E-02
    1      -15.551474
    2      -15.472450
    3      -11.043708
    4      -11.032710
    5       -7.886813
    6       -7.842219
    7       -6.863142
    8       -6.765553
    9       -5.136659
   10       -5.010628
   11       -3.449451
   12       -3.399488
   13        2.242496
   14        2.648121
   15        3.837427
   16        4.493396
   17        5.080532
   18        5.524228
   19        6.386596
 
  0.5000000E+00  0.0000000E+00  0.0000000E+00  0.8680556E-03
    1      -15.508536
    2      -15.508535
    3      -11.051298
    4      -11.051297
    5       -7.862441
    6       -7.862440
    7       -6.801164
    8       -6.801163
    9       -5.082127
   10       -5.082127
   11       -3.429750
   12       -3.429750
   13        2.481192
   14        2.481193
   15        4.142310
   16        4.142310
   17        5.256822
   18        5.256823
   19        6.512888
 
  0.0000000E+00  0.8333333E-01  0.0000000E+00  0.1736111E-02
    1      -15.701855
    2      -15.416304
    3      -10.852577
    4      -10.848218
    5       -7.908700
    6       -7.840018
    7       -7.211515
    8       -6.851510
    9       -5.159751
   10       -4.725475
   11       -3.488876
   12       -3.212616
   13        1.281687
   14        2.609298
   15        3.329153
   16        4.592437
   17        5.852930
   18        6.931881
   19        7.067540
 
  0.8333333E-01  0.8333333E-01  0.0000000E+00  0.3472222E-02
    1      -15.693957
    2      -15.417520
    3      -10.868703
    4      -10.859985
    5       -7.913488
    6       -7.836901
    7       -7.186882
    8       -6.840217
    9       -5.163326
   10       -4.741318
   11       -3.487039
   12       -3.225812
   13        1.333690
   14        2.631095
   15        3.332817
   16        4.607796
   17        5.880664
   18        6.616054
   19        6.976367
 
  0.1666667E+00  0.8333333E-01  0.0000000E+00  0.3472222E-02
    1      -15.671264
    2      -15.421871
    3      -10.909970
    4      -10.894356
    5       -7.920712
    6       -7.830699
    7       -7.121613
    8       -6.811851
    9       -5.170784
   10       -4.786029
   11       -3.482442
   12       -3.261594
   13        1.482505
   14        2.684266
   15        3.356765
   16        4.651868
   17        5.959020
   18        6.073261
   19        6.679895
 
  0.2500000E+00  0.8333333E-01  0.0000000E+00  0.3472222E-02
    1      -15.636636
    2      -15.431242
    3      -10.963287
    4      -10.943095
    5       -7.919683
    6       -7.826426
    7       -7.034296
    8       -6.780480
    9       -5.173725
   10       -4.852114
   11       -3.476687
   12       -3.310443
   13        1.707604
   14        2.732529
   15        3.434229
   16        4.718097
   17        5.536360
   18        6.073835
   19        6.286303
 
  0.3333333E+00  0.8333333E-01  0.0000000E+00  0.3472222E-02
    1      -15.594443
    2      -15.447923
    3      -11.013098
    4      -10.993960
    5       -7.906397
    6       -7.828321
    7       -6.943245
    8       -6.762012
    9       -5.162383
   10       -4.929508
   11       -3.469590
   12       -3.361309
   13        1.977406
   14        2.730816
   15        3.594814
   16        4.763810
   17        5.096446
   18        5.866006
   19        6.235085
 
  0.4166667E+00  0.8333333E-01  0.0000000E+00  0.3472222E-02
    1      -15.549939
    2      -15.473592
    3      -11.045806
    4      -11.034142
    5       -7.883930
    6       -7.839295
    7       -6.862564
    8       -6.767841
    9       -5.130362
   10       -5.007733
   11       -3.458120
   12       -3.405322
   13        2.251856
   14        2.651826
   15        3.838864
   16        4.512105
   17        5.052196
   18        5.512688
   19        6.391537
 
  0.5000000E+00  0.8333333E-01  0.0000000E+00  0.1736111E-02
    1      -15.508304
    2      -15.508303
    3      -11.053232
    4      -11.053232
    5       -7.859214
    6       -7.859214
    7       -6.802055
    8       -6.802054
    9       -5.077262
   10       -5.077262
   11       -3.437740
   12       -3.437740
   13        2.487951
   14        2.487951
   15        4.151285
   16        4.151285
   17        5.236883
   18        5.236884
   19        6.545828
 
  0.0000000E+00  0.1666667E+00  0.0000000E+00  0.1736111E-02
    1      -15.687881
    2      -15.431941
    3      -10.850310
    4      -10.846259
    5       -7.914383
    6       -7.854973
    7       -7.185747
    8       -6.864891
    9       -5.138526
   10       -4.749428
   11       -3.467062
   12       -3.217760
   13        1.339871
   14        2.536766
   15        3.351047
   16        4.506909
   17        5.870953
   18        6.946038
   19        7.076516
 
  0.8333333E-01  0.1666667E+00  0.0000000E+00  0.3472222E-02
    1      -15.680374
    2      -15.432585
    3      -10.868319
    4      -10.857223
    5       -7.918947
    6       -7.848288
    7       -7.163563
    8       -6.853682
    9       -5.141843
   10       -4.763106
   11       -3.469064
   12       -3.231162
   13        1.390184
   14        2.561448
   15        3.354769
   16        4.526041
   17        5.894813
   18        6.629244
   19        7.004337
 
  0.1666667E+00  0.1666667E+00  0.0000000E+00  0.3472222E-02
    1      -15.658842
    2      -15.435264
    3      -10.911675
    4      -10.892381
    5       -7.923498
    6       -7.835733
    7       -7.103828
    8       -6.825268
    9       -5.148821
   10       -4.801984
   11       -3.474652
   12       -3.267820
   13        1.534285
   14        2.624980
   15        3.377347
   16        4.579679
   17        5.964585
   18        6.098906
   19        6.678313
 
  0.2500000E+00  0.1666667E+00  0.0000000E+00  0.3472222E-02
    1      -15.626153
    2      -15.441978
    3      -10.966660
    4      -10.943222
    5       -7.917913
    6       -7.825940
    7       -7.022452
    8       -6.792995
    9       -5.151763
   10       -4.860202
   11       -3.481844
   12       -3.318870
   13        1.752478
   14        2.693738
   15        3.449135
   16        4.660692
   17        5.562543
   18        6.058363
   19        6.284016
 
  0.3333333E+00  0.1666667E+00  0.0000000E+00  0.3472222E-02
    1      -15.586641
    2      -15.455230
    3      -11.017705
    4      -10.996452
    5       -7.900441
    6       -7.823700
    7       -6.936622
    8       -6.772235
    9       -5.141624
   10       -4.929365
   11       -3.485923
   12       -3.373755
   13        2.014079
   14        2.717377
   15        3.604084
   16        4.754516
   17        5.079546
   18        5.817757
   19        6.270504
 
  0.4166667E+00  0.1666667E+00  0.0000000E+00  0.3472222E-02
    1      -15.545478
    2      -15.476992
    3      -11.051111
    4      -11.038469
    5       -7.875505
    6       -7.831843
    7       -6.860590
    8       -6.774521
    9       -5.112412
   10       -5.000193
   11       -3.480345
   12       -3.423067
   13        2.279715
   14        2.657843
   15        3.852438
   16        4.563314
   17        4.973115
   18        5.462661
   19        6.450049
 
  0.5000000E+00  0.1666667E+00  0.0000000E+00  0.1736111E-02
    1      -15.507668
    2      -15.507667
    3      -11.058503
    4      -11.058503
    5       -7.850375
    6       -7.850375
    7       -6.804506
    8       -6.804505
    9       -5.063728
   10       -5.063728
   11       -3.459771
   12       -3.459771
   13        2.506337
   14        2.506338
   15        4.180173
   16        4.180173
   17        5.175738
   18        5.175739
   19        6.643540
 
  0.0000000E+00  0.2500000E+00  0.0000000E+00  0.1736111E-02
    1      -15.665488
    2      -15.456600
    3      -10.847127
    4      -10.843658
    5       -7.921467
    6       -7.875122
    7       -7.147423
    8       -6.887350
    9       -5.104435
   10       -4.787022
   11       -3.433787
   12       -3.228462
   13        1.434622
   14        2.416085
   15        3.404216
   16        4.365299
   17        5.933867
   18        6.928474
   19        7.110177
 
  0.8333333E-01  0.2500000E+00  0.0000000E+00  0.3472222E-02
    1      -15.658615
    2      -15.456361
    3      -10.866518
    4      -10.854730
    5       -7.924746
    6       -7.864995
    7       -7.128182
    8       -6.876137
    9       -5.107501
   10       -4.797875
   11       -3.440594
   12       -3.242372
   13        1.482333
   14        2.443903
   15        3.409865
   16        4.387962
   17        5.950288
   18        6.638220
   19        7.051726
 
  0.1666667E+00  0.2500000E+00  0.0000000E+00  0.3472222E-02
    1      -15.638986
    2      -15.456452
    3      -10.911969
    4      -10.891752
    5       -7.924344
    6       -7.845762
    7       -7.075619
    8       -6.847347
    9       -5.114123
   10       -4.828931
   11       -3.459102
   12       -3.280899
   13        1.619160
   14        2.518943
   15        3.435911
   16        4.451188
   17        5.990220
   18        6.135578
   19        6.720517
 
  0.2500000E+00  0.2500000E+00  0.0000000E+00  0.3472222E-02
    1      -15.609439
    2      -15.459034
    3      -10.969241
    4      -10.945440
    5       -7.912295
    6       -7.828865
    7       -7.002646
    8       -6.813255
    9       -5.117554
   10       -4.875888
   11       -3.483164
   12       -3.335742
   13        1.826640
   14        2.612908
   15        3.506389
   16        4.546911
   17        5.609677
   18        5.971663
   19        6.419061
 
  0.3333333E+00  0.2500000E+00  0.0000000E+00  0.3472222E-02
    1      -15.574271
    2      -15.466927
    3      -11.022440
    4      -11.001402
    5       -7.889742
    6       -7.820193
    7       -6.924941
    8       -6.788605
    9       -5.109844
   10       -4.932466
   11       -3.502922
   12       -3.396230
   13        2.075010
   14        2.675259
   15        3.653214
   16        4.673296
   17        5.108174
   18        5.703609
   19        6.427608
 
  0.4166667E+00  0.2500000E+00  0.0000000E+00  0.3472222E-02
    1      -15.538487
    2      -15.482531
    3      -11.057502
    4      -11.045182
    5       -7.862570
    6       -7.823132
    7       -6.856558
    8       -6.784989
    9       -5.085614
   10       -4.991253
   11       -3.507644
   12       -3.451143
   13        2.324851
   14        2.654233
   15        3.897716
   16        4.637319
   17        4.851301
   18        5.364993
   19        6.593982
 
  0.5000000E+00  0.2500000E+00  0.0000000E+00  0.1736111E-02
    1      -15.506797
    2      -15.506797
    3      -11.065668
    4      -11.065668
    5       -7.838280
    6       -7.838280
    7       -6.807930
    8       -6.807929
    9       -5.044618
   10       -5.044618
   11       -3.490413
   12       -3.490412
   13        2.531218
   14        2.531219
   15        4.233409
   16        4.233409
   17        5.073793
   18        5.073793
   19        6.799629
 
  0.0000000E+00  0.3333333E+00  0.0000000E+00  0.1736111E-02
    1      -15.636001
    2      -15.488352
    3      -10.843774
    4      -10.841211
    5       -7.927143
    6       -7.895709
    7       -7.101334
    8       -6.918582
    9       -5.059472
   10       -4.835226
   11       -3.393161
   12       -3.246721
   13        1.562407
   14        2.257501
   15        3.497000
   16        4.183653
   17        6.054980
   18        6.832551
   19        7.173130
 
  0.8333333E-01  0.3333333E+00  0.0000000E+00  0.3472222E-02
    1      -15.629981
    2      -15.487011
    3      -10.863430
    4      -10.853524
    5       -7.927657
    6       -7.884050
    7       -7.084788
    8       -6.907185
    9       -5.062498
   10       -4.843320
   11       -3.404292
   12       -3.261415
   13        1.606880
   14        2.288305
   15        3.506558
   16        4.207616
   17        6.059492
   18        6.617658
   19        7.104972
 
  0.1666667E+00  0.3333333E+00  0.0000000E+00  0.3472222E-02
    1      -15.612908
    2      -15.483856
    3      -10.910137
    4      -10.893268
    5       -7.920504
    6       -7.860640
    7       -7.039264
    8       -6.877343
    9       -5.069398
   10       -4.866380
   11       -3.434665
   12       -3.302447
   13        1.734595
   14        2.374095
   15        3.541598
   16        4.275285
   17        6.042624
   18        6.171181
   19        6.805440
 
  0.2500000E+00  0.3333333E+00  0.0000000E+00  0.3472222E-02
    1      -15.587599
    2      -15.481229
    3      -10.969537
    4      -10.949976
    5       -7.901603
    6       -7.837332
    7       -6.975589
    8       -6.840310
    9       -5.074474
   10       -4.901022
   11       -3.475174
   12       -3.361516
   13        1.928301
   14        2.492010
   15        3.618225
   16        4.379343
   17        5.668500
   18        5.896667
   19        6.619070
 
  0.3333333E+00  0.3333333E+00  0.0000000E+00  0.3472222E-02
    1      -15.558233
    2      -15.482289
    3      -11.025282
    4      -11.008222
    5       -7.874849
    6       -7.821187
    7       -6.907902
    8       -6.810006
    9       -5.070992
   10       -4.942522
   11       -3.511997
   12       -3.426751
   13        2.158619
   14        2.597130
   15        3.759449
   16        4.517783
   17        5.178696
   18        5.580460
   19        6.657953
 
  0.4166667E+00  0.3333333E+00  0.0000000E+00  0.3472222E-02
    1      -15.529579
    2      -15.489985
    3      -11.062813
    4      -11.052912
    5       -7.847248
    6       -7.816844
    7       -6.849785
    8       -6.798229
    9       -5.054435
   10       -4.985592
   11       -3.530686
   12       -3.484444
   13        2.384190
   14        2.630495
   15        3.989463
   16        4.674902
   17        4.745591
   18        5.237957
   19        6.806156
 
  0.5000000E+00  0.3333333E+00  0.0000000E+00  0.1736111E-02
    1      -15.505922
    2      -15.505922
    3      -11.072790
    4      -11.072789
    5       -7.826145
    6       -7.826144
    7       -6.811421
    8       -6.811420
    9       -5.024714
   10       -5.024714
   11       -3.521730
   12       -3.521730
   13        2.555782
   14        2.555782
   15        4.313937
   16        4.313937
   17        4.940304
   18        4.940304
   19        6.995394
 
  0.0000000E+00  0.4166667E+00  0.0000000E+00  0.1736111E-02
    1      -15.601209
    2      -15.524799
    3      -10.841052
    4      -10.839684
    5       -7.928694
    6       -7.912882
    7       -7.051932
    8       -6.957715
    9       -5.006468
   10       -4.890461
   11       -3.349964
   12       -3.273683
   13        1.717793
   14        2.077584
   15        3.629551
   16        3.986462
   17        6.228934
   18        6.654268
   19        7.263515
 
  0.8333333E-01  0.4166667E+00  0.0000000E+00  0.3472222E-02
    1      -15.596230
    2      -15.522240
    3      -10.859735
    4      -10.854084
    5       -7.925283
    6       -7.902220
    7       -7.037511
    8       -6.945794
    9       -5.009842
   10       -4.896307
   11       -3.364022
   12       -3.289061
   13        1.758702
   14        2.111497
   15        3.644001
   16        4.009067
   17        6.213317
   18        6.533929
   19        7.155190
 
  0.1666667E+00  0.4166667E+00  0.0000000E+00  0.3472222E-02
    1      -15.582268
    2      -15.515472
    3      -10.906396
    4      -10.896804
    5       -7.910882
    6       -7.878424
    7       -6.997927
    8       -6.913943
    9       -5.018165
   10       -4.912587
   11       -3.402724
   12       -3.332035
   13        1.876219
   14        2.207748
   15        3.690702
   16        4.074514
   17        6.108957
   18        6.185568
   19        6.925807
 
  0.2500000E+00  0.4166667E+00  0.0000000E+00  0.3472222E-02
    1      -15.562077
    2      -15.507008
    3      -10.967051
    4      -10.956009
    5       -7.886341
    6       -7.851228
    7       -6.943052
    8       -6.872527
    9       -5.026741
   10       -4.935985
   11       -3.455798
   12       -3.393591
   13        2.053770
   14        2.347354
   15        3.777916
   16        4.178745
   17        5.728828
   18        5.839212
   19        6.855392
 
  0.3333333E+00  0.4166667E+00  0.0000000E+00  0.3472222E-02
    1      -15.539681
    2      -15.500353
    3      -11.025069
    4      -11.015505
    5       -7.857721
    6       -7.828347
    7       -6.886082
    8       -6.834842
    9       -5.030057
   10       -4.962345
   11       -3.507720
   12       -3.460077
   13        2.261010
   14        2.492056
   15        3.918120
   16        4.320673
   17        5.267255
   18        5.467676
   19        6.924049
 
  0.4166667E+00  0.4166667E+00  0.0000000E+00  0.3472222E-02
    1      -15.519505
    2      -15.498999
    3      -11.065384
    4      -11.059858
    5       -7.832500
    6       -7.815851
    7       -6.839912
    8       -6.812862
    9       -5.024422
   10       -4.987913
   11       -3.541635
   12       -3.515424
   13        2.452410
   14        2.584532
   15        4.128842
   16        4.496412
   17        4.846004
   18        5.101865
   19        7.047874
 
  0.5000000E+00  0.4166667E+00  0.0000000E+00  0.1736111E-02
    1      -15.505281
    2      -15.505281
    3      -11.077979
    4      -11.077979
    5       -7.817259
    6       -7.817259
    7       -6.814038
    8       -6.814038
    9       -5.009603
   10       -5.009603
   11       -3.545157
   12       -3.545156
   13        2.573513
   14        2.573513
   15        4.415271
   16        4.415271
   17        4.798077
   18        4.798077
   19        7.186089
 
  0.0000000E+00  0.5000000E+00  0.0000000E+00  0.8680556E-03
    1      -15.563308
    2      -15.563307
    3      -10.839591
    4      -10.839591
    5       -7.924162
    6       -7.924161
    7       -7.003010
    8       -7.003010
    9       -4.948859
   10       -4.948859
   11       -3.308870
   12       -3.308869
   13        1.893053
   14        1.893053
   15        3.796258
   16        3.796258
   17        6.438319
   18        6.438319
   19        7.376455
 
  0.8333333E-01  0.5000000E+00  0.0000000E+00  0.1736111E-02
    1      -15.559503
    2      -15.559502
    3      -10.856337
    4      -10.856337
    5       -7.916604
    6       -7.916604
    7       -6.990104
    8       -6.990103
    9       -4.953136
   10       -4.953136
   11       -3.324231
   12       -3.324231
   13        1.930361
   14        1.930361
   15        3.815401
   16        3.815401
   17        6.385502
   18        6.385502
   19        7.207039
 
  0.1666667E+00  0.5000000E+00  0.0000000E+00  0.1736111E-02
    1      -15.549049
    2      -15.549048
    3      -10.901565
    4      -10.901565
    5       -7.896160
    6       -7.896160
    7       -6.955059
    8       -6.955058
    9       -4.964489
   10       -4.964489
   11       -3.366929
   12       -3.366928
   13        2.037232
   14        2.037232
   15        3.873140
   16        3.873140
   17        6.163715
   18        6.163715
   19        7.071177
 
  0.2500000E+00  0.5000000E+00  0.0000000E+00  0.1736111E-02
    1      -15.534591
    2      -15.534590
    3      -10.962182
    4      -10.962181
    5       -7.868566
    6       -7.868565
    7       -6.907700
    8       -6.907699
    9       -4.979069
   10       -4.979069
   11       -3.426987
   12       -3.426987
   13        2.196684
   14        2.196684
   15        3.970810
   16        3.970810
   17        5.785747
   18        5.785748
   19        7.096709
 
  0.3333333E+00  0.5000000E+00  0.0000000E+00  0.1736111E-02
    1      -15.519924
    2      -15.519923
    3      -11.021578
    4      -11.021577
    5       -7.841231
    6       -7.841231
    7       -6.860979
    8       -6.860979
    9       -4.992337
   10       -4.992337
   11       -3.489211
   12       -3.489211
   13        2.375491
   14        2.375491
   15        4.112343
   16        4.112343
   17        5.364105
   18        5.364105
   19        7.180151
 
  0.4166667E+00  0.5000000E+00  0.0000000E+00  0.1736111E-02
    1      -15.509058
    2      -15.509057
    3      -11.064359
    4      -11.064359
    5       -7.821295
    6       -7.821295
    7       -6.827260
    8       -6.827259
    9       -5.001020
   10       -5.001020
   11       -3.536275
   12       -3.536275
   13        2.522154
   14        2.522155
   15        4.304310
   16        4.304310
   17        4.968752
   18        4.968752
   19        7.250184
 
  0.5000000E+00  0.5000000E+00  0.0000000E+00  0.8680556E-03
    1      -15.505043
    2      -15.505043
    3      -11.079870
    4      -11.079870
    5       -7.813992
    6       -7.813992
    7       -6.814997
    8       -6.814997
    9       -5.003940
   10       -5.003940
   11       -3.553831
   12       -3.553830
   13        2.579944
   14        2.579944
   15        4.483343
   16        4.483343
   17        4.714671
   18        4.714671
   19        7.275897
 
  0.0000000E+00  0.0000000E+00  0.1250000E+00  0.1736111E-02
    1      -15.679939
    2      -15.404850
    3      -10.838487
    4      -10.832733
    5       -8.002450
    6       -7.919543
    7       -7.153762
    8       -6.837460
    9       -5.190254
   10       -4.774179
   11       -3.515699
   12       -3.220159
   13        1.277941
   14        2.582479
   15        3.420133
   16        4.731260
   17        5.766056
   18        6.661023
   19        6.934126
 
  0.8333333E-01  0.0000000E+00  0.1250000E+00  0.1736111E-02
    1      -15.671186
    2      -15.406551
    3      -10.855758
    4      -10.847046
    5       -8.027157
    6       -7.925392
    7       -7.084125
    8       -6.834012
    9       -5.140222
   10       -4.800233
   11       -3.508130
   12       -3.287082
   13        1.304372
   14        2.604031
   15        3.352246
   16        4.680317
   17        5.815737
   18        6.422445
   19        7.167296
 
  0.1666667E+00  0.0000000E+00  0.1250000E+00  0.1736111E-02
    1      -15.648150
    2      -15.411217
    3      -10.899257
    4      -10.880256
    5       -8.037602
    6       -7.924929
    7       -6.994210
    8       -6.815497
    9       -5.104156
   10       -4.860046
   11       -3.494272
   12       -3.370573
   13        1.423992
   14        2.664039
   15        3.319055
   16        4.680659
   17        5.895437
   18        6.096545
   19        7.019687
 
  0.2500000E+00  0.0000000E+00  0.1250000E+00  0.1736111E-02
    1      -15.613733
    2      -15.420688
    3      -10.953895
    4      -10.925904
    5       -8.028692
    6       -7.919892
    7       -6.900682
    8       -6.796592
    9       -5.081022
   10       -4.947313
   11       -3.473214
   12       -3.453043
   13        1.619502
   14        2.739448
   15        3.340218
   16        4.733504
   17        5.752488
   18        5.983718
   19        6.693250
 
  0.3333333E+00  0.0000000E+00  0.1250000E+00  0.1736111E-02
    1      -15.572297
    2      -15.437196
    3      -11.007407
    4      -10.969025
    5       -8.002119
    6       -7.913630
    7       -6.816840
    8       -6.793569
    9       -5.064237
   10       -5.050592
   11       -3.519151
   12       -3.445045
   13        1.865675
   14        2.780421
   15        3.445084
   16        4.832794
   17        5.387262
   18        6.023451
   19        6.442905
 
  0.4166667E+00  0.0000000E+00  0.1250000E+00  0.1736111E-02
    1      -15.529031
    2      -15.462314
    3      -11.047401
    4      -10.996674
    5       -7.964993
    6       -7.909783
    7       -6.817628
    8       -6.751822
    9       -5.155849
   10       -5.044990
   11       -3.560006
   12       -3.409271
   13        2.129577
   14        2.734016
   15        3.654188
   16        4.913715
   17        5.081064
   18        5.922841
   19        6.287990
 
  0.5000000E+00  0.0000000E+00  0.1250000E+00  0.1736111E-02
    1      -15.496038
    2      -15.488989
    3      -11.064193
    4      -11.001291
    5       -7.927250
    6       -7.910637
    7       -6.871143
    8       -6.710947
    9       -5.248574
   10       -5.016195
   11       -3.574761
   12       -3.365052
   13        2.371686
   14        2.583065
   15        3.956919
   16        4.620335
   17        5.221013
   18        5.738841
   19        6.181351
 
 -0.4166667E+00  0.0000000E+00  0.1250000E+00  0.1736111E-02
    1      -15.536278
    2      -15.456041
    3      -11.053178
    4      -10.982115
    5       -7.916195
    6       -7.898353
    7       -6.947843
    8       -6.696566
    9       -5.315548
   10       -4.974873
   11       -3.569557
   12       -3.313267
   13        2.344084
   14        2.553693
   15        4.294688
   16        4.330037
   17        5.500074
   18        5.562895
   19        6.090833
 
 -0.3333333E+00  0.0000000E+00  0.1250000E+00  0.1736111E-02
    1      -15.579086
    2      -15.432092
    3      -11.016308
    4      -10.944826
    5       -7.924813
    6       -7.883974
    7       -7.035232
    8       -6.708159
    9       -5.347153
   10       -4.922874
   11       -3.554171
   12       -3.258724
   13        2.056259
   14        2.653242
   15        4.012225
   16        4.735118
   17        5.429032
   18        5.837844
   19        6.038193
 
 -0.2500000E+00  0.0000000E+00  0.1250000E+00  0.1736111E-02
    1      -15.619437
    2      -15.416926
    3      -10.962219
    4      -10.899767
    5       -7.935629
    6       -7.884180
    7       -7.116471
    8       -6.740601
    9       -5.340939
   10       -4.866567
   11       -3.537943
   12       -3.210870
   13        1.767601
   14        2.673876
   15        3.790123
   16        4.995383
   17        5.490366
   18        5.864358
   19        6.377921
 
 -0.1666667E+00  0.0000000E+00  0.1250000E+00  0.1736111E-02
    1      -15.652252
    2      -15.408787
    3      -10.904704
    4      -10.859252
    5       -7.950858
    6       -7.894370
    7       -7.172283
    8       -6.782574
    9       -5.303638
   10       -4.815705
   11       -3.526441
   12       -3.182062
   13        1.521898
   14        2.643101
   15        3.629089
   16        4.939942
   17        5.796095
   18        5.896543
   19        6.836227
 
 -0.8333333E-01  0.0000000E+00  0.1250000E+00  0.1736111E-02
    1      -15.673324
    2      -15.405372
    3      -10.859305
    4      -10.834466
    5       -7.973838
    6       -7.908058
    7       -7.186289
    8       -6.819007
    9       -5.248543
   10       -4.781495
   11       -3.520205
   12       -3.183518
   13        1.352190
   14        2.601174
   15        3.511618
   16        4.824833
   17        5.758589
   18        6.362503
   19        6.993041
 
  0.0000000E+00  0.8333333E-01  0.1250000E+00  0.3472222E-02
    1      -15.675481
    2      -15.409792
    3      -10.838236
    4      -10.831950
    5       -8.003777
    6       -7.922610
    7       -7.147830
    8       -6.841760
    9       -5.183282
   10       -4.781137
   11       -3.508792
   12       -3.222451
   13        1.296630
   14        2.559489
   15        3.428556
   16        4.706135
   17        5.756494
   18        6.710374