   12   12  200    1
  0.1041962E+02  0.4804181E-09  0.6372692E-09  0.4084047E-09  0.5000000E-15
  1.000000000000000E-004
  CAR 
 ethylene                                
     24    350     19
 
  0.0000000E+00  0.0000000E+00  0.0000000E+00  0.8680556E-03
    1      -15.704490
    2      -15.408662
    3      -10.851052
    4      -10.847043
    5       -7.902709
    6       -7.831346
    7       -7.220160
    8       -6.846196
    9       -5.165745
   10       -4.715091
   11       -3.495656
   12       -3.210290
   13        1.261703
   14        2.632185
   15        3.324009
   16        4.618531
   17        5.852063
   18        6.922110
   19        7.060282
 
  0.8333333E-01  0.0000000E+00  0.0000000E+00  0.1736111E-02
    1      -15.696458
    2      -15.410073
    3      -10.866171
    4      -10.859434
    5       -7.907526
    6       -7.829755
    7       -7.194456
    8       -6.834837
    9       -5.169387
   10       -4.731731
   11       -3.492331
   12       -3.223441
   13        1.314274
   14        2.652753
   15        3.327922
   16        4.632302
   17        5.880794
   18        6.608759
   19        6.961205
 
  0.1666667E+00  0.0000000E+00  0.0000000E+00  0.1736111E-02
    1      -15.673360
    2      -15.415007
    3      -10.906561
    4      -10.893673
    5       -7.915742
    6       -7.826215
    7       -7.126891
    8       -6.806454
    9       -5.176968
   10       -4.778590
   11       -3.483861
   12       -3.259015
   13        1.464662
   14        2.701605
   15        3.353125
   16        4.672460
   17        5.959206
   18        6.061673
   19        6.685986
 
  0.2500000E+00  0.0000000E+00  0.0000000E+00  0.1736111E-02
    1      -15.638058
    2      -15.425302
    3      -10.959406
    4      -10.941552
    5       -7.916562
    6       -7.824010
    7       -7.037272
    8       -6.775348
    9       -5.179805
   10       -4.847476
   11       -3.473213
   12       -3.307237
   13        1.692070
   14        2.742012
   15        3.433335
   16        4.732443
   17        5.526887
   18        6.052663
   19        6.326948
 
  0.3333333E+00  0.0000000E+00  0.0000000E+00  0.1736111E-02
    1      -15.594932
    2      -15.443175
    3      -11.008974
    4      -10.991390
    5       -7.905053
    6       -7.827297
    7       -6.944347
    8       -6.757618
    9       -5.167893
   10       -4.927717
   11       -3.462012
   12       -3.356747
   13        1.964588
   14        2.731899
   15        3.595438
   16        4.756586
   17        5.107787
   18        5.858815
   19        6.258743
 
  0.4166667E+00  0.0000000E+00  0.0000000E+00  0.1736111E-02
    1      -15.549271
    2      -15.470199
    3      -11.041636
    4      -11.030724
    5       -7.883715
    6       -7.839124
    7       -6.862128
    8       -6.764613
    9       -5.134766
   10       -5.008467
   11       -3.448674
   12       -3.398661
   13        2.241811
   14        2.647454
   15        3.836314
   16        4.492469
   17        5.077283
   18        5.520476
   19        6.386081
 
  0.5000000E+00  0.0000000E+00  0.0000000E+00  0.8680556E-03
    1      -15.506307
    2      -15.506307
    3      -11.049275
    4      -11.049275
    5       -7.859357
    6       -7.859357
    7       -6.800186
    8       -6.800185
    9       -5.080071
   10       -5.080070
   11       -3.428953
   12       -3.428953
   13        2.480495
   14        2.480496
   15        4.141181
   16        4.141181
   17        5.253476
   18        5.253477
   19        6.512144
 
  0.0000000E+00  0.8333333E-01  0.0000000E+00  0.1736111E-02
    1      -15.699741
    2      -15.414022
    3      -10.850236
    4      -10.846308
    5       -7.904877
    6       -7.836925
    7       -7.210981
    8       -6.850608
    9       -5.158518
   10       -4.723319
   11       -3.488045
   12       -3.211752
   13        1.281312
   14        2.608605
   15        3.328802
   16        4.590905
   17        5.852904
   18        6.930891
   19        7.059763
 
  0.8333333E-01  0.8333333E-01  0.0000000E+00  0.3472222E-02
    1      -15.691839
    2      -15.415238
    3      -10.866426
    4      -10.858026
    5       -7.909777
    6       -7.833785
    7       -7.186268
    8       -6.839312
    9       -5.162063
   10       -4.739154
   11       -3.486214
   12       -3.224945
   13        1.333293
   14        2.630407
   15        3.332407
   16        4.606255
   17        5.880606
   18        6.614244
   19        6.969127
 
  0.1666667E+00  0.8333333E-01  0.0000000E+00  0.3472222E-02
    1      -15.669132
    2      -15.419592
    3      -10.907735
    4      -10.892395
    5       -7.917221
    6       -7.827559
    7       -7.120832
    8       -6.810941
    9       -5.169428
   10       -4.783846
   11       -3.481632
   12       -3.260722
   13        1.482046
   14        2.683601
   15        3.356189
   16        4.650313
   17        5.958857
   18        6.071157
   19        6.673967
 
  0.2500000E+00  0.8333333E-01  0.0000000E+00  0.3472222E-02
    1      -15.634485
    2      -15.428967
    3      -10.961107
    4      -10.941133
    5       -7.916389
    6       -7.823281
    7       -7.033370
    8       -6.779568
    9       -5.172219
   10       -4.849915
   11       -3.475894
   12       -3.309575
   13        1.707061
   14        2.731898
   15        3.433426
   16        4.716599
   17        5.534079
   18        6.073192
   19        6.281782
 
  0.3333333E+00  0.8333333E-01  0.0000000E+00  0.3472222E-02
    1      -15.592266
    2      -15.445657
    3      -11.010981
    4      -10.991988
    5       -7.903231
    6       -7.825187
    7       -6.942247
    8       -6.761096
    9       -5.160684
   10       -4.927312
   11       -3.468807
   12       -3.360458
   13        1.976781
   14        2.730190
   15        3.593806
   16        4.762921
   17        5.093403
   18        5.861795
   19        6.234709
 
  0.4166667E+00  0.8333333E-01  0.0000000E+00  0.3472222E-02
    1      -15.547735
    2      -15.471342
    3      -11.043744
    4      -11.032152
    5       -7.880823
    6       -7.836179
    7       -6.861562
    8       -6.766908
    9       -5.128468
   10       -5.005580
   11       -3.457336
   12       -3.404498
   13        2.251176
   14        2.651167
   15        3.837722
   16        4.511124
   17        5.049040
   18        5.509060
   19        6.390930
 
  0.5000000E+00  0.8333333E-01  0.0000000E+00  0.1736111E-02
    1      -15.506074
    2      -15.506074
    3      -11.051213
    4      -11.051213
    5       -7.856115
    6       -7.856115
    7       -6.801087
    8       -6.801086
    9       -5.075210
   10       -5.075209
   11       -3.436942
   12       -3.436942
   13        2.487262
   14        2.487263
   15        4.150107
   16        4.150107
   17        5.233649
   18        5.233650
   19        6.544986
 
  0.0000000E+00  0.1666667E+00  0.0000000E+00  0.1736111E-02
    1      -15.685759
    2      -15.429669
    3      -10.847988
    4      -10.844324
    5       -7.910637
    6       -7.851904
    7       -7.185145
    8       -6.863982
    9       -5.137225
   10       -4.747302
   11       -3.466238
   12       -3.216906
   13        1.339478
   14        2.536081
   15        3.350708
   16        4.505606
   17        5.870752
   18        6.944972
   19        7.069185
 
  0.8333333E-01  0.1666667E+00  0.0000000E+00  0.3472222E-02
    1      -15.678247
    2      -15.430313
    3      -10.866101
    4      -10.855200
    5       -7.915329
    6       -7.845153
    7       -7.162903
    8       -6.852772
    9       -5.140514
   10       -4.760972
   11       -3.468242
   12       -3.230306
   13        1.389769
   14        2.560765
   15        3.354372
   16        4.524710
   17        5.894598
   18        6.627185
   19        6.997533
 
  0.1666667E+00  0.1666667E+00  0.0000000E+00  0.3472222E-02
    1      -15.656704
    2      -15.432993
    3      -10.909495
    4      -10.890366
    5       -7.920081
    6       -7.832538
    7       -7.103042
    8       -6.824356
    9       -5.147409
   10       -4.799834
   11       -3.473836
   12       -3.266961
   13        1.533811
   14        2.624312
   15        3.376784
   16        4.578272
   17        5.964343
   18        6.096707
   19        6.672766
 
  0.2500000E+00  0.1666667E+00  0.0000000E+00  0.3472222E-02
    1      -15.623995
    2      -15.439710
    3      -10.964524
    4      -10.941221
    5       -7.914651
    6       -7.822734
    7       -7.021550
    8       -6.792085
    9       -5.150215
   10       -4.858035
   11       -3.481036
   12       -3.318015
   13        1.751926
   14        2.693103
   15        3.448336
   16        4.659208
   17        5.560319
   18        6.057745
   19        6.279644
 
  0.3333333E+00  0.1666667E+00  0.0000000E+00  0.3472222E-02
    1      -15.584459
    2      -15.452969
    3      -11.015619
    4      -10.994459
    5       -7.897272
    6       -7.820507
    7       -6.935661
    8       -6.771329
    9       -5.139902
   10       -4.927198
   11       -3.485121
   12       -3.372916
   13        2.013455
   14        2.716763
   15        3.603041
   16        4.753296
   17        5.076906
   18        5.814231
   19        6.269521
 
  0.4166667E+00  0.1666667E+00  0.0000000E+00  0.3472222E-02
    1      -15.543271
    2      -15.474743
    3      -11.049070
    4      -11.036474
    5       -7.872369
    6       -7.828675
    7       -6.859625
    8       -6.773607
    9       -5.110513
   10       -4.998062
   11       -3.479546
   12       -3.422248
   13        2.279049
   14        2.657210
   15        3.851211
   16        4.562170
   17        4.970215
   18        5.459399
   19        6.449117
 
  0.5000000E+00  0.1666667E+00  0.0000000E+00  0.1736111E-02
    1      -15.505438
    2      -15.505437
    3      -11.056492
    4      -11.056492
    5       -7.847231
    6       -7.847231
    7       -6.803567
    8       -6.803566
    9       -5.061685
   10       -5.061685
   11       -3.458968
   12       -3.458967
   13        2.505673
   14        2.505674
   15        4.178851
   16        4.178851
   17        5.172800
   18        5.172800
   19        6.642442
 
  0.0000000E+00  0.2500000E+00  0.0000000E+00  0.1736111E-02
    1      -15.663354
    2      -15.454343
    3      -10.844835
    4      -10.841684
    5       -7.917835
    6       -7.872063
    7       -7.146737
    8       -6.886435
    9       -5.103032
   10       -4.784946
   11       -3.432970
   12       -3.227623
   13        1.434200
   14        2.415421
   15        3.403882
   16        4.364286
   17        5.933425
   18        6.927321
   19        7.103257
 
  0.8333333E-01  0.2500000E+00  0.0000000E+00  0.3472222E-02
    1      -15.656476
    2      -15.454104
    3      -10.864335
    4      -10.852666
    5       -7.921243
    6       -7.861838
    7       -7.127462
    8       -6.875222
    9       -5.106075
   10       -4.795793
   11       -3.439776
   12       -3.241530
   13        1.481890
   14        2.443238
   15        3.409473
   16        4.386904
   17        5.949830
   18        6.636077
   19        7.045237
 
  0.1666667E+00  0.2500000E+00  0.0000000E+00  0.3472222E-02
    1      -15.636836
    2      -15.454194
    3      -10.909824
    4      -10.889701
    5       -7.921001
    6       -7.842522
    7       -7.074821
    8       -6.846435
    9       -5.112625
   10       -4.826834
   11       -3.458280
   12       -3.280054
   13        1.618663
   14        2.518281
   15        3.435354
   16        4.449997
   17        5.989609
   18        6.133392
   19        6.715327
 
  0.2500000E+00  0.2500000E+00  0.0000000E+00  0.3472222E-02
    1      -15.607271
    2      -15.456776
    3      -10.967139
    4      -10.943414
    5       -7.909056
    6       -7.825601
    7       -7.001771
    8       -6.812352
    9       -5.115940
   10       -4.873774
   11       -3.482341
   12       -3.334900
   13        1.826076
   14        2.612269
   15        3.505583
   16        4.545519
   17        5.607446
   18        5.970167
   19        6.415598
 
  0.3333333E+00  0.2500000E+00  0.0000000E+00  0.3472222E-02
    1      -15.572082
    2      -15.464672
    3      -11.020382
    4      -10.999398
    5       -7.886553
    6       -7.816935
    7       -6.924027
    8       -6.787714
    9       -5.108084
   10       -4.930345
   11       -3.502102
   12       -3.395399
   13        2.074388
   14        2.674656
   15        3.652116
   16        4.671722
   17        5.105977
   18        5.700770
   19        6.425932
 
  0.4166667E+00  0.2500000E+00  0.0000000E+00  0.3472222E-02
    1      -15.536276
    2      -15.480286
    3      -11.055481
    4      -11.043188
    5       -7.859386
    6       -7.819897
    7       -6.855642
    8       -6.784102
    9       -5.083704
   10       -4.989154
   11       -3.506831
   12       -3.450325
   13        2.324206
   14        2.653633
   15        3.896354
   16        4.635843
   17        4.848838
   18        5.362174
   19        6.592617
 
  0.5000000E+00  0.2500000E+00  0.0000000E+00  0.1736111E-02
    1      -15.504566
    2      -15.504565
    3      -11.063669
    4      -11.063669
    5       -7.835075
    6       -7.835074
    7       -6.807031
    8       -6.807031
    9       -5.042589
   10       -5.042588
   11       -3.489601
   12       -3.489601
   13        2.530590
   14        2.530591
   15        4.231854
   16        4.231854
   17        5.071251
   18        5.071251
   19        6.798196
 
  0.0000000E+00  0.3333333E+00  0.0000000E+00  0.1736111E-02
    1      -15.633850
    2      -15.486114
    3      -10.841525
    4      -10.839186
    5       -7.923645
    6       -7.892628
    7       -7.100568
    8       -6.917667
    9       -5.057944
   10       -4.833223
   11       -3.392350
   12       -3.245896
   13        1.561948
   14        2.256870
   15        3.496656
   16        4.182897
   17        6.054313
   18        6.831404
   19        7.166508
 
  0.8333333E-01  0.3333333E+00  0.0000000E+00  0.3472222E-02
    1      -15.627827
    2      -15.484772
    3      -10.861270
    4      -10.851432
    5       -7.924265
    6       -7.880873
    7       -7.084006
    8       -6.906271
    9       -5.060951
   10       -4.841311
   11       -3.403477
   12       -3.260586
   13        1.606402
   14        2.287669
   15        3.506155
   16        4.206806
   17        6.058780
   18        6.615744
   19        7.098650
 
  0.1666667E+00  0.3333333E+00  0.0000000E+00  0.3472222E-02
    1      -15.610743
    2      -15.481614
    3      -10.908015
    4      -10.891195
    5       -7.917215
    6       -7.857380
    7       -7.038443
    8       -6.876436
    9       -5.067795
   10       -4.864356
   11       -3.433840
   12       -3.301613
   13        1.734070
   14        2.373451
   15        3.541027
   16        4.274311
   17        6.041472
   18        6.169091
   19        6.800648
 
  0.2500000E+00  0.3333333E+00  0.0000000E+00  0.3472222E-02
    1      -15.585418
    2      -15.478984
    3      -10.967458
    4      -10.947935
    5       -7.898366
    6       -7.834036
    7       -6.974732
    8       -6.839418
    9       -5.072780
   10       -4.898976
   11       -3.474342
   12       -3.360681
   13        1.927720
   14        2.491374
   15        3.617393
   16        4.378102
   17        5.666191
   18        5.894742
   19        6.616000
 
  0.3333333E+00  0.3333333E+00  0.0000000E+00  0.3472222E-02
    1      -15.556034
    2      -15.480043
    3      -11.023246
    4      -11.006212
    5       -7.871625
    6       -7.817883
    7       -6.907029
    8       -6.809134
    9       -5.069182
   10       -4.940458
   11       -3.511165
   12       -3.425922
   13        2.158001
   14        2.596530
   15        3.758281
   16        4.516168
   17        5.176616
   18        5.577920
   19        6.655921
 
  0.4166667E+00  0.3333333E+00  0.0000000E+00  0.3472222E-02
    1      -15.527362
    2      -15.487743
    3      -11.060810
    4      -11.050921
    5       -7.844008
    6       -7.813551
    7       -6.848917
    8       -6.797373
    9       -5.052509
   10       -4.983532
   11       -3.529862
   12       -3.483623
   13        2.383571
   14        2.629923
   15        3.987934
   16        4.671891
   17        4.744747
   18        5.235505
   19        6.804404
 
  0.5000000E+00  0.3333333E+00  0.0000000E+00  0.1736111E-02
    1      -15.503690
    2      -15.503689
    3      -11.070802
    4      -11.070802
    5       -7.822877
    6       -7.822877
    7       -6.810564
    8       -6.810564
    9       -5.022699
   10       -5.022699
   11       -3.520911
   12       -3.520911
   13        2.555192
   14        2.555193
   15        4.312047
   16        4.312047
   17        4.938216
   18        4.938216
   19        6.993602
 
  0.0000000E+00  0.4166667E+00  0.0000000E+00  0.1736111E-02
    1      -15.599038
    2      -15.522583
    3      -10.838854
    4      -10.837602
    5       -7.925333
    6       -7.909740
    7       -7.051102
    8       -6.956812
    9       -5.004806
   10       -4.888554
   11       -3.349157
   12       -3.272869
   13        1.717292
   14        2.076994
   15        3.629172
   16        3.985893
   17        6.228099
   18        6.653212
   19        7.257050
 
  0.8333333E-01  0.4166667E+00  0.0000000E+00  0.3472222E-02
    1      -15.594056
    2      -15.520023
    3      -10.857591
    4      -10.851971
    5       -7.921978
    6       -7.899018
    7       -7.036676
    8       -6.944893
    9       -5.008166
   10       -4.894393
   11       -3.363209
   12       -3.288242
   13        1.758185
   14        2.110898
   15        3.643562
   16        4.008439
   17        6.212373
   18        6.532415
   19        7.149258
 
  0.1666667E+00  0.4166667E+00  0.0000000E+00  0.3472222E-02
    1      -15.580085
    2      -15.513249
    3      -10.904288
    4      -10.894717
    5       -7.907620
    6       -7.875163
    7       -6.997079
    8       -6.913049
    9       -5.016448
   10       -4.910653
   11       -3.401899
   12       -3.331208
   13        1.875663
   14        2.207130
   15        3.690090
   16        4.073710
   17        6.107316
   18        6.183546
   19        6.921543
 
  0.2500000E+00  0.4166667E+00  0.0000000E+00  0.3472222E-02
    1      -15.559881
    2      -15.504779
    3      -10.964986
    4      -10.953960
    5       -7.883087
    6       -7.847931
    7       -6.942197
    8       -6.871649
    9       -5.024957
   10       -4.934020
   11       -3.454962
   12       -3.392758
   13        2.053173
   14        2.346728
   15        3.777030
   16        4.177654
   17        5.726460
   18        5.837028
   19        6.852510
 
  0.3333333E+00  0.4166667E+00  0.0000000E+00  0.3472222E-02
    1      -15.537470
    2      -15.498119
    3      -11.023046
    4      -11.013493
    5       -7.854454
    6       -7.825028
    7       -6.885233
    8       -6.833988
    9       -5.028189
   10       -4.960346
   11       -3.506883
   12       -3.459245
   13        2.260396
   14        2.491453
   15        3.916862
   16        4.319170
   17        5.265106
   18        5.465287
   19        6.921779
 
  0.4166667E+00  0.4166667E+00  0.0000000E+00  0.3472222E-02
    1      -15.517281
    2      -15.496763
    3      -11.063393
    4      -11.057872
    5       -7.829208
    6       -7.812525
    7       -6.839078
    8       -6.812029
    9       -5.022472
   10       -4.985893
   11       -3.540805
   12       -3.514598
   13        2.451818
   14        2.583969
   15        4.127117
   16        4.494136
   17        4.844464
   18        5.099713
   19        7.045780
 
  0.5000000E+00  0.4166667E+00  0.0000000E+00  0.1736111E-02
    1      -15.503048
    2      -15.503047
    3      -11.076000
    4      -11.076000
    5       -7.813945
    6       -7.813944
    7       -6.813213
    8       -6.813213
    9       -5.007597
   10       -5.007597
   11       -3.544332
   12       -3.544332
   13        2.572954
   14        2.572954
   15        4.412858
   16        4.412858
   17        4.796577
   18        4.796578
   19        7.183935
 
  0.0000000E+00  0.5000000E+00  0.0000000E+00  0.8680556E-03
    1      -15.561115
    2      -15.561115
    3      -10.837450
    4      -10.837450
    5       -7.920924
    6       -7.920924
    7       -7.002135
    8       -7.002135
    9       -4.947068
   10       -4.947068
   11       -3.308062
   12       -3.308061
   13        1.892507
   14        1.892507
   15        3.795809
   16        3.795809
   17        6.437364
   18        6.437364
   19        7.370022
 
  0.8333333E-01  0.5000000E+00  0.0000000E+00  0.1736111E-02
    1      -15.557307
    2      -15.557307
    3      -10.854207
    4      -10.854207
    5       -7.913362
    6       -7.913362
    7       -6.989228
    8       -6.989228
    9       -4.951335
   10       -4.951335
   11       -3.323418
   12       -3.323418
   13        1.929802
   14        1.929802
   15        3.814892
   16        3.814892
   17        6.384318
   18        6.384318
   19        7.201956
 
  0.1666667E+00  0.5000000E+00  0.0000000E+00  0.1736111E-02
    1      -15.546846
    2      -15.546846
    3      -10.899468
    4      -10.899467
    5       -7.892903
    6       -7.892903
    7       -6.954185
    8       -6.954185
    9       -4.962660
   10       -4.962659
   11       -3.366103
   12       -3.366103
   13        2.036643
   14        2.036643
   15        3.872453
   16        3.872454
   17        6.161791
   18        6.161791
   19        7.067510
 
  0.2500000E+00  0.5000000E+00  0.0000000E+00  0.1736111E-02
    1      -15.532378
    2      -15.532378
    3      -10.960126
    4      -10.960126
    5       -7.865287
    6       -7.865287
    7       -6.906836
    8       -6.906835
    9       -4.977193
   10       -4.977192
   11       -3.426152
   12       -3.426152
   13        2.196071
   14        2.196071
   15        3.969839
   16        3.969839
   17        5.783415
   18        5.783415
   19        7.093866
 
  0.3333333E+00  0.5000000E+00  0.0000000E+00  0.1736111E-02
    1      -15.517701
    2      -15.517701
    3      -11.019562
    4      -11.019562
    5       -7.837928
    6       -7.837928
    7       -6.860136
    8       -6.860135
    9       -4.990404
   10       -4.990404
   11       -3.488375
   12       -3.488375
   13        2.374883
   14        2.374883
   15        4.110971
   16        4.110972
   17        5.361838
   18        5.361838
   19        7.177628
 
  0.4166667E+00  0.5000000E+00  0.0000000E+00  0.1736111E-02
    1      -15.506827
    2      -15.506826
    3      -11.062372
    4      -11.062372
    5       -7.817971
    6       -7.817971
    7       -6.826437
    8       -6.826437
    9       -4.999038
   10       -4.999038
   11       -3.535446
   12       -3.535445
   13        2.521583
   14        2.521583
   15        4.302351
   16        4.302352
   17        4.966885
   18        4.966886
   19        7.247786
 
  0.5000000E+00  0.5000000E+00  0.0000000E+00  0.8680556E-03
    1      -15.502810
    2      -15.502810
    3      -11.077894
    4      -11.077894
    5       -7.810660
    6       -7.810660
    7       -6.814184
    8       -6.814184
    9       -5.001938
   10       -5.001938
   11       -3.553004
   12       -3.553004
   13        2.579396
   14        2.579397
   15        4.480286
   16        4.480287
   17        4.713834
   18        4.713834
   19        7.273537
 
  0.0000000E+00  0.0000000E+00  0.1250000E+00  0.1736111E-02
    1      -15.677816
    2      -15.402566
    3      -10.836110
    4      -10.830777
    5       -7.998949
    6       -7.916564
    7       -7.153004
    8       -6.836545
    9       -5.189009
   10       -4.772047
   11       -3.514895
   12       -3.219265
   13        1.277464
   14        2.581770
   15        3.419556
   16        4.729496
   17        5.766055
   18        6.660294
   19        6.933753
 
  0.8333333E-01  0.0000000E+00  0.1250000E+00  0.1736111E-02
    1      -15.669060
    2      -15.404266
    3      -10.853780
    4      -10.844706
    5       -8.023901
    6       -7.922400
    7       -7.083158
    8       -6.833100
    9       -5.138847
   10       -4.798090
   11       -3.507314
   12       -3.286236
   13        1.303813
   14        2.603337
   15        3.351403
   16        4.678446
   17        5.815615
   18        6.420431
   19        7.160615
 
  0.1666667E+00  0.0000000E+00  0.1250000E+00  0.1736111E-02
    1      -15.646012
    2      -15.408933
    3      -10.897253
    4      -10.877981
    5       -8.034562
    6       -7.921906
    7       -6.993082
    8       -6.814587
    9       -5.102626
   10       -4.857897
   11       -3.493455
   12       -3.369766
   13        1.423313
   14        2.663367
   15        3.317986
   16        4.678684
   17        5.894893
   18        6.094036
   19        7.014149
 
  0.2500000E+00  0.0000000E+00  0.1250000E+00  0.1736111E-02
    1      -15.611575
    2      -15.418407
    3      -10.951865
    4      -10.923709
    5       -8.025800
    6       -7.916822
    7       -6.899474
    8       -6.795689
    9       -5.079330
   10       -4.945177
   11       -3.472401
   12       -3.452269
   13        1.618693
   14        2.738816
   15        3.338995
   16        4.731440
   17        5.749992
   18        5.982316
   19        6.693223
 
  0.3333333E+00  0.0000000E+00  0.1250000E+00  0.1736111E-02
    1      -15.570116
    2      -15.434924
    3      -11.005351
    4      -10.966909
    5       -7.999298
    6       -7.910502
    7       -6.815633
    8       -6.792683
    9       -5.062394
   10       -5.048508
   11       -3.518407
   12       -3.444227
   13        1.864767
   14        2.779842
   15        3.443793
   16        4.830745
   17        5.384950
   18        6.020603
   19        6.442585
 
  0.4166667E+00  0.0000000E+00  0.1250000E+00  0.1736111E-02
    1      -15.526825
    2      -15.460057
    3      -11.045317
    4      -10.994623
    5       -7.962174
    6       -7.906587
    7       -6.816768
    8       -6.750676
    9       -5.153867
   10       -5.043022
   11       -3.559291
   12       -3.408434
   13        2.128644
   14        2.733474
   15        3.652937
   16        4.913002
   17        5.077564
   18        5.919228
   19        6.287463
 
  0.5000000E+00  0.0000000E+00  0.1250000E+00  0.1736111E-02
    1      -15.493801
    2      -15.486759
    3      -11.062072
    4      -10.999289
    5       -7.924388
    6       -7.907360
    7       -6.870317
    8       -6.709884
    9       -5.246751
   10       -5.014142
   11       -3.574067
   12       -3.364178
   13        2.370817
   14        2.582546
   15        3.955804
   16        4.619507
   17        5.217607
   18        5.735598
   19        6.180757
 
 -0.4166667E+00  0.0000000E+00  0.1250000E+00  0.1736111E-02
    1      -15.534067
    2      -15.453791
    3      -11.051011
    4      -10.980145
    5       -7.912815
    6       -7.895431
    7       -6.947070
    8       -6.695569
    9       -5.313930
   10       -4.972773
   11       -3.568871
   12       -3.312346
   13        2.343585
   14        2.552940
   15        4.293959
   16        4.329143
   17        5.496424
   18        5.560107
   19        6.090246
 
 -0.3333333E+00  0.0000000E+00  0.1250000E+00  0.1736111E-02
    1      -15.576902
    2      -15.429828
    3      -11.014084
    4      -10.942876
    5       -7.921304
    6       -7.881003
    7       -7.034541
    8       -6.707196
    9       -5.345748
   10       -4.920756
   11       -3.553476
   12       -3.257761
   13        2.055782
   14        2.652576
   15        4.011687
   16        4.734518
   17        5.426544
   18        5.834619
   19        6.036776
 
 -0.2500000E+00  0.0000000E+00  0.1250000E+00  0.1736111E-02
    1      -15.617277
    2      -15.414652
    3      -10.959933
    4      -10.897827
    5       -7.931980
    6       -7.881187
    7       -7.115881
    8       -6.739651
    9       -5.339701
   10       -4.864445
   11       -3.537226
   12       -3.209885
   13        1.767147
   14        2.673218
   15        3.789771
   16        4.994496
   17        5.488631
   18        5.863805
   19        6.373219
 
 -0.1666667E+00  0.0000000E+00  0.1250000E+00  0.1736111E-02
    1      -15.650112
    2      -15.406508
    3      -10.902362
    4      -10.857316
    5       -7.947123
    6       -7.891378
    7       -7.171755
    8       -6.781635
    9       -5.302482
   10       -4.813583
   11       -3.525695
   12       -3.181085
   13        1.521462
   14        2.642409
   15        3.628820
   16        4.938471
   17        5.795838
   18        5.895730
   19        6.830203
 
 -0.8333333E-01  0.0000000E+00  0.1250000E+00  0.1736111E-02
    1      -15.671197
    2      -15.403089
    3      -10.856929
    4      -10.832524
    5       -7.970149
    6       -7.905076
    7       -7.185706
    8       -6.818082
    9       -5.247380
   10       -4.779370
   11       -3.519426
   12       -3.182576
   13        1.351752
   14        2.600461
   15        3.511264
   16        4.823184
   17        5.758509
   18        6.362067
   19        6.993663
 
  0.0000000E+00  0.8333333E-01  0.1250000E+00  0.3472222E-02
    1      -15.673356
    2      -15.407511
    3      -10.835890
    4      -10.829962
    5       -8.000302
    6       -7.919617
    7       -7.147069
    8       -6.840843
    9       -5.182015
   10       -4.779015
   11       -3.507988
   12       -3.221561
   13        1.296148
   14        2.558783
   15        3.427983
   16        4.704452
   17        5.756445
   18        6.709500