<?xml version="1.0" encoding="ISO-8859-1"?>
<modeling>
 <generator>
  <i name="program" type="string">vasp </i>
  <i name="version" type="string">5.3.5  </i>
  <i name="subversion" type="string">31Mar14 (build Nov 02 2014 15:17:37) complex                          parallel </i>
  <i name="platform" type="string">ion-Intel-MKL </i>
  <i name="date" type="string">2017 03 21 </i>
  <i name="time" type="string">23:58:11 </i>
 </generator>
 <incar>
  <i type="string" name="SYSTEM">ethylene</i>
  <i type="string" name="PREC">normal</i>
  <i type="int" name="NELM">   200</i>
  <i type="int" name="IBRION">     2</i>
  <i name="EDIFF">      0.00000001</i>
  <i name="EDIFFG">      0.00100000</i>
  <i type="int" name="NSW">   200</i>
  <i type="int" name="ISIF">     2</i>
  <i name="ENCUT">    800.00000000</i>
  <i type="int" name="ISMEAR">    -5</i>
  <i type="logical" name="LWAVE"> F  </i>
  <i type="logical" name="LCHARG"> F  </i>
  <i type="int" name="NELM">   200</i>
  <i type="string" name="GGA">PE</i>
 </incar>
 <kpoints>
  <generation param="Gamma">
   <v type="int" name="divisions">      12       12        8 </v>
   <v name="usershift">      0.00000000       0.00000000       0.00000000 </v>
   <v name="genvec1">      0.08333333       0.00000000       0.00000000 </v>
   <v name="genvec2">      0.00000000       0.08333333       0.00000000 </v>
   <v name="genvec3">      0.00000000       0.00000000       0.12500000 </v>
   <v name="shift">      0.00000000       0.00000000       0.00000000 </v>
  </generation>
  <varray name="kpointlist" >
   <v>       0.00000000       0.00000000       0.00000000 </v>
   <v>       0.08333333       0.00000000       0.00000000 </v>
   <v>       0.16666667       0.00000000       0.00000000 </v>
   <v>       0.25000000       0.00000000       0.00000000 </v>
   <v>       0.33333333       0.00000000       0.00000000 </v>
   <v>       0.41666667       0.00000000       0.00000000 </v>
   <v>       0.50000000       0.00000000       0.00000000 </v>
   <v>       0.00000000       0.08333333       0.00000000 </v>
   <v>       0.08333333       0.08333333       0.00000000 </v>
   <v>       0.16666667       0.08333333       0.00000000 </v>
   <v>       0.25000000       0.08333333       0.00000000 </v>
   <v>       0.33333333       0.08333333       0.00000000 </v>
   <v>       0.41666667       0.08333333       0.00000000 </v>
   <v>       0.50000000       0.08333333       0.00000000 </v>
   <v>       0.00000000       0.16666667       0.00000000 </v>
   <v>       0.08333333       0.16666667       0.00000000 </v>
   <v>       0.16666667       0.16666667       0.00000000 </v>
   <v>       0.25000000       0.16666667       0.00000000 </v>
   <v>       0.33333333       0.16666667       0.00000000 </v>
   <v>       0.41666667       0.16666667       0.00000000 </v>
   <v>       0.50000000       0.16666667       0.00000000 </v>
   <v>       0.00000000       0.25000000       0.00000000 </v>
   <v>       0.08333333       0.25000000       0.00000000 </v>
   <v>       0.16666667       0.25000000       0.00000000 </v>
   <v>       0.25000000       0.25000000       0.00000000 </v>
   <v>       0.33333333       0.25000000       0.00000000 </v>
   <v>       0.41666667       0.25000000       0.00000000 </v>
   <v>       0.50000000       0.25000000       0.00000000 </v>
   <v>       0.00000000       0.33333333       0.00000000 </v>
   <v>       0.08333333       0.33333333       0.00000000 </v>
   <v>       0.16666667       0.33333333       0.00000000 </v>
   <v>       0.25000000       0.33333333       0.00000000 </v>
   <v>       0.33333333       0.33333333       0.00000000 </v>
   <v>       0.41666667       0.33333333       0.00000000 </v>
   <v>       0.50000000       0.33333333       0.00000000 </v>
   <v>       0.00000000       0.41666667       0.00000000 </v>
   <v>       0.08333333       0.41666667       0.00000000 </v>
   <v>       0.16666667       0.41666667       0.00000000 </v>
   <v>       0.25000000       0.41666667       0.00000000 </v>
   <v>       0.33333333       0.41666667       0.00000000 </v>
   <v>       0.41666667       0.41666667       0.00000000 </v>
   <v>       0.50000000       0.41666667       0.00000000 </v>
   <v>       0.00000000       0.50000000       0.00000000 </v>
   <v>       0.08333333       0.50000000       0.00000000 </v>
   <v>       0.16666667       0.50000000       0.00000000 </v>
   <v>       0.25000000       0.50000000       0.00000000 </v>
   <v>       0.33333333       0.50000000       0.00000000 </v>
   <v>       0.41666667       0.50000000       0.00000000 </v>
   <v>       0.50000000       0.50000000       0.00000000 </v>
   <v>       0.00000000       0.00000000       0.12500000 </v>
   <v>       0.08333333       0.00000000       0.12500000 </v>
   <v>       0.16666667       0.00000000       0.12500000 </v>
   <v>       0.25000000       0.00000000       0.12500000 </v>
   <v>       0.33333333       0.00000000       0.12500000 </v>
   <v>       0.41666667       0.00000000       0.12500000 </v>
   <v>       0.50000000       0.00000000       0.12500000 </v>
   <v>      -0.41666667       0.00000000       0.12500000 </v>
   <v>      -0.33333333       0.00000000       0.12500000 </v>
   <v>      -0.25000000       0.00000000       0.12500000 </v>
   <v>      -0.16666667       0.00000000       0.12500000 </v>
   <v>      -0.08333333       0.00000000       0.12500000 </v>
   <v>       0.00000000       0.08333333       0.12500000 </v>
   <v>       0.08333333       0.08333333       0.12500000 </v>
   <v>       0.16666667       0.08333333       0.12500000 </v>
   <v>       0.25000000       0.08333333       0.12500000 </v>
   <v>       0.33333333       0.08333333       0.12500000 </v>
   <v>       0.41666667       0.08333333       0.12500000 </v>
   <v>       0.50000000       0.08333333       0.12500000 </v>
   <v>      -0.41666667       0.08333333       0.12500000 </v>
   <v>      -0.33333333       0.08333333       0.12500000 </v>
   <v>      -0.25000000       0.08333333       0.12500000 </v>
   <v>      -0.16666667       0.08333333       0.12500000 </v>
   <v>      -0.08333333       0.08333333       0.12500000 </v>
   <v>       0.00000000       0.16666667       0.12500000 </v>
   <v>       0.08333333       0.16666667       0.12500000 </v>
   <v>       0.16666667       0.16666667       0.12500000 </v>
   <v>       0.25000000       0.16666667       0.12500000 </v>
   <v>       0.33333333       0.16666667       0.12500000 </v>
   <v>       0.41666667       0.16666667       0.12500000 </v>
   <v>       0.50000000       0.16666667       0.12500000 </v>
   <v>      -0.41666667       0.16666667       0.12500000 </v>
   <v>      -0.33333333       0.16666667       0.12500000 </v>
   <v>      -0.25000000       0.16666667       0.12500000 </v>
   <v>      -0.16666667       0.16666667       0.12500000 </v>
   <v>      -0.08333333       0.16666667       0.12500000 </v>
   <v>       0.00000000       0.25000000       0.12500000 </v>
   <v>       0.08333333       0.25000000       0.12500000 </v>
   <v>       0.16666667       0.25000000       0.12500000 </v>
   <v>       0.25000000       0.25000000       0.12500000 </v>
   <v>       0.33333333       0.25000000       0.12500000 </v>
   <v>       0.41666667       0.25000000       0.12500000 </v>
   <v>       0.50000000       0.25000000       0.12500000 </v>
   <v>      -0.41666667       0.25000000       0.12500000 </v>
   <v>      -0.33333333       0.25000000       0.12500000 </v>
   <v>      -0.25000000       0.25000000       0.12500000 </v>
   <v>      -0.16666667       0.25000000       0.12500000 </v>
   <v>      -0.08333333       0.25000000       0.12500000 </v>
   <v>       0.00000000       0.33333333       0.12500000 </v>
   <v>       0.08333333       0.33333333       0.12500000 </v>
   <v>       0.16666667       0.33333333       0.12500000 </v>
   <v>       0.25000000       0.33333333       0.12500000 </v>
   <v>       0.33333333       0.33333333       0.12500000 </v>
   <v>       0.41666667       0.33333333       0.12500000 </v>
   <v>       0.50000000       0.33333333       0.12500000 </v>
   <v>      -0.41666667       0.33333333       0.12500000 </v>
   <v>      -0.33333333       0.33333333       0.12500000 </v>
   <v>      -0.25000000       0.33333333       0.12500000 </v>
   <v>      -0.16666667       0.33333333       0.12500000 </v>
   <v>      -0.08333333       0.33333333       0.12500000 </v>
   <v>       0.00000000       0.41666667       0.12500000 </v>
   <v>       0.08333333       0.41666667       0.12500000 </v>
   <v>       0.16666667       0.41666667       0.12500000 </v>
   <v>       0.25000000       0.41666667       0.12500000 </v>
   <v>       0.33333333       0.41666667       0.12500000 </v>
   <v>       0.41666667       0.41666667       0.12500000 </v>
   <v>       0.50000000       0.41666667       0.12500000 </v>
   <v>      -0.41666667       0.41666667       0.12500000 </v>
   <v>      -0.33333333       0.41666667       0.12500000 </v>
   <v>      -0.25000000       0.41666667       0.12500000 </v>
   <v>      -0.16666667       0.41666667       0.12500000 </v>
   <v>      -0.08333333       0.41666667       0.12500000 </v>
   <v>       0.00000000       0.50000000       0.12500000 </v>
   <v>       0.08333333       0.50000000       0.12500000 </v>
   <v>       0.16666667       0.50000000       0.12500000 </v>
   <v>       0.25000000       0.50000000       0.12500000 </v>
   <v>       0.33333333       0.50000000       0.12500000 </v>
   <v>       0.41666667       0.50000000       0.12500000 </v>
   <v>       0.50000000       0.50000000       0.12500000 </v>
   <v>      -0.41666667       0.50000000       0.12500000 </v>
   <v>      -0.33333333       0.50000000       0.12500000 </v>
   <v>      -0.25000000       0.50000000       0.12500000 </v>
   <v>      -0.16666667       0.50000000       0.12500000 </v>
   <v>      -0.08333333       0.50000000       0.12500000 </v>
   <v>       0.00000000       0.00000000       0.25000000 </v>
   <v>       0.08333333       0.00000000       0.25000000 </v>
   <v>       0.16666667       0.00000000       0.25000000 </v>
   <v>       0.25000000       0.00000000       0.25000000 </v>
   <v>       0.33333333       0.00000000       0.25000000 </v>
   <v>       0.41666667       0.00000000       0.25000000 </v>
   <v>       0.50000000       0.00000000       0.25000000 </v>
   <v>      -0.41666667       0.00000000       0.25000000 </v>
   <v>      -0.33333333       0.00000000       0.25000000 </v>
   <v>      -0.25000000       0.00000000       0.25000000 </v>
   <v>      -0.16666667       0.00000000       0.25000000 </v>
   <v>      -0.08333333       0.00000000       0.25000000 </v>
   <v>       0.00000000       0.08333333       0.25000000 </v>
   <v>       0.08333333       0.08333333       0.25000000 </v>
   <v>       0.16666667       0.08333333       0.25000000 </v>
   <v>       0.25000000       0.08333333       0.25000000 </v>
   <v>       0.33333333       0.08333333       0.25000000 </v>
   <v>       0.41666667       0.08333333       0.25000000 </v>
   <v>       0.50000000       0.08333333       0.25000000 </v>
   <v>      -0.41666667       0.08333333       0.25000000 </v>
   <v>      -0.33333333       0.08333333       0.25000000 </v>
   <v>      -0.25000000       0.08333333       0.25000000 </v>
   <v>      -0.16666667       0.08333333       0.25000000 </v>
   <v>      -0.08333333       0.08333333       0.25000000 </v>
   <v>       0.00000000       0.16666667       0.25000000 </v>
   <v>       0.08333333       0.16666667       0.25000000 </v>
   <v>       0.16666667       0.16666667       0.25000000 </v>
   <v>       0.25000000       0.16666667       0.25000000 </v>
   <v>       0.33333333       0.16666667       0.25000000 </v>
   <v>       0.41666667       0.16666667       0.25000000 </v>
   <v>       0.50000000       0.16666667       0.25000000 </v>
   <v>      -0.41666667       0.16666667       0.25000000 </v>
   <v>      -0.33333333       0.16666667       0.25000000 </v>
   <v>      -0.25000000       0.16666667       0.25000000 </v>
   <v>      -0.16666667       0.16666667       0.25000000 </v>
   <v>      -0.08333333       0.16666667       0.25000000 </v>
   <v>       0.00000000       0.25000000       0.25000000 </v>
   <v>       0.08333333       0.25000000       0.25000000 </v>
   <v>       0.16666667       0.25000000       0.25000000 </v>
   <v>       0.25000000       0.25000000       0.25000000 </v>
   <v>       0.33333333       0.25000000       0.25000000 </v>
   <v>       0.41666667       0.25000000       0.25000000 </v>
   <v>       0.50000000       0.25000000       0.25000000 </v>
   <v>      -0.41666667       0.25000000       0.25000000 </v>
   <v>      -0.33333333       0.25000000       0.25000000 </v>
   <v>      -0.25000000       0.25000000       0.25000000 </v>
   <v>      -0.16666667       0.25000000       0.25000000 </v>
   <v>      -0.08333333       0.25000000       0.25000000 </v>
   <v>       0.00000000       0.33333333       0.25000000 </v>
   <v>       0.08333333       0.33333333       0.25000000 </v>
   <v>       0.16666667       0.33333333       0.25000000 </v>
   <v>       0.25000000       0.33333333       0.25000000 </v>
   <v>       0.33333333       0.33333333       0.25000000 </v>
   <v>       0.41666667       0.33333333       0.25000000 </v>
   <v>       0.50000000       0.33333333       0.25000000 </v>
   <v>      -0.41666667       0.33333333       0.25000000 </v>
   <v>      -0.33333333       0.33333333       0.25000000 </v>
   <v>      -0.25000000       0.33333333       0.25000000 </v>
   <v>      -0.16666667       0.33333333       0.25000000 </v>
   <v>      -0.08333333       0.33333333       0.25000000 </v>
   <v>       0.00000000       0.41666667       0.25000000 </v>
   <v>       0.08333333       0.41666667       0.25000000 </v>
   <v>       0.16666667       0.41666667       0.25000000 </v>
   <v>       0.25000000       0.41666667       0.25000000 </v>
   <v>       0.33333333       0.41666667       0.25000000 </v>
   <v>       0.41666667       0.41666667       0.25000000 </v>
   <v>       0.50000000       0.41666667       0.25000000 </v>
   <v>      -0.41666667       0.41666667       0.25000000 </v>
   <v>      -0.33333333       0.41666667       0.25000000 </v>
   <v>      -0.25000000       0.41666667       0.25000000 </v>
   <v>      -0.16666667       0.41666667       0.25000000 </v>
   <v>      -0.08333333       0.41666667       0.25000000 </v>
   <v>       0.00000000       0.50000000       0.25000000 </v>
   <v>       0.08333333       0.50000000       0.25000000 </v>
   <v>       0.16666667       0.50000000       0.25000000 </v>
   <v>       0.25000000       0.50000000       0.25000000 </v>
   <v>       0.33333333       0.50000000       0.25000000 </v>
   <v>       0.41666667       0.50000000       0.25000000 </v>
   <v>       0.50000000       0.50000000       0.25000000 </v>
   <v>      -0.41666667       0.50000000       0.25000000 </v>
   <v>      -0.33333333       0.50000000       0.25000000 </v>
   <v>      -0.25000000       0.50000000       0.25000000 </v>
   <v>      -0.16666667       0.50000000       0.25000000 </v>
   <v>      -0.08333333       0.50000000       0.25000000 </v>
   <v>       0.00000000       0.00000000       0.37500000 </v>
   <v>       0.08333333       0.00000000       0.37500000 </v>
   <v>       0.16666667       0.00000000       0.37500000 </v>
   <v>       0.25000000       0.00000000       0.37500000 </v>
   <v>       0.33333333       0.00000000       0.37500000 </v>
   <v>       0.41666667       0.00000000       0.37500000 </v>
   <v>       0.50000000       0.00000000       0.37500000 </v>
   <v>      -0.41666667       0.00000000       0.37500000 </v>
   <v>      -0.33333333       0.00000000       0.37500000 </v>
   <v>      -0.25000000       0.00000000       0.37500000 </v>
   <v>      -0.16666667       0.00000000       0.37500000 </v>
   <v>      -0.08333333       0.00000000       0.37500000 </v>
   <v>       0.00000000       0.08333333       0.37500000 </v>
   <v>       0.08333333       0.08333333       0.37500000 </v>
   <v>       0.16666667       0.08333333       0.37500000 </v>
   <v>       0.25000000       0.08333333       0.37500000 </v>
   <v>       0.33333333       0.08333333       0.37500000 </v>
   <v>       0.41666667       0.08333333       0.37500000 </v>
   <v>       0.50000000       0.08333333       0.37500000 </v>
   <v>      -0.41666667       0.08333333       0.37500000 </v>
   <v>      -0.33333333       0.08333333       0.37500000 </v>
   <v>      -0.25000000       0.08333333       0.37500000 </v>
   <v>      -0.16666667       0.08333333       0.37500000 </v>
   <v>      -0.08333333       0.08333333       0.37500000 </v>
   <v>       0.00000000       0.16666667       0.37500000 </v>
   <v>       0.08333333       0.16666667       0.37500000 </v>
   <v>       0.16666667       0.16666667       0.37500000 </v>
   <v>       0.25000000       0.16666667       0.37500000 </v>
   <v>       0.33333333       0.16666667       0.37500000 </v>
   <v>       0.41666667       0.16666667       0.37500000 </v>
   <v>       0.50000000       0.16666667       0.37500000 </v>
   <v>      -0.41666667       0.16666667       0.37500000 </v>
   <v>      -0.33333333       0.16666667       0.37500000 </v>
   <v>      -0.25000000       0.16666667       0.37500000 </v>
   <v>      -0.16666667       0.16666667       0.37500000 </v>
   <v>      -0.08333333       0.16666667       0.37500000 </v>
   <v>       0.00000000       0.25000000       0.37500000 </v>
   <v>       0.08333333       0.25000000       0.37500000 </v>
   <v>       0.16666667       0.25000000       0.37500000 </v>
   <v>       0.25000000       0.25000000       0.37500000 </v>
   <v>       0.33333333       0.25000000       0.37500000 </v>
   <v>       0.41666667       0.25000000       0.37500000 </v>
   <v>       0.50000000       0.25000000       0.37500000 </v>
   <v>      -0.41666667       0.25000000       0.37500000 </v>
   <v>      -0.33333333       0.25000000       0.37500000 </v>
   <v>      -0.25000000       0.25000000       0.37500000 </v>
   <v>      -0.16666667       0.25000000       0.37500000 </v>
   <v>      -0.08333333       0.25000000       0.37500000 </v>
   <v>       0.00000000       0.33333333       0.37500000 </v>
   <v>       0.08333333       0.33333333       0.37500000 </v>
   <v>       0.16666667       0.33333333       0.37500000 </v>
   <v>       0.25000000       0.33333333       0.37500000 </v>
   <v>       0.33333333       0.33333333       0.37500000 </v>
   <v>       0.41666667       0.33333333       0.37500000 </v>
   <v>       0.50000000       0.33333333       0.37500000 </v>
   <v>      -0.41666667       0.33333333       0.37500000 </v>
   <v>      -0.33333333       0.33333333       0.37500000 </v>
   <v>      -0.25000000       0.33333333       0.37500000 </v>
   <v>      -0.16666667       0.33333333       0.37500000 </v>
   <v>      -0.08333333       0.33333333       0.37500000 </v>
   <v>       0.00000000       0.41666667       0.37500000 </v>
   <v>       0.08333333       0.41666667       0.37500000 </v>
   <v>       0.16666667       0.41666667       0.37500000 </v>
   <v>       0.25000000       0.41666667       0.37500000 </v>
   <v>       0.33333333       0.41666667       0.37500000 </v>
   <v>       0.41666667       0.41666667       0.37500000 </v>
   <v>       0.50000000       0.41666667       0.37500000 </v>
   <v>      -0.41666667       0.41666667       0.37500000 </v>
   <v>      -0.33333333       0.41666667       0.37500000 </v>
   <v>      -0.25000000       0.41666667       0.37500000 </v>
   <v>      -0.16666667       0.41666667       0.37500000 </v>
   <v>      -0.08333333       0.41666667       0.37500000 </v>
   <v>       0.00000000       0.50000000       0.37500000 </v>
   <v>       0.08333333       0.50000000       0.37500000 </v>
   <v>       0.16666667       0.50000000       0.37500000 </v>
   <v>       0.25000000       0.50000000       0.37500000 </v>
   <v>       0.33333333       0.50000000       0.37500000 </v>
   <v>       0.41666667       0.50000000       0.37500000 </v>
   <v>       0.50000000       0.50000000       0.37500000 </v>
   <v>      -0.41666667       0.50000000       0.37500000 </v>
   <v>      -0.33333333       0.50000000       0.37500000 </v>
   <v>      -0.25000000       0.50000000       0.37500000 </v>
   <v>      -0.16666667       0.50000000       0.37500000 </v>
   <v>      -0.08333333       0.50000000       0.37500000 </v>
   <v>       0.00000000       0.00000000       0.50000000 </v>
   <v>       0.08333333       0.00000000       0.50000000 </v>
   <v>       0.16666667       0.00000000       0.50000000 </v>
   <v>       0.25000000       0.00000000       0.50000000 </v>
   <v>       0.33333333       0.00000000       0.50000000 </v>
   <v>       0.41666667       0.00000000       0.50000000 </v>
   <v>       0.50000000       0.00000000       0.50000000 </v>
   <v>       0.00000000       0.08333333       0.50000000 </v>
   <v>       0.08333333       0.08333333       0.50000000 </v>
   <v>       0.16666667       0.08333333       0.50000000 </v>
   <v>       0.25000000       0.08333333       0.50000000 </v>
   <v>       0.33333333       0.08333333       0.50000000 </v>
   <v>       0.41666667       0.08333333       0.50000000 </v>
   <v>       0.50000000       0.08333333       0.50000000 </v>
   <v>       0.00000000       0.16666667       0.50000000 </v>
   <v>       0.08333333       0.16666667       0.50000000 </v>
   <v>       0.16666667       0.16666667       0.50000000 </v>
   <v>       0.25000000       0.16666667       0.50000000 </v>
   <v>       0.33333333       0.16666667       0.50000000 </v>
   <v>       0.41666667       0.16666667       0.50000000 </v>
   <v>       0.50000000       0.16666667       0.50000000 </v>
   <v>       0.00000000       0.25000000       0.50000000 </v>
   <v>       0.08333333       0.25000000       0.50000000 </v>
   <v>       0.16666667       0.25000000       0.50000000 </v>
   <v>       0.25000000       0.25000000       0.50000000 </v>
   <v>       0.33333333       0.25000000       0.50000000 </v>
   <v>       0.41666667       0.25000000       0.50000000 </v>
   <v>       0.50000000       0.25000000       0.50000000 </v>
   <v>       0.00000000       0.33333333       0.50000000 </v>
   <v>       0.08333333       0.33333333       0.50000000 </v>
   <v>       0.16666667       0.33333333       0.50000000 </v>
   <v>       0.25000000       0.33333333       0.50000000 </v>
   <v>       0.33333333       0.33333333       0.50000000 </v>
   <v>       0.41666667       0.33333333       0.50000000 </v>
   <v>       0.50000000       0.33333333       0.50000000 </v>
   <v>       0.00000000       0.41666667       0.50000000 </v>
   <v>       0.08333333       0.41666667       0.50000000 </v>
   <v>       0.16666667       0.41666667       0.50000000 </v>
   <v>       0.25000000       0.41666667       0.50000000 </v>
   <v>       0.33333333       0.41666667       0.50000000 </v>
   <v>       0.41666667       0.41666667       0.50000000 </v>
   <v>       0.50000000       0.41666667       0.50000000 </v>
   <v>       0.00000000       0.50000000       0.50000000 </v>
   <v>       0.08333333       0.50000000       0.50000000 </v>
   <v>       0.16666667       0.50000000       0.50000000 </v>
   <v>       0.25000000       0.50000000       0.50000000 </v>
   <v>       0.33333333       0.50000000       0.50000000 </v>
   <v>       0.41666667       0.50000000       0.50000000 </v>
   <v>       0.50000000       0.50000000       0.50000000 </v>
  </varray>
  <varray name="weights" >
   <v>       0.00086806 </v>
   <v>       0.00173611 </v>
   <v>       0.00173611 </v>
   <v>       0.00173611 </v>
   <v>       0.00173611 </v>
   <v>       0.00173611 </v>
   <v>       0.00086806 </v>
   <v>       0.00173611 </v>
   <v>       0.00347222 </v>
   <v>       0.00347222 </v>
   <v>       0.00347222 </v>
   <v>       0.00347222 </v>
   <v>       0.00347222 </v>
   <v>       0.00173611 </v>
   <v>       0.00173611 </v>
   <v>       0.00347222 </v>
   <v>       0.00347222 </v>
   <v>       0.00347222 </v>
   <v>       0.00347222 </v>
   <v>       0.00347222 </v>
   <v>       0.00173611 </v>
   <v>       0.00173611 </v>
   <v>       0.00347222 </v>
   <v>       0.00347222 </v>
   <v>       0.00347222 </v>
   <v>       0.00347222 </v>
   <v>       0.00347222 </v>
   <v>       0.00173611 </v>
   <v>       0.00173611 </v>
   <v>       0.00347222 </v>
   <v>       0.00347222 </v>
   <v>       0.00347222 </v>
   <v>       0.00347222 </v>
   <v>       0.00347222 </v>
   <v>       0.00173611 </v>
   <v>       0.00173611 </v>
   <v>       0.00347222 </v>
   <v>       0.00347222 </v>
   <v>       0.00347222 </v>
   <v>       0.00347222 </v>
   <v>       0.00347222 </v>
   <v>       0.00173611 </v>
   <v>       0.00086806 </v>
   <v>       0.00173611 </v>
   <v>       0.00173611 </v>
   <v>       0.00173611 </v>
   <v>       0.00173611 </v>
   <v>       0.00173611 </v>
   <v>       0.00086806 </v>
   <v>       0.00173611 </v>
   <v>       0.00173611 </v>
   <v>       0.00173611 </v>
   <v>       0.00173611 </v>
   <v>       0.00173611 </v>
   <v>       0.00173611 </v>
   <v>       0.00173611 </v>
   <v>       0.00173611 </v>
   <v>       0.00173611 </v>
   <v>       0.00173611 </v>
   <v>       0.00173611 </v>
   <v>       0.00173611 </v>
   <v>       0.00347222 </v>
   <v>       0.00347222 </v>
   <v>       0.00347222 </v>
   <v>       0.00347222 </v>
   <v>       0.00347222 </v>
   <v>       0.00347222 </v>
   <v>       0.00347222 </v>
   <v>       0.00347222 </v>
   <v>       0.00347222 </v>
   <v>       0.00347222 </v>
   <v>       0.00347222 </v>
   <v>       0.00347222 </v>
   <v>       0.00347222 </v>
   <v>       0.00347222 </v>
   <v>       0.00347222 </v>
   <v>       0.00347222 </v>
   <v>       0.00347222 </v>
   <v>       0.00347222 </v>
   <v>       0.00347222 </v>
   <v>       0.00347222 </v>
   <v>       0.00347222 </v>
   <v>       0.00347222 </v>
   <v>       0.00347222 </v>
   <v>       0.00347222 </v>
   <v>       0.00347222 </v>
   <v>       0.00347222 </v>
   <v>       0.00347222 </v>
   <v>       0.00347222 </v>
   <v>       0.00347222 </v>
   <v>       0.00347222 </v>
   <v>       0.00347222 </v>
   <v>       0.00347222 </v>
   <v>       0.00347222 </v>
   <v>       0.00347222 </v>
   <v>       0.00347222 </v>
   <v>       0.00347222 </v>
   <v>       0.00347222 </v>
   <v>       0.00347222 </v>
   <v>       0.00347222 </v>
   <v>       0.00347222 </v>
   <v>       0.00347222 </v>
   <v>       0.00347222 </v>
   <v>       0.00347222 </v>
   <v>       0.00347222 </v>
   <v>       0.00347222 </v>
   <v>       0.00347222 </v>
   <v>       0.00347222 </v>
   <v>       0.00347222 </v>
   <v>       0.00347222 </v>
   <v>       0.00347222 </v>
   <v>       0.00347222 </v>
   <v>       0.00347222 </v>
   <v>       0.00347222 </v>
   <v>       0.00347222 </v>
   <v>       0.00347222 </v>
   <v>       0.00347222 </v>
   <v>       0.00347222 </v>
   <v>       0.00347222 </v>
   <v>       0.00347222 </v>
   <v>       0.00347222 </v>
   <v>       0.00173611 </v>
   <v>       0.00173611 </v>
   <v>       0.00173611 </v>
   <v>       0.00173611 </v>
   <v>       0.00173611 </v>
   <v>       0.00173611 </v>
   <v>       0.00173611 </v>
   <v>       0.00173611 </v>
   <v>       0.00173611 </v>
   <v>       0.00173611 </v>
   <v>       0.00173611 </v>
   <v>       0.00173611 </v>
   <v>       0.00173611 </v>
   <v>       0.00173611 </v>
   <v>       0.00173611 </v>
   <v>       0.00173611 </v>
   <v>       0.00173611 </v>
   <v>       0.00173611 </v>
   <v>       0.00173611 </v>
   <v>       0.00173611 </v>
   <v>       0.00173611 </v>
   <v>       0.00173611 </v>
   <v>       0.00173611 </v>
   <v>       0.00173611 </v>
   <v>       0.00347222 </v>
   <v>       0.00347222 </v>
   <v>       0.00347222 </v>
   <v>       0.00347222 </v>
   <v>       0.00347222 </v>
   <v>       0.00347222 </v>
   <v>       0.00347222 </v>
   <v>       0.00347222 </v>
   <v>       0.00347222 </v>
   <v>       0.00347222 </v>
   <v>       0.00347222 </v>
   <v>       0.00347222 </v>
   <v>       0.00347222 </v>
   <v>       0.00347222 </v>
   <v>       0.00347222 </v>
   <v>       0.00347222 </v>
   <v>       0.00347222 </v>
   <v>       0.00347222 </v>
   <v>       0.00347222 </v>
   <v>       0.00347222 </v>
   <v>       0.00347222 </v>
   <v>       0.00347222 </v>
   <v>       0.00347222 </v>
   <v>       0.00347222 </v>
   <v>       0.00347222 </v>
   <v>       0.00347222 </v>
   <v>       0.00347222 </v>
   <v>       0.00347222 </v>
   <v>       0.00347222 </v>
   <v>       0.00347222 </v>
   <v>       0.00347222 </v>
   <v>       0.00347222 </v>
   <v>       0.00347222 </v>
   <v>       0.00347222 </v>
   <v>       0.00347222 </v>
   <v>       0.00347222 </v>
   <v>       0.00347222 </v>
   <v>       0.00347222 </v>
   <v>       0.00347222 </v>
   <v>       0.00347222 </v>
   <v>       0.00347222 </v>
   <v>       0.00347222 </v>
   <v>       0.00347222 </v>
   <v>       0.00347222 </v>
   <v>       0.00347222 </v>
   <v>       0.00347222 </v>
   <v>       0.00347222 </v>
   <v>       0.00347222 </v>
   <v>       0.00347222 </v>
   <v>       0.00347222 </v>
   <v>       0.00347222 </v>
   <v>       0.00347222 </v>
   <v>       0.00347222 </v>
   <v>       0.00347222 </v>
   <v>       0.00347222 </v>
   <v>       0.00347222 </v>
   <v>       0.00347222 </v>
   <v>       0.00347222 </v>
   <v>       0.00347222 </v>
   <v>       0.00347222 </v>
   <v>       0.00173611 </v>
   <v>       0.00173611 </v>
   <v>       0.00173611 </v>
   <v>       0.00173611 </v>
   <v>       0.00173611 </v>
   <v>       0.00173611 </v>
   <v>       0.00173611 </v>
   <v>       0.00173611 </v>
   <v>       0.00173611 </v>
   <v>       0.00173611 </v>
   <v>       0.00173611 </v>
   <v>       0.00173611 </v>
   <v>       0.00173611 </v>
   <v>       0.00173611 </v>
   <v>       0.00173611 </v>
   <v>       0.00173611 </v>
   <v>       0.00173611 </v>
   <v>       0.00173611 </v>
   <v>       0.00173611 </v>
   <v>       0.00173611 </v>
   <v>       0.00173611 </v>
   <v>       0.00173611 </v>
   <v>       0.00173611 </v>
   <v>       0.00173611 </v>
   <v>       0.00347222 </v>
   <v>       0.00347222 </v>
   <v>       0.00347222 </v>
   <v>       0.00347222 </v>
   <v>       0.00347222 </v>
   <v>       0.00347222 </v>
   <v>       0.00347222 </v>
   <v>       0.00347222 </v>
   <v>       0.00347222 </v>
   <v>       0.00347222 </v>
   <v>       0.00347222 </v>
   <v>       0.00347222 </v>
   <v>       0.00347222 </v>
   <v>       0.00347222 </v>
   <v>       0.00347222 </v>
   <v>       0.00347222 </v>
   <v>       0.00347222 </v>
   <v>       0.00347222 </v>
   <v>       0.00347222 </v>
   <v>       0.00347222 </v>
   <v>       0.00347222 </v>
   <v>       0.00347222 </v>
   <v>       0.00347222 </v>
   <v>       0.00347222 </v>
   <v>       0.00347222 </v>
   <v>       0.00347222 </v>
   <v>       0.00347222 </v>
   <v>       0.00347222 </v>
   <v>       0.00347222 </v>
   <v>       0.00347222 </v>
   <v>       0.00347222 </v>
   <v>       0.00347222 </v>
   <v>       0.00347222 </v>
   <v>       0.00347222 </v>
   <v>       0.00347222 </v>
   <v>       0.00347222 </v>
   <v>       0.00347222 </v>
   <v>       0.00347222 </v>
   <v>       0.00347222 </v>
   <v>       0.00347222 </v>
   <v>       0.00347222 </v>
   <v>       0.00347222 </v>
   <v>       0.00347222 </v>
   <v>       0.00347222 </v>
   <v>       0.00347222 </v>
   <v>       0.00347222 </v>
   <v>       0.00347222 </v>
   <v>       0.00347222 </v>
   <v>       0.00347222 </v>
   <v>       0.00347222 </v>
   <v>       0.00347222 </v>
   <v>       0.00347222 </v>
   <v>       0.00347222 </v>
   <v>       0.00347222 </v>
   <v>       0.00347222 </v>
   <v>       0.00347222 </v>
   <v>       0.00347222 </v>
   <v>       0.00347222 </v>
   <v>       0.00347222 </v>
   <v>       0.00347222 </v>
   <v>       0.00173611 </v>
   <v>       0.00173611 </v>
   <v>       0.00173611 </v>
   <v>       0.00173611 </v>
   <v>       0.00173611 </v>
   <v>       0.00173611 </v>
   <v>       0.00173611 </v>
   <v>       0.00173611 </v>
   <v>       0.00173611 </v>
   <v>       0.00173611 </v>
   <v>       0.00173611 </v>
   <v>       0.00173611 </v>
   <v>       0.00086806 </v>
   <v>       0.00173611 </v>
   <v>       0.00173611 </v>
   <v>       0.00173611 </v>
   <v>       0.00173611 </v>
   <v>       0.00173611 </v>
   <v>       0.00086806 </v>
   <v>       0.00173611 </v>
   <v>       0.00347222 </v>
   <v>       0.00347222 </v>
   <v>       0.00347222 </v>
   <v>       0.00347222 </v>
   <v>       0.00347222 </v>
   <v>       0.00173611 </v>
   <v>       0.00173611 </v>
   <v>       0.00347222 </v>
   <v>       0.00347222 </v>
   <v>       0.00347222 </v>
   <v>       0.00347222 </v>
   <v>       0.00347222 </v>
   <v>       0.00173611 </v>
   <v>       0.00173611 </v>
   <v>       0.00347222 </v>
   <v>       0.00347222 </v>
   <v>       0.00347222 </v>
   <v>       0.00347222 </v>
   <v>       0.00347222 </v>
   <v>       0.00173611 </v>
   <v>       0.00173611 </v>
   <v>       0.00347222 </v>
   <v>       0.00347222 </v>
   <v>       0.00347222 </v>
   <v>       0.00347222 </v>
   <v>       0.00347222 </v>
   <v>       0.00173611 </v>
   <v>       0.00173611 </v>
   <v>       0.00347222 </v>
   <v>       0.00347222 </v>
   <v>       0.00347222 </v>
   <v>       0.00347222 </v>
   <v>       0.00347222 </v>
   <v>       0.00173611 </v>
   <v>       0.00086806 </v>
   <v>       0.00173611 </v>
   <v>       0.00173611 </v>
   <v>       0.00173611 </v>
   <v>       0.00173611 </v>
   <v>       0.00173611 </v>
   <v>       0.00086806 </v>
  </varray>
  <varray name="tetrahedronlist"  type="int" >
   <v type="int" >        2        1        2        9       50 </v>
   <v type="int" >        2        1        8        9       50 </v>
   <v type="int" >        2        8        9       50       62 </v>
   <v type="int" >        2        2        9       50       51 </v>
   <v type="int" >        2        9       50       51       63 </v>
   <v type="int" >        2        9       50       62       63 </v>
   <v type="int" >        2        2        3       10       51 </v>
   <v type="int" >        2        2        9       10       51 </v>
   <v type="int" >        2        9       10       51       63 </v>
   <v type="int" >        2        3       10       51       52 </v>
   <v type="int" >        2       10       51       52       64 </v>
   <v type="int" >        2       10       51       63       64 </v>
   <v type="int" >        2        3        4       11       52 </v>
   <v type="int" >        2        3       10       11       52 </v>
   <v type="int" >        2       10       11       52       64 </v>
   <v type="int" >        2        4       11       52       53 </v>
   <v type="int" >        2       11       52       53       65 </v>
   <v type="int" >        2       11       52       64       65 </v>
   <v type="int" >        2        4        5       12       53 </v>
   <v type="int" >        2        4       11       12       53 </v>
   <v type="int" >        2       11       12       53       65 </v>
   <v type="int" >        2        5       12       53       54 </v>
   <v type="int" >        2       12       53       54       66 </v>
   <v type="int" >        2       12       53       65       66 </v>
   <v type="int" >        2        5        6       13       54 </v>
   <v type="int" >        2        5       12       13       54 </v>
   <v type="int" >        2       12       13       54       66 </v>
   <v type="int" >        2        6       13       54       55 </v>
   <v type="int" >        2       13       54       55       67 </v>
   <v type="int" >        2       13       54       66       67 </v>
   <v type="int" >        2        6        7       14       55 </v>
   <v type="int" >        2        6       13       14       55 </v>
   <v type="int" >        2       13       14       55       67 </v>
   <v type="int" >        2        7       14       55       56 </v>
   <v type="int" >        2       14       55       56       68 </v>
   <v type="int" >        2       14       55       67       68 </v>
   <v type="int" >        2        6        7       13       56 </v>
   <v type="int" >        2        7       13       14       56 </v>
   <v type="int" >        2       13       14       56       68 </v>
   <v type="int" >        2        6       13       56       57 </v>
   <v type="int" >        2       13       56       57       69 </v>
   <v type="int" >        2       13       56       68       69 </v>
   <v type="int" >        2        5        6       12       57 </v>
   <v type="int" >        2        6       12       13       57 </v>
   <v type="int" >        2       12       13       57       69 </v>
   <v type="int" >        2        5       12       57       58 </v>
   <v type="int" >        2       12       57       58       70 </v>
   <v type="int" >        2       12       57       69       70 </v>
   <v type="int" >        2        4        5       11       58 </v>
   <v type="int" >        2        5       11       12       58 </v>
   <v type="int" >        2       11       12       58       70 </v>
   <v type="int" >        2        4       11       58       59 </v>
   <v type="int" >        2       11       58       59       71 </v>
   <v type="int" >        2       11       58       70       71 </v>
   <v type="int" >        2        3        4       10       59 </v>
   <v type="int" >        2        4       10       11       59 </v>
   <v type="int" >        2       10       11       59       71 </v>
   <v type="int" >        2        3       10       59       60 </v>
   <v type="int" >        2       10       59       60       72 </v>
   <v type="int" >        2       10       59       71       72 </v>
   <v type="int" >        2        2        3        9       60 </v>
   <v type="int" >        2        3        9       10       60 </v>
   <v type="int" >        2        9       10       60       72 </v>
   <v type="int" >        2        2        9       60       61 </v>
   <v type="int" >        2        9       60       61       73 </v>
   <v type="int" >        2        9       60       72       73 </v>
   <v type="int" >        2        1        2        8       61 </v>
   <v type="int" >        2        2        8        9       61 </v>
   <v type="int" >        2        8        9       61       73 </v>
   <v type="int" >        2        1        8       50       61 </v>
   <v type="int" >        2        8       50       61       62 </v>
   <v type="int" >        2        8       61       62       73 </v>
   <v type="int" >        2        8        9       16       62 </v>
   <v type="int" >        2        8       15       16       62 </v>
   <v type="int" >        2       15       16       62       74 </v>
   <v type="int" >        2        9       16       62       63 </v>
   <v type="int" >        2       16       62       63       75 </v>
   <v type="int" >        2       16       62       74       75 </v>
   <v type="int" >        2        9       10       17       63 </v>
   <v type="int" >        2        9       16       17       63 </v>
   <v type="int" >        2       16       17       63       75 </v>
   <v type="int" >        2       10       17       63       64 </v>
   <v type="int" >        2       17       63       64       76 </v>
   <v type="int" >        2       17       63       75       76 </v>
   <v type="int" >        2       10       11       18       64 </v>
   <v type="int" >        2       10       17       18       64 </v>
   <v type="int" >        2       17       18       64       76 </v>
   <v type="int" >        2       11       18       64       65 </v>
   <v type="int" >        2       18       64       65       77 </v>
   <v type="int" >        2       18       64       76       77 </v>
   <v type="int" >        2       11       12       19       65 </v>
   <v type="int" >        2       11       18       19       65 </v>
   <v type="int" >        2       18       19       65       77 </v>
   <v type="int" >        2       12       19       65       66 </v>
   <v type="int" >        2       19       65       66       78 </v>
   <v type="int" >        2       19       65       77       78 </v>
   <v type="int" >        2       12       13       20       66 </v>
   <v type="int" >        2       12       19       20       66 </v>
   <v type="int" >        2       19       20       66       78 </v>
   <v type="int" >        2       13       20       66       67 </v>
   <v type="int" >        2       20       66       67       79 </v>
   <v type="int" >        2       20       66       78       79 </v>
   <v type="int" >        2       13       14       21       67 </v>
   <v type="int" >        2       13       20       21       67 </v>
   <v type="int" >        2       20       21       67       79 </v>
   <v type="int" >        2       14       21       67       68 </v>
   <v type="int" >        2       21       67       68       80 </v>
   <v type="int" >        2       21       67       79       80 </v>
   <v type="int" >        2       13       14       20       68 </v>
   <v type="int" >        2       14       20       21       68 </v>
   <v type="int" >        2       20       21       68       80 </v>
   <v type="int" >        2       13       20       68       69 </v>
   <v type="int" >        2       20       68       69       81 </v>
   <v type="int" >        2       20       68       80       81 </v>
   <v type="int" >        2       12       13       19       69 </v>
   <v type="int" >        2       13       19       20       69 </v>
   <v type="int" >        2       19       20       69       81 </v>
   <v type="int" >        2       12       19       69       70 </v>
   <v type="int" >        2       19       69       70       82 </v>
   <v type="int" >        2       19       69       81       82 </v>
   <v type="int" >        2       11       12       18       70 </v>
   <v type="int" >        2       12       18       19       70 </v>
   <v type="int" >        2       18       19       70       82 </v>
   <v type="int" >        2       11       18       70       71 </v>
   <v type="int" >        2       18       70       71       83 </v>
   <v type="int" >        2       18       70       82       83 </v>
   <v type="int" >        2       10       11       17       71 </v>
   <v type="int" >        2       11       17       18       71 </v>
   <v type="int" >        2       17       18       71       83 </v>
   <v type="int" >        2       10       17       71       72 </v>
   <v type="int" >        2       17       71       72       84 </v>
   <v type="int" >        2       17       71       83       84 </v>
   <v type="int" >        2        9       10       16       72 </v>
   <v type="int" >        2       10       16       17       72 </v>
   <v type="int" >        2       16       17       72       84 </v>
   <v type="int" >        2        9       16       72       73 </v>
   <v type="int" >        2       16       72       73       85 </v>
   <v type="int" >        2       16       72       84       85 </v>
   <v type="int" >        2        8        9       15       73 </v>
   <v type="int" >        2        9       15       16       73 </v>
   <v type="int" >        2       15       16       73       85 </v>
   <v type="int" >        2        8       15       62       73 </v>
   <v type="int" >        2       15       62       73       74 </v>
   <v type="int" >        2       15       73       74       85 </v>
   <v type="int" >        2       15       16       23       74 </v>
   <v type="int" >        2       15       22       23       74 </v>
   <v type="int" >        2       22       23       74       86 </v>
   <v type="int" >        2       16       23       74       75 </v>
   <v type="int" >        2       23       74       75       87 </v>
   <v type="int" >        2       23       74       86       87 </v>
   <v type="int" >        2       16       17       24       75 </v>
   <v type="int" >        2       16       23       24       75 </v>
   <v type="int" >        2       23       24       75       87 </v>
   <v type="int" >        2       17       24       75       76 </v>
   <v type="int" >        2       24       75       76       88 </v>
   <v type="int" >        2       24       75       87       88 </v>
   <v type="int" >        2       17       18       25       76 </v>
   <v type="int" >        2       17       24       25       76 </v>
   <v type="int" >        2       24       25       76       88 </v>
   <v type="int" >        2       18       25       76       77 </v>
   <v type="int" >        2       25       76       77       89 </v>
   <v type="int" >        2       25       76       88       89 </v>
   <v type="int" >        2       18       19       26       77 </v>
   <v type="int" >        2       18       25       26       77 </v>
   <v type="int" >        2       25       26       77       89 </v>
   <v type="int" >        2       19       26       77       78 </v>
   <v type="int" >        2       26       77       78       90 </v>
   <v type="int" >        2       26       77       89       90 </v>
   <v type="int" >        2       19       20       27       78 </v>
   <v type="int" >        2       19       26       27       78 </v>
   <v type="int" >        2       26       27       78       90 </v>
   <v type="int" >        2       20       27       78       79 </v>
   <v type="int" >        2       27       78       79       91 </v>
   <v type="int" >        2       27       78       90       91 </v>
   <v type="int" >        2       20       21       28       79 </v>
   <v type="int" >        2       20       27       28       79 </v>
   <v type="int" >        2       27       28       79       91 </v>
   <v type="int" >        2       21       28       79       80 </v>
   <v type="int" >        2       28       79       80       92 </v>
   <v type="int" >        2       28       79       91       92 </v>
   <v type="int" >        2       20       21       27       80 </v>
   <v type="int" >        2       21       27       28       80 </v>
   <v type="int" >        2       27       28       80       92 </v>
   <v type="int" >        2       20       27       80       81 </v>
   <v type="int" >        2       27       80       81       93 </v>
   <v type="int" >        2       27       80       92       93 </v>
   <v type="int" >        2       19       20       26       81 </v>
   <v type="int" >        2       20       26       27       81 </v>
   <v type="int" >        2       26       27       81       93 </v>
   <v type="int" >        2       19       26       81       82 </v>
   <v type="int" >        2       26       81       82       94 </v>
   <v type="int" >        2       26       81       93       94 </v>
   <v type="int" >        2       18       19       25       82 </v>
   <v type="int" >        2       19       25       26       82 </v>
   <v type="int" >        2       25       26       82       94 </v>
   <v type="int" >        2       18       25       82       83 </v>
   <v type="int" >        2       25       82       83       95 </v>
   <v type="int" >        2       25       82       94       95 </v>
   <v type="int" >        2       17       18       24       83 </v>
   <v type="int" >        2       18       24       25       83 </v>
   <v type="int" >        2       24       25       83       95 </v>
   <v type="int" >        2       17       24       83       84 </v>
   <v type="int" >        2       24       83       84       96 </v>
   <v type="int" >        2       24       83       95       96 </v>
   <v type="int" >        2       16       17       23       84 </v>
   <v type="int" >        2       17       23       24       84 </v>
   <v type="int" >        2       23       24       84       96 </v>
   <v type="int" >        2       16       23       84       85 </v>
   <v type="int" >        2       23       84       85       97 </v>
   <v type="int" >        2       23       84       96       97 </v>
   <v type="int" >        2       15       16       22       85 </v>
   <v type="int" >        2       16       22       23       85 </v>
   <v type="int" >        2       22       23       85       97 </v>
   <v type="int" >        2       15       22       74       85 </v>
   <v type="int" >        2       22       74       85       86 </v>
   <v type="int" >        2       22       85       86       97 </v>
   <v type="int" >        2       22       23       30       86 </v>
   <v type="int" >        2       22       29       30       86 </v>
   <v type="int" >        2       29       30       86       98 </v>
   <v type="int" >        2       23       30       86       87 </v>
   <v type="int" >        2       30       86       87       99 </v>
   <v type="int" >        2       30       86       98       99 </v>
   <v type="int" >        2       23       24       31       87 </v>
   <v type="int" >        2       23       30       31       87 </v>
   <v type="int" >        2       30       31       87       99 </v>
   <v type="int" >        2       24       31       87       88 </v>
   <v type="int" >        2       31       87       88      100 </v>
   <v type="int" >        2       31       87       99      100 </v>
   <v type="int" >        2       24       25       32       88 </v>
   <v type="int" >        2       24       31       32       88 </v>
   <v type="int" >        2       31       32       88      100 </v>
   <v type="int" >        2       25       32       88       89 </v>
   <v type="int" >        2       32       88       89      101 </v>
   <v type="int" >        2       32       88      100      101 </v>
   <v type="int" >        2       25       26       33       89 </v>
   <v type="int" >        2       25       32       33       89 </v>
   <v type="int" >        2       32       33       89      101 </v>
   <v type="int" >        2       26       33       89       90 </v>
   <v type="int" >        2       33       89       90      102 </v>
   <v type="int" >        2       33       89      101      102 </v>
   <v type="int" >        2       26       27       34       90 </v>
   <v type="int" >        2       26       33       34       90 </v>
   <v type="int" >        2       33       34       90      102 </v>
   <v type="int" >        2       27       34       90       91 </v>
   <v type="int" >        2       34       90       91      103 </v>
   <v type="int" >        2       34       90      102      103 </v>
   <v type="int" >        2       27       28       35       91 </v>
   <v type="int" >        2       27       34       35       91 </v>
   <v type="int" >        2       34       35       91      103 </v>
   <v type="int" >        2       28       35       91       92 </v>
   <v type="int" >        2       35       91       92      104 </v>
   <v type="int" >        2       35       91      103      104 </v>
   <v type="int" >        2       27       28       34       92 </v>
   <v type="int" >        2       28       34       35       92 </v>
   <v type="int" >        2       34       35       92      104 </v>
   <v type="int" >        2       27       34       92       93 </v>
   <v type="int" >        2       34       92       93      105 </v>
   <v type="int" >        2       34       92      104      105 </v>
   <v type="int" >        2       26       27       33       93 </v>
   <v type="int" >        2       27       33       34       93 </v>
   <v type="int" >        2       33       34       93      105 </v>
   <v type="int" >        2       26       33       93       94 </v>
   <v type="int" >        2       33       93       94      106 </v>
   <v type="int" >        2       33       93      105      106 </v>
   <v type="int" >        2       25       26       32       94 </v>
   <v type="int" >        2       26       32       33       94 </v>
   <v type="int" >        2       32       33       94      106 </v>
   <v type="int" >        2       25       32       94       95 </v>
   <v type="int" >        2       32       94       95      107 </v>
   <v type="int" >        2       32       94      106      107 </v>
   <v type="int" >        2       24       25       31       95 </v>
   <v type="int" >        2       25       31       32       95 </v>
   <v type="int" >        2       31       32       95      107 </v>
   <v type="int" >        2       24       31       95       96 </v>
   <v type="int" >        2       31       95       96      108 </v>
   <v type="int" >        2       31       95      107      108 </v>
   <v type="int" >        2       23       24       30       96 </v>
   <v type="int" >        2       24       30       31       96 </v>
   <v type="int" >        2       30       31       96      108 </v>
   <v type="int" >        2       23       30       96       97 </v>
   <v type="int" >        2       30       96       97      109 </v>
   <v type="int" >        2       30       96      108      109 </v>
   <v type="int" >        2       22       23       29       97 </v>
   <v type="int" >        2       23       29       30       97 </v>
   <v type="int" >        2       29       30       97      109 </v>
   <v type="int" >        2       22       29       86       97 </v>
   <v type="int" >        2       29       86       97       98 </v>
   <v type="int" >        2       29       97       98      109 </v>
   <v type="int" >        2       29       30       37       98 </v>
   <v type="int" >        2       29       36       37       98 </v>
   <v type="int" >        2       36       37       98      110 </v>
   <v type="int" >        2       30       37       98       99 </v>
   <v type="int" >        2       37       98       99      111 </v>
   <v type="int" >        2       37       98      110      111 </v>
   <v type="int" >        2       30       31       38       99 </v>
   <v type="int" >        2       30       37       38       99 </v>
   <v type="int" >        2       37       38       99      111 </v>
   <v type="int" >        2       31       38       99      100 </v>
   <v type="int" >        2       38       99      100      112 </v>
   <v type="int" >        2       38       99      111      112 </v>
   <v type="int" >        2       31       32       39      100 </v>
   <v type="int" >        2       31       38       39      100 </v>
   <v type="int" >        2       38       39      100      112 </v>
   <v type="int" >        2       32       39      100      101 </v>
   <v type="int" >        2       39      100      101      113 </v>
   <v type="int" >        2       39      100      112      113 </v>
   <v type="int" >        2       32       33       40      101 </v>
   <v type="int" >        2       32       39       40      101 </v>
   <v type="int" >        2       39       40      101      113 </v>
   <v type="int" >        2       33       40      101      102 </v>
   <v type="int" >        2       40      101      102      114 </v>
   <v type="int" >        2       40      101      113      114 </v>
   <v type="int" >        2       33       34       41      102 </v>
   <v type="int" >        2       33       40       41      102 </v>
   <v type="int" >        2       40       41      102      114 </v>
   <v type="int" >        2       34       41      102      103 </v>
   <v type="int" >        2       41      102      103      115 </v>
   <v type="int" >        2       41      102      114      115 </v>
   <v type="int" >        2       34       35       42      103 </v>
   <v type="int" >        2       34       41       42      103 </v>
   <v type="int" >        2       41       42      103      115 </v>
   <v type="int" >        2       35       42      103      104 </v>
   <v type="int" >        2       42      103      104      116 </v>
   <v type="int" >        2       42      103      115      116 </v>
   <v type="int" >        2       34       35       41      104 </v>
   <v type="int" >        2       35       41       42      104 </v>
   <v type="int" >        2       41       42      104      116 </v>
   <v type="int" >        2       34       41      104      105 </v>
   <v type="int" >        2       41      104      105      117 </v>
   <v type="int" >        2       41      104      116      117 </v>
   <v type="int" >        2       33       34       40      105 </v>
   <v type="int" >        2       34       40       41      105 </v>
   <v type="int" >        2       40       41      105      117 </v>
   <v type="int" >        2       33       40      105      106 </v>
   <v type="int" >        2       40      105      106      118 </v>
   <v type="int" >        2       40      105      117      118 </v>
   <v type="int" >        2       32       33       39      106 </v>
   <v type="int" >        2       33       39       40      106 </v>
   <v type="int" >        2       39       40      106      118 </v>
   <v type="int" >        2       32       39      106      107 </v>
   <v type="int" >        2       39      106      107      119 </v>
   <v type="int" >        2       39      106      118      119 </v>
   <v type="int" >        2       31       32       38      107 </v>
   <v type="int" >        2       32       38       39      107 </v>
   <v type="int" >        2       38       39      107      119 </v>
   <v type="int" >        2       31       38      107      108 </v>
   <v type="int" >        2       38      107      108      120 </v>
   <v type="int" >        2       38      107      119      120 </v>
   <v type="int" >        2       30       31       37      108 </v>
   <v type="int" >        2       31       37       38      108 </v>
   <v type="int" >        2       37       38      108      120 </v>
   <v type="int" >        2       30       37      108      109 </v>
   <v type="int" >        2       37      108      109      121 </v>
   <v type="int" >        2       37      108      120      121 </v>
   <v type="int" >        2       29       30       36      109 </v>
   <v type="int" >        2       30       36       37      109 </v>
   <v type="int" >        2       36       37      109      121 </v>
   <v type="int" >        2       29       36       98      109 </v>
   <v type="int" >        2       36       98      109      110 </v>
   <v type="int" >        2       36      109      110      121 </v>
   <v type="int" >        2       36       37       44      110 </v>
   <v type="int" >        2       36       43       44      110 </v>
   <v type="int" >        2       43       44      110      122 </v>
   <v type="int" >        2       37       44      110      111 </v>
   <v type="int" >        2       44      110      111      123 </v>
   <v type="int" >        2       44      110      122      123 </v>
   <v type="int" >        2       37       38       45      111 </v>
   <v type="int" >        2       37       44       45      111 </v>
   <v type="int" >        2       44       45      111      123 </v>
   <v type="int" >        2       38       45      111      112 </v>
   <v type="int" >        2       45      111      112      124 </v>
   <v type="int" >        2       45      111      123      124 </v>
   <v type="int" >        2       38       39       46      112 </v>
   <v type="int" >        2       38       45       46      112 </v>
   <v type="int" >        2       45       46      112      124 </v>
   <v type="int" >        2       39       46      112      113 </v>
   <v type="int" >        2       46      112      113      125 </v>
   <v type="int" >        2       46      112      124      125 </v>
   <v type="int" >        2       39       40       47      113 </v>
   <v type="int" >        2       39       46       47      113 </v>
   <v type="int" >        2       46       47      113      125 </v>
   <v type="int" >        2       40       47      113      114 </v>
   <v type="int" >        2       47      113      114      126 </v>
   <v type="int" >        2       47      113      125      126 </v>
   <v type="int" >        2       40       41       48      114 </v>
   <v type="int" >        2       40       47       48      114 </v>
   <v type="int" >        2       47       48      114      126 </v>
   <v type="int" >        2       41       48      114      115 </v>
   <v type="int" >        2       48      114      115      127 </v>
   <v type="int" >        2       48      114      126      127 </v>
   <v type="int" >        2       41       42       49      115 </v>
   <v type="int" >        2       41       48       49      115 </v>
   <v type="int" >        2       48       49      115      127 </v>
   <v type="int" >        2       42       49      115      116 </v>
   <v type="int" >        2       49      115      116      128 </v>
   <v type="int" >        2       49      115      127      128 </v>
   <v type="int" >        2       41       42       48      116 </v>
   <v type="int" >        2       42       48       49      116 </v>
   <v type="int" >        2       48       49      116      128 </v>
   <v type="int" >        2       41       48      116      117 </v>
   <v type="int" >        2       48      116      117      129 </v>
   <v type="int" >        2       48      116      128      129 </v>
   <v type="int" >        2       40       41       47      117 </v>
   <v type="int" >        2       41       47       48      117 </v>
   <v type="int" >        2       47       48      117      129 </v>
   <v type="int" >        2       40       47      117      118 </v>
   <v type="int" >        2       47      117      118      130 </v>
   <v type="int" >        2       47      117      129      130 </v>
   <v type="int" >        2       39       40       46      118 </v>
   <v type="int" >        2       40       46       47      118 </v>
   <v type="int" >        2       46       47      118      130 </v>
   <v type="int" >        2       39       46      118      119 </v>
   <v type="int" >        2       46      118      119      131 </v>
   <v type="int" >        2       46      118      130      131 </v>
   <v type="int" >        2       38       39       45      119 </v>
   <v type="int" >        2       39       45       46      119 </v>
   <v type="int" >        2       45       46      119      131 </v>
   <v type="int" >        2       38       45      119      120 </v>
   <v type="int" >        2       45      119      120      132 </v>
   <v type="int" >        2       45      119      131      132 </v>
   <v type="int" >        2       37       38       44      120 </v>
   <v type="int" >        2       38       44       45      120 </v>
   <v type="int" >        2       44       45      120      132 </v>
   <v type="int" >        2       37       44      120      121 </v>
   <v type="int" >        2       44      120      121      133 </v>
   <v type="int" >        2       44      120      132      133 </v>
   <v type="int" >        2       36       37       43      121 </v>
   <v type="int" >        2       37       43       44      121 </v>
   <v type="int" >        2       43       44      121      133 </v>
   <v type="int" >        2       36       43      110      121 </v>
   <v type="int" >        2       43      110      121      122 </v>
   <v type="int" >        2       43      121      122      133 </v>
   <v type="int" >        2       37       43       44      122 </v>
   <v type="int" >        2       36       37       43      122 </v>
   <v type="int" >        2       36       37      110      122 </v>
   <v type="int" >        2       37       44      122      123 </v>
   <v type="int" >        2       37      111      122      123 </v>
   <v type="int" >        2       37      110      111      122 </v>
   <v type="int" >        2       38       44       45      123 </v>
   <v type="int" >        2       37       38       44      123 </v>
   <v type="int" >        2       37       38      111      123 </v>
   <v type="int" >        2       38       45      123      124 </v>
   <v type="int" >        2       38      112      123      124 </v>
   <v type="int" >        2       38      111      112      123 </v>
   <v type="int" >        2       39       45       46      124 </v>
   <v type="int" >        2       38       39       45      124 </v>
   <v type="int" >        2       38       39      112      124 </v>
   <v type="int" >        2       39       46      124      125 </v>
   <v type="int" >        2       39      113      124      125 </v>
   <v type="int" >        2       39      112      113      124 </v>
   <v type="int" >        2       40       46       47      125 </v>
   <v type="int" >        2       39       40       46      125 </v>
   <v type="int" >        2       39       40      113      125 </v>
   <v type="int" >        2       40       47      125      126 </v>
   <v type="int" >        2       40      114      125      126 </v>
   <v type="int" >        2       40      113      114      125 </v>
   <v type="int" >        2       41       47       48      126 </v>
   <v type="int" >        2       40       41       47      126 </v>
   <v type="int" >        2       40       41      114      126 </v>
   <v type="int" >        2       41       48      126      127 </v>
   <v type="int" >        2       41      115      126      127 </v>
   <v type="int" >        2       41      114      115      126 </v>
   <v type="int" >        2       42       48       49      127 </v>
   <v type="int" >        2       41       42       48      127 </v>
   <v type="int" >        2       41       42      115      127 </v>
   <v type="int" >        2       42       49      127      128 </v>
   <v type="int" >        2       42      116      127      128 </v>
   <v type="int" >        2       42      115      116      127 </v>
   <v type="int" >        2       41       48       49      128 </v>
   <v type="int" >        2       41       42       49      128 </v>
   <v type="int" >        2       41       42      116      128 </v>
   <v type="int" >        2       41       48      128      129 </v>
   <v type="int" >        2       41      117      128      129 </v>
   <v type="int" >        2       41      116      117      128 </v>
   <v type="int" >        2       40       47       48      129 </v>
   <v type="int" >        2       40       41       48      129 </v>
   <v type="int" >        2       40       41      117      129 </v>
   <v type="int" >        2       40       47      129      130 </v>
   <v type="int" >        2       40      118      129      130 </v>
   <v type="int" >        2       40      117      118      129 </v>
   <v type="int" >        2       39       46       47      130 </v>
   <v type="int" >        2       39       40       47      130 </v>
   <v type="int" >        2       39       40      118      130 </v>
   <v type="int" >        2       39       46      130      131 </v>
   <v type="int" >        2       39      119      130      131 </v>
   <v type="int" >        2       39      118      119      130 </v>
   <v type="int" >        2       38       45       46      131 </v>
   <v type="int" >        2       38       39       46      131 </v>
   <v type="int" >        2       38       39      119      131 </v>
   <v type="int" >        2       38       45      131      132 </v>
   <v type="int" >        2       38      120      131      132 </v>
   <v type="int" >        2       38      119      120      131 </v>
   <v type="int" >        2       37       44       45      132 </v>
   <v type="int" >        2       37       38       45      132 </v>
   <v type="int" >        2       37       38      120      132 </v>
   <v type="int" >        2       37       44      132      133 </v>
   <v type="int" >        2       37      121      132      133 </v>
   <v type="int" >        2       37      120      121      132 </v>
   <v type="int" >        2       36       43       44      133 </v>
   <v type="int" >        2       36       37       44      133 </v>
   <v type="int" >        2       36       37      121      133 </v>
   <v type="int" >        2       36       43      122      133 </v>
   <v type="int" >        2       36      110      122      133 </v>
   <v type="int" >        2       36      110      121      133 </v>
   <v type="int" >        2       30       36       37      110 </v>
   <v type="int" >        2       29       30       36      110 </v>
   <v type="int" >        2       29       30       98      110 </v>
   <v type="int" >        2       30       37      110      111 </v>
   <v type="int" >        2       30       99      110      111 </v>
   <v type="int" >        2       30       98       99      110 </v>
   <v type="int" >        2       31       37       38      111 </v>
   <v type="int" >        2       30       31       37      111 </v>
   <v type="int" >        2       30       31       99      111 </v>
   <v type="int" >        2       31       38      111      112 </v>
   <v type="int" >        2       31      100      111      112 </v>
   <v type="int" >        2       31       99      100      111 </v>
   <v type="int" >        2       32       38       39      112 </v>
   <v type="int" >        2       31       32       38      112 </v>
   <v type="int" >        2       31       32      100      112 </v>
   <v type="int" >        2       32       39      112      113 </v>
   <v type="int" >        2       32      101      112      113 </v>
   <v type="int" >        2       32      100      101      112 </v>
   <v type="int" >        2       33       39       40      113 </v>
   <v type="int" >        2       32       33       39      113 </v>
   <v type="int" >        2       32       33      101      113 </v>
   <v type="int" >        2       33       40      113      114 </v>
   <v type="int" >        2       33      102      113      114 </v>
   <v type="int" >        2       33      101      102      113 </v>
   <v type="int" >        2       34       40       41      114 </v>
   <v type="int" >        2       33       34       40      114 </v>
   <v type="int" >        2       33       34      102      114 </v>
   <v type="int" >        2       34       41      114      115 </v>
   <v type="int" >        2       34      103      114      115 </v>
   <v type="int" >        2       34      102      103      114 </v>
   <v type="int" >        2       35       41       42      115 </v>
   <v type="int" >        2       34       35       41      115 </v>
   <v type="int" >        2       34       35      103      115 </v>
   <v type="int" >        2       35       42      115      116 </v>
   <v type="int" >        2       35      104      115      116 </v>
   <v type="int" >        2       35      103      104      115 </v>
   <v type="int" >        2       34       41       42      116 </v>
   <v type="int" >        2       34       35       42      116 </v>
   <v type="int" >        2       34       35      104      116 </v>
   <v type="int" >        2       34       41      116      117 </v>
   <v type="int" >        2       34      105      116      117 </v>
   <v type="int" >        2       34      104      105      116 </v>
   <v type="int" >        2       33       40       41      117 </v>
   <v type="int" >        2       33       34       41      117 </v>
   <v type="int" >        2       33       34      105      117 </v>
   <v type="int" >        2       33       40      117      118 </v>
   <v type="int" >        2       33      106      117      118 </v>
   <v type="int" >        2       33      105      106      117 </v>
   <v type="int" >        2       32       39       40      118 </v>
   <v type="int" >        2       32       33       40      118 </v>
   <v type="int" >        2       32       33      106      118 </v>
   <v type="int" >        2       32       39      118      119 </v>
   <v type="int" >        2       32      107      118      119 </v>
   <v type="int" >        2       32      106      107      118 </v>
   <v type="int" >        2       31       38       39      119 </v>
   <v type="int" >        2       31       32       39      119 </v>
   <v type="int" >        2       31       32      107      119 </v>
   <v type="int" >        2       31       38      119      120 </v>
   <v type="int" >        2       31      108      119      120 </v>
   <v type="int" >        2       31      107      108      119 </v>
   <v type="int" >        2       30       37       38      120 </v>
   <v type="int" >        2       30       31       38      120 </v>
   <v type="int" >        2       30       31      108      120 </v>
   <v type="int" >        2       30       37      120      121 </v>
   <v type="int" >        2       30      109      120      121 </v>
   <v type="int" >        2       30      108      109      120 </v>
   <v type="int" >        2       29       36       37      121 </v>
   <v type="int" >        2       29       30       37      121 </v>
   <v type="int" >        2       29       30      109      121 </v>
   <v type="int" >        2       29       36      110      121 </v>
   <v type="int" >        2       29       98      110      121 </v>
   <v type="int" >        2       29       98      109      121 </v>
   <v type="int" >        2       23       29       30       98 </v>
   <v type="int" >        2       22       23       29       98 </v>
   <v type="int" >        2       22       23       86       98 </v>
   <v type="int" >        2       23       30       98       99 </v>
   <v type="int" >        2       23       87       98       99 </v>
   <v type="int" >        2       23       86       87       98 </v>
   <v type="int" >        2       24       30       31       99 </v>
   <v type="int" >        2       23       24       30       99 </v>
   <v type="int" >        2       23       24       87       99 </v>
   <v type="int" >        2       24       31       99      100 </v>
   <v type="int" >        2       24       88       99      100 </v>
   <v type="int" >        2       24       87       88       99 </v>
   <v type="int" >        2       25       31       32      100 </v>
   <v type="int" >        2       24       25       31      100 </v>
   <v type="int" >        2       24       25       88      100 </v>
   <v type="int" >        2       25       32      100      101 </v>
   <v type="int" >        2       25       89      100      101 </v>
   <v type="int" >        2       25       88       89      100 </v>
   <v type="int" >        2       26       32       33      101 </v>
   <v type="int" >        2       25       26       32      101 </v>
   <v type="int" >        2       25       26       89      101 </v>
   <v type="int" >        2       26       33      101      102 </v>
   <v type="int" >        2       26       90      101      102 </v>
   <v type="int" >        2       26       89       90      101 </v>
   <v type="int" >        2       27       33       34      102 </v>
   <v type="int" >        2       26       27       33      102 </v>
   <v type="int" >        2       26       27       90      102 </v>
   <v type="int" >        2       27       34      102      103 </v>
   <v type="int" >        2       27       91      102      103 </v>
   <v type="int" >        2       27       90       91      102 </v>
   <v type="int" >        2       28       34       35      103 </v>
   <v type="int" >        2       27       28       34      103 </v>
   <v type="int" >        2       27       28       91      103 </v>
   <v type="int" >        2       28       35      103      104 </v>
   <v type="int" >        2       28       92      103      104 </v>
   <v type="int" >        2       28       91       92      103 </v>
   <v type="int" >        2       27       34       35      104 </v>
   <v type="int" >        2       27       28       35      104 </v>
   <v type="int" >        2       27       28       92      104 </v>
   <v type="int" >        2       27       34      104      105 </v>
   <v type="int" >        2       27       93      104      105 </v>
   <v type="int" >        2       27       92       93      104 </v>
   <v type="int" >        2       26       33       34      105 </v>
   <v type="int" >        2       26       27       34      105 </v>
   <v type="int" >        2       26       27       93      105 </v>
   <v type="int" >        2       26       33      105      106 </v>
   <v type="int" >        2       26       94      105      106 </v>
   <v type="int" >        2       26       93       94      105 </v>
   <v type="int" >        2       25       32       33      106 </v>
   <v type="int" >        2       25       26       33      106 </v>
   <v type="int" >        2       25       26       94      106 </v>
   <v type="int" >        2       25       32      106      107 </v>
   <v type="int" >        2       25       95      106      107 </v>
   <v type="int" >        2       25       94       95      106 </v>
   <v type="int" >        2       24       31       32      107 </v>
   <v type="int" >        2       24       25       32      107 </v>
   <v type="int" >        2       24       25       95      107 </v>
   <v type="int" >        2       24       31      107      108 </v>
   <v type="int" >        2       24       96      107      108 </v>
   <v type="int" >        2       24       95       96      107 </v>
   <v type="int" >        2       23       30       31      108 </v>
   <v type="int" >        2       23       24       31      108 </v>
   <v type="int" >        2       23       24       96      108 </v>
   <v type="int" >        2       23       30      108      109 </v>
   <v type="int" >        2       23       97      108      109 </v>
   <v type="int" >        2       23       96       97      108 </v>
   <v type="int" >        2       22       29       30      109 </v>
   <v type="int" >        2       22       23       30      109 </v>
   <v type="int" >        2       22       23       97      109 </v>
   <v type="int" >        2       22       29       98      109 </v>
   <v type="int" >        2       22       86       98      109 </v>
   <v type="int" >        2       22       86       97      109 </v>
   <v type="int" >        2       16       22       23       86 </v>
   <v type="int" >        2       15       16       22       86 </v>
   <v type="int" >        2       15       16       74       86 </v>
   <v type="int" >        2       16       23       86       87 </v>
   <v type="int" >        2       16       75       86       87 </v>
   <v type="int" >        2       16       74       75       86 </v>
   <v type="int" >        2       17       23       24       87 </v>
   <v type="int" >        2       16       17       23       87 </v>
   <v type="int" >        2       16       17       75       87 </v>
   <v type="int" >        2       17       24       87       88 </v>
   <v type="int" >        2       17       76       87       88 </v>
   <v type="int" >        2       17       75       76       87 </v>
   <v type="int" >        2       18       24       25       88 </v>
   <v type="int" >        2       17       18       24       88 </v>
   <v type="int" >        2       17       18       76       88 </v>
   <v type="int" >        2       18       25       88       89 </v>
   <v type="int" >        2       18       77       88       89 </v>
   <v type="int" >        2       18       76       77       88 </v>
   <v type="int" >        2       19       25       26       89 </v>
   <v type="int" >        2       18       19       25       89 </v>
[...]
       <r>   -5.2704    1.0000 </r>
       <r>   -3.4731    1.0000 </r>
       <r>   -3.4731    1.0000 </r>
       <r>    2.0253    0.0000 </r>
       <r>    2.0253    0.0000 </r>
       <r>    4.4733    0.0000 </r>
       <r>    4.4733    0.0000 </r>
       <r>    5.7238    0.0000 </r>
       <r>    5.7238    0.0000 </r>
       <r>    7.1435    0.0000 </r>
      </set>
      <set comment="kpoint 347">
       <r>  -15.4157    1.0000 </r>
       <r>  -15.4157    1.0000 </r>
       <r>  -10.8421    1.0000 </r>
       <r>  -10.8421    1.0000 </r>
       <r>   -8.3263    1.0000 </r>
       <r>   -8.3263    1.0000 </r>
       <r>   -6.7821    1.0000 </r>
       <r>   -6.7821    1.0000 </r>
       <r>   -5.3590    1.0000 </r>
       <r>   -5.3590    1.0000 </r>
       <r>   -3.4821    1.0000 </r>
       <r>   -3.4821    1.0000 </r>
       <r>    2.1773    0.0000 </r>
       <r>    2.1773    0.0000 </r>
       <r>    4.4674    0.0000 </r>
       <r>    4.4674    0.0000 </r>
       <r>    6.0016    0.0000 </r>
       <r>    6.0016    0.0000 </r>
       <r>    6.7960    0.0000 </r>
      </set>
      <set comment="kpoint 348">
       <r>  -15.4039    1.0000 </r>
       <r>  -15.4039    1.0000 </r>
       <r>  -10.8809    1.0000 </r>
       <r>  -10.8809    1.0000 </r>
       <r>   -8.3081    1.0000 </r>
       <r>   -8.3081    1.0000 </r>
       <r>   -6.7303    1.0000 </r>
       <r>   -6.7303    1.0000 </r>
       <r>   -5.4467    1.0000 </r>
       <r>   -5.4467    1.0000 </r>
       <r>   -3.4939    1.0000 </r>
       <r>   -3.4939    1.0000 </r>
       <r>    2.3412    0.0000 </r>
       <r>    2.3412    0.0000 </r>
       <r>    4.5031    0.0000 </r>
       <r>    4.5031    0.0000 </r>
       <r>    6.1288    0.0000 </r>
       <r>    6.1288    0.0000 </r>
       <r>    6.6197    0.0000 </r>
      </set>
      <set comment="kpoint 349">
       <r>  -15.3952    1.0000 </r>
       <r>  -15.3952    1.0000 </r>
       <r>  -10.9094    1.0000 </r>
       <r>  -10.9094    1.0000 </r>
       <r>   -8.2931    1.0000 </r>
       <r>   -8.2931    1.0000 </r>
       <r>   -6.6929    1.0000 </r>
       <r>   -6.6929    1.0000 </r>
       <r>   -5.5106    1.0000 </r>
       <r>   -5.5106    1.0000 </r>
       <r>   -3.5043    1.0000 </r>
       <r>   -3.5043    1.0000 </r>
       <r>    2.4697    0.0000 </r>
       <r>    2.4697    0.0000 </r>
       <r>    4.5643    0.0000 </r>
       <r>    4.5643    0.0000 </r>
       <r>    5.9404    0.0000 </r>
       <r>    5.9404    0.0000 </r>
       <r>    6.8292    0.0000 </r>
      </set>
      <set comment="kpoint 350">
       <r>  -15.3920    1.0000 </r>
       <r>  -15.3920    1.0000 </r>
       <r>  -10.9198    1.0000 </r>
       <r>  -10.9198    1.0000 </r>
       <r>   -8.2872    1.0000 </r>
       <r>   -8.2872    1.0000 </r>
       <r>   -6.6793    1.0000 </r>
       <r>   -6.6793    1.0000 </r>
       <r>   -5.5339    1.0000 </r>
       <r>   -5.5339    1.0000 </r>
       <r>   -3.5084    1.0000 </r>
       <r>   -3.5084    1.0000 </r>
       <r>    2.5188    0.0000 </r>
       <r>    2.5188    0.0000 </r>
       <r>    4.5980    0.0000 </r>
       <r>    4.5980    0.0000 </r>
       <r>    5.8386    0.0000 </r>
       <r>    5.8386    0.0000 </r>
       <r>    6.9685    0.0000 </r>
      </set>
     </set>
    </set>
   </array>
  </eigenvalues>
  <separator name="orbital magnetization" >
   <v name="MAGDIPOLOUT">      0.00000000      0.00000000      0.00000000</v>
  </separator>
  <dos>
   <i name="efermi">     -3.17305978 </i>
   <total>
    <array>
     <dimension dim="1">gridpoints</dimension>
     <dimension dim="2">spin</dimension>
     <field>energy</field>
     <field>total</field>
     <field>integrated</field>
     <set>
      <set comment="spin 1">
       <r>   -17.7045     0.0000     0.0000 </r>
       <r>   -17.6122     0.0000     0.0000 </r>
       <r>   -17.5200     0.0000     0.0000 </r>
       <r>   -17.4277     0.0000     0.0000 </r>
       <r>   -17.3354     0.0000     0.0000 </r>
       <r>   -17.2432     0.0000     0.0000 </r>
       <r>   -17.1509     0.0000     0.0000 </r>
       <r>   -17.0586     0.0000     0.0000 </r>
       <r>   -16.9664     0.0000     0.0000 </r>
       <r>   -16.8741     0.0000     0.0000 </r>
       <r>   -16.7819     0.0000     0.0000 </r>
       <r>   -16.6896     0.0000     0.0000 </r>
       <r>   -16.5973     0.0000     0.0000 </r>
       <r>   -16.5051     0.0000     0.0000 </r>
       <r>   -16.4128     0.0000     0.0000 </r>
       <r>   -16.3205     0.0000     0.0000 </r>
       <r>   -16.2283     0.0000     0.0000 </r>
       <r>   -16.1360     0.0000     0.0000 </r>
       <r>   -16.0438     0.0000     0.0000 </r>
       <r>   -15.9515     0.0000     0.0000 </r>
       <r>   -15.8592     0.0000     0.0000 </r>
       <r>   -15.7670     0.0000     0.0000 </r>
       <r>   -15.6747     1.9225     0.0268 </r>
       <r>   -15.5824     5.8823     0.3714 </r>
       <r>   -15.4902    17.9785     1.3241 </r>
       <r>   -15.3979    23.5558     3.8251 </r>
       <r>   -15.3057     0.0000     4.0000 </r>
       <r>   -15.2134     0.0000     4.0000 </r>
       <r>   -15.1211     0.0000     4.0000 </r>
       <r>   -15.0289     0.0000     4.0000 </r>
       <r>   -14.9366     0.0000     4.0000 </r>
       <r>   -14.8443     0.0000     4.0000 </r>
       <r>   -14.7521     0.0000     4.0000 </r>
       <r>   -14.6598     0.0000     4.0000 </r>
       <r>   -14.5675     0.0000     4.0000 </r>
       <r>   -14.4753     0.0000     4.0000 </r>
       <r>   -14.3830     0.0000     4.0000 </r>
       <r>   -14.2908     0.0000     4.0000 </r>
       <r>   -14.1985     0.0000     4.0000 </r>
       <r>   -14.1062     0.0000     4.0000 </r>
       <r>   -14.0140     0.0000     4.0000 </r>
       <r>   -13.9217     0.0000     4.0000 </r>
       <r>   -13.8294     0.0000     4.0000 </r>
       <r>   -13.7372     0.0000     4.0000 </r>
       <r>   -13.6449     0.0000     4.0000 </r>
       <r>   -13.5527     0.0000     4.0000 </r>
       <r>   -13.4604     0.0000     4.0000 </r>
       <r>   -13.3681     0.0000     4.0000 </r>
       <r>   -13.2759     0.0000     4.0000 </r>
       <r>   -13.1836     0.0000     4.0000 </r>
       <r>   -13.0913     0.0000     4.0000 </r>
       <r>   -12.9991     0.0000     4.0000 </r>
       <r>   -12.9068     0.0000     4.0000 </r>
       <r>   -12.8145     0.0000     4.0000 </r>
       <r>   -12.7223     0.0000     4.0000 </r>
       <r>   -12.6300     0.0000     4.0000 </r>
       <r>   -12.5378     0.0000     4.0000 </r>
       <r>   -12.4455     0.0000     4.0000 </r>
       <r>   -12.3532     0.0000     4.0000 </r>
       <r>   -12.2610     0.0000     4.0000 </r>
       <r>   -12.1687     0.0000     4.0000 </r>
       <r>   -12.0764     0.0000     4.0000 </r>
       <r>   -11.9842     0.0000     4.0000 </r>
       <r>   -11.8919     0.0000     4.0000 </r>
       <r>   -11.7997     0.0000     4.0000 </r>
       <r>   -11.7074     0.0000     4.0000 </r>
       <r>   -11.6151     0.0000     4.0000 </r>
       <r>   -11.5229     0.0000     4.0000 </r>
       <r>   -11.4306     0.0000     4.0000 </r>
       <r>   -11.3383     0.0000     4.0000 </r>
       <r>   -11.2461     0.0000     4.0000 </r>
       <r>   -11.1538     0.0000     4.0000 </r>
       <r>   -11.0616     5.4719     4.0288 </r>
       <r>   -10.9693    11.4209     4.9626 </r>
       <r>   -10.8770    14.6498     6.1154 </r>
       <r>   -10.7848    12.4605     7.6246 </r>
       <r>   -10.6925     0.0000     8.0000 </r>
       <r>   -10.6002     0.0000     8.0000 </r>
       <r>   -10.5080     0.0000     8.0000 </r>
       <r>   -10.4157     0.0000     8.0000 </r>
       <r>   -10.3234     0.0000     8.0000 </r>
       <r>   -10.2312     0.0000     8.0000 </r>
       <r>   -10.1389     0.0000     8.0000 </r>
       <r>   -10.0467     0.0000     8.0000 </r>
       <r>    -9.9544     0.0000     8.0000 </r>
       <r>    -9.8621     0.0000     8.0000 </r>
       <r>    -9.7699     0.0000     8.0000 </r>
       <r>    -9.6776     0.0000     8.0000 </r>
       <r>    -9.5853     0.0000     8.0000 </r>
       <r>    -9.4931     0.0000     8.0000 </r>
       <r>    -9.4008     0.0000     8.0000 </r>
       <r>    -9.3086     0.0000     8.0000 </r>
       <r>    -9.2163     0.0000     8.0000 </r>
       <r>    -9.1240     0.0000     8.0000 </r>
       <r>    -9.0318     0.0000     8.0000 </r>
       <r>    -8.9395     0.0000     8.0000 </r>
       <r>    -8.8472     0.0000     8.0000 </r>
       <r>    -8.7550     0.0000     8.0000 </r>
       <r>    -8.6627     0.0000     8.0000 </r>
       <r>    -8.5704     0.0000     8.0000 </r>
       <r>    -8.4782     0.0000     8.0000 </r>
       <r>    -8.3859     0.4612     8.0007 </r>
       <r>    -8.2937     9.6116     8.5250 </r>
       <r>    -8.2014     7.7045     9.3457 </r>
       <r>    -8.1091     6.2695     9.9597 </r>
       <r>    -8.0169     6.1734    10.5280 </r>
       <r>    -7.9246    11.2019    11.2541 </r>
       <r>    -7.8323     3.9244    11.9638 </r>
       <r>    -7.7401     0.0000    12.0000 </r>
       <r>    -7.6478     0.0000    12.0000 </r>
       <r>    -7.5556     0.0000    12.0000 </r>
       <r>    -7.4633     0.0000    12.0000 </r>
       <r>    -7.3710     0.0000    12.0000 </r>
       <r>    -7.2788     0.0000    12.0000 </r>
       <r>    -7.1865     0.6410    12.0080 </r>
       <r>    -7.0942     1.9417    12.1269 </r>
       <r>    -7.0020     3.8831    12.3858 </r>
       <r>    -6.9097     8.8800    12.9264 </r>
       <r>    -6.8175    21.9840    14.4081 </r>
       <r>    -6.7252     6.9461    15.4129 </r>
       <r>    -6.6329     3.7830    15.9041 </r>
       <r>    -6.5407     0.0000    16.0000 </r>
       <r>    -6.4484     0.0000    16.0000 </r>
       <r>    -6.3561     0.0000    16.0000 </r>
       <r>    -6.2639     0.0000    16.0000 </r>
       <r>    -6.1716     0.0000    16.0000 </r>
       <r>    -6.0793     0.0000    16.0000 </r>
       <r>    -5.9871     0.0000    16.0000 </r>
       <r>    -5.8948     0.0000    16.0000 </r>
       <r>    -5.8026     0.0000    16.0000 </r>
       <r>    -5.7103     0.0000    16.0000 </r>
       <r>    -5.6180     0.9760    16.0079 </r>
       <r>    -5.5258     2.0974    16.1665 </r>
       <r>    -5.4335     2.8341    16.3941 </r>
       <r>    -5.3412     3.9045    16.7011 </r>
       <r>    -5.2490     6.1962    17.1479 </r>
       <r>    -5.1567    10.7106    17.9936 </r>
       <r>    -5.0645     7.6293    18.8709 </r>
       <r>    -4.9722     4.4259    19.4819 </r>
       <r>    -4.8799     2.4372    19.7911 </r>
       <r>    -4.7877     1.2250    19.9560 </r>
       <r>    -4.6954     0.0000    20.0000 </r>
       <r>    -4.6031     0.0000    20.0000 </r>
       <r>    -4.5109     0.0000    20.0000 </r>
       <r>    -4.4186     0.0000    20.0000 </r>
       <r>    -4.3263     0.0000    20.0000 </r>
       <r>    -4.2341     0.0000    20.0000 </r>
       <r>    -4.1418     0.0000    20.0000 </r>
       <r>    -4.0496     0.0000    20.0000 </r>
       <r>    -3.9573     0.0000    20.0000 </r>
       <r>    -3.8650     0.0207    20.0000 </r>
       <r>    -3.7728     1.1419    20.0590 </r>
       <r>    -3.6805     2.4551    20.2233 </r>
       <r>    -3.5882     5.2619    20.5567 </r>
       <r>    -3.4960    14.9312    21.4221 </r>
       <r>    -3.4037    11.3777    22.9240 </r>
       <r>    -3.3115     4.8842    23.5821 </r>
       <r>    -3.2192     3.1838    23.9332 </r>
       <r>    -3.1269     0.0000    24.0000 </r>
       <r>    -3.0347     0.0000    24.0000 </r>
       <r>    -2.9424     0.0000    24.0000 </r>
       <r>    -2.8501     0.0000    24.0000 </r>
       <r>    -2.7579     0.0000    24.0000 </r>
       <r>    -2.6656     0.0000    24.0000 </r>
       <r>    -2.5733     0.0000    24.0000 </r>
       <r>    -2.4811     0.0000    24.0000 </r>
       <r>    -2.3888     0.0000    24.0000 </r>
       <r>    -2.2966     0.0000    24.0000 </r>
       <r>    -2.2043     0.0000    24.0000 </r>
       <r>    -2.1120     0.0000    24.0000 </r>
       <r>    -2.0198     0.0000    24.0000 </r>
       <r>    -1.9275     0.0000    24.0000 </r>
       <r>    -1.8352     0.0000    24.0000 </r>
       <r>    -1.7430     0.0000    24.0000 </r>
       <r>    -1.6507     0.0000    24.0000 </r>
       <r>    -1.5585     0.0000    24.0000 </r>
       <r>    -1.4662     0.0000    24.0000 </r>
       <r>    -1.3739     0.0000    24.0000 </r>
       <r>    -1.2817     0.0000    24.0000 </r>
       <r>    -1.1894     0.0000    24.0000 </r>
       <r>    -1.0971     0.0000    24.0000 </r>
       <r>    -1.0049     0.0000    24.0000 </r>
       <r>    -0.9126     0.0000    24.0000 </r>
       <r>    -0.8204     0.0000    24.0000 </r>
       <r>    -0.7281     0.0000    24.0000 </r>
       <r>    -0.6358     0.0000    24.0000 </r>
       <r>    -0.5436     0.0000    24.0000 </r>
       <r>    -0.4513     0.0000    24.0000 </r>
       <r>    -0.3590     0.0000    24.0000 </r>
       <r>    -0.2668     0.0000    24.0000 </r>
       <r>    -0.1745     0.0000    24.0000 </r>
       <r>    -0.0822     0.0000    24.0000 </r>
       <r>     0.0100     0.0000    24.0000 </r>
       <r>     0.1023     0.0000    24.0000 </r>
       <r>     0.1945     0.0000    24.0000 </r>
       <r>     0.2868     0.0000    24.0000 </r>
       <r>     0.3791     0.0000    24.0000 </r>
       <r>     0.4713     0.0000    24.0000 </r>
       <r>     0.5636     0.0000    24.0000 </r>
       <r>     0.6559     0.0000    24.0000 </r>
       <r>     0.7481     0.0000    24.0000 </r>
       <r>     0.8404     0.0000    24.0000 </r>
       <r>     0.9326     0.0000    24.0000 </r>
       <r>     1.0249     0.0000    24.0000 </r>
       <r>     1.1172     0.0000    24.0000 </r>
       <r>     1.2094     0.0000    24.0000 </r>
       <r>     1.3017     0.4233    24.0068 </r>
       <r>     1.3940     0.8371    24.0694 </r>
       <r>     1.4862     1.1189    24.1615 </r>
       <r>     1.5785     1.4036    24.2784 </r>
       <r>     1.6708     1.6751    24.4198 </r>
       <r>     1.7630     2.0243    24.5898 </r>
       <r>     1.8553     2.5115    24.7977 </r>
       <r>     1.9475     3.0030    25.0639 </r>
       <r>     2.0398     3.1534    25.3490 </r>
       <r>     2.1321     3.3674    25.6492 </r>
       <r>     2.2243     3.6938    25.9763 </r>
       <r>     2.3166     4.5666    26.3499 </r>
       <r>     2.4089     4.9005    26.8014 </r>
       <r>     2.5011     5.1460    27.2633 </r>
       <r>     2.5934     4.6219    27.6980 </r>
       <r>     2.6856     1.5003    27.9368 </r>
       <r>     2.7779     0.0012    28.0000 </r>
       <r>     2.8702     0.0000    28.0000 </r>
       <r>     2.9624     0.0000    28.0000 </r>
       <r>     3.0547     0.0000    28.0000 </r>
       <r>     3.1470     0.0000    28.0000 </r>
       <r>     3.2392     0.0000    28.0000 </r>
       <r>     3.3315     0.2220    28.0008 </r>
       <r>     3.4237     0.9218    28.0787 </r>
       <r>     3.5160     1.0100    28.1672 </r>
       <r>     3.6083     1.1152    28.2655 </r>
       <r>     3.7005     1.2326    28.3738 </r>
       <r>     3.7928     1.3414    28.4924 </r>
       <r>     3.8851     1.4882    28.6224 </r>
       <r>     3.9773     1.6776    28.7684 </r>
       <r>     4.0696     1.8367    28.9307 </r>
       <r>     4.1619     2.0066    29.1075 </r>
       <r>     4.2541     2.3105    29.3055 </r>
       <r>     4.3464     2.7383    29.5383 </r>
       <r>     4.4386     3.3571    29.8180 </r>
       <r>     4.5309     4.2405    30.1669 </r>
       <r>     4.6232     4.8593    30.5918 </r>
       <r>     4.7154     4.3262    31.0295 </r>
       <r>     4.8077     3.1803    31.3864 </r>
       <r>     4.9000     2.4678    31.6438 </r>
       <r>     4.9922     1.9555    31.8473 </r>
       <r>     5.0845     2.0536    32.0223 </r>
       <r>     5.1767     2.2498    32.2287 </r>
       <r>     5.2690     2.4193    32.4401 </r>
       <r>     5.3613     2.7044    32.6784 </r>
       <r>     5.4535     3.4279    32.9773 </r>
       <r>     5.5458     3.3131    33.2921 </r>
       <r>     5.6381     3.4499    33.6025 </r>
       <r>     5.7303     3.5138    33.9226 </r>
       <r>     5.8226     4.0438    34.2672 </r>
       <r>     5.9149     4.1801    34.6523 </r>
       <r>     6.0071     3.4855    35.0109 </r>
       <r>     6.0994     2.8607    35.2973 </r>
       <r>     6.1916     2.4767    35.5454 </r>
       <r>     6.2839     2.4962    35.7714 </r>
       <r>     6.3762     1.9950    35.9887 </r>
       <r>     6.4684     2.0956    36.1654 </r>
       <r>     6.5607     2.6194    36.3928 </r>
       <r>     6.6530     2.5670    36.6290 </r>
       <r>     6.7452     2.5443    36.8640 </r>
       <r>     6.8375     1.8971    37.0663 </r>
       <r>     6.9297     1.7637    37.2318 </r>
       <r>     7.0220     2.1470    37.4177 </r>
       <r>     7.1143     1.5805    37.5855 </r>
       <r>     7.2065     1.3761    37.7217 </r>
       <r>     7.2988     1.0403    37.8367 </r>
       <r>     7.3911     0.4755    37.9012 </r>
       <r>     7.4833     0.3125    37.9361 </r>
       <r>     7.5756     0.2418    37.9615 </r>
       <r>     7.6678     0.1567    37.9798 </r>
       <r>     7.7601     0.0960    37.9914 </r>
       <r>     7.8524     0.0459    37.9979 </r>
       <r>     7.9446     0.0037    38.0000 </r>
       <r>     8.0369     0.0000    38.0000 </r>
       <r>     8.1292     0.0000    38.0000 </r>
       <r>     8.2214     0.0000    38.0000 </r>
       <r>     8.3137     0.0000    38.0000 </r>
       <r>     8.4060     0.0000    38.0000 </r>
       <r>     8.4982     0.0000    38.0000 </r>
       <r>     8.5905     0.0000    38.0000 </r>
       <r>     8.6827     0.0000    38.0000 </r>
       <r>     8.7750     0.0000    38.0000 </r>
       <r>     8.8673     0.0000    38.0000 </r>
       <r>     8.9595     0.0000    38.0000 </r>
       <r>     9.0518     0.0000    38.0000 </r>
       <r>     9.1441     0.0000    38.0000 </r>
       <r>     9.2363     0.0000    38.0000 </r>
       <r>     9.3286     0.0000    38.0000 </r>
       <r>     9.4208     0.0000    38.0000 </r>
       <r>     9.5131     0.0000    38.0000 </r>
       <r>     9.6054     0.0000    38.0000 </r>
       <r>     9.6976     0.0000    38.0000 </r>
       <r>     9.7899     0.0000    38.0000 </r>
       <r>     9.8822     0.0000    38.0000 </r>
       <r>     9.9744     0.0000    38.0000 </r>
      </set>
     </set>
    </array>
   </total>
  </dos>
 </calculation>
 <structure name="finalpos" >
  <crystal>
   <varray name="basis" >
    <v>       4.80418101       0.00000000       0.00000000 </v>
    <v>       0.00000000       6.37269204       0.00000000 </v>
    <v>       0.00000000       0.00000000       4.08404729 </v>
   </varray>
   <i name="volume">    125.03541966 </i>
   <varray name="rec_basis" >
    <v>       0.20815202       0.00000000       0.00000000 </v>
    <v>       0.00000000       0.15691956       0.00000000 </v>
    <v>       0.00000000       0.00000000       0.24485515 </v>
   </varray>
  </crystal>
  <varray name="positions" >
   <v>       0.88554794       0.05456883       0.96381284 </v>
   <v>       0.11445207       0.94543116       0.03618713 </v>
   <v>       0.61445206       0.55456884       0.53618716 </v>
   <v>       0.38554794       0.44543116       0.46381287 </v>
   <v>       0.80511315       0.17755048       0.12486062 </v>
   <v>       0.19488683       0.82244954       0.87513939 </v>
   <v>       0.69488685       0.67755046       0.37513939 </v>
   <v>       0.30511315       0.32244954       0.62486061 </v>
   <v>       0.76724173       0.02625701       0.73958798 </v>
   <v>       0.23275824       0.97374300       0.26041199 </v>
   <v>       0.73275827       0.52625700       0.76041202 </v>
   <v>       0.26724176       0.47374300       0.23958801 </v>
  </varray>
 </structure>
</modeling>
