ethylene                                
           1
     4.804181    0.000000    0.000000
     0.000000    6.372692    0.000000
     0.000000    0.000000    4.084047
   C    H 
   4   8
Direct configuration=     1
   0.88344002  0.05382000  0.95924997
   0.11656000  0.94617999  0.04075000
   0.61655998  0.55382001  0.54075003
   0.38344002  0.44617999  0.45925000
   0.81309998  0.16980000  0.11850000
   0.18690000  0.83020002  0.88150001
   0.68690002  0.66979998  0.38150001
   0.31309998  0.33020002  0.61849999
   0.75699997  0.02870000  0.73109996
   0.24300000  0.97130001  0.26890001
   0.74300003  0.52869999  0.76890004
   0.25700000  0.47130001  0.23109999
Direct configuration=     2
   0.89410307  0.04223988  0.94837906
   0.10589694  0.95776011  0.05162091
   0.60589693  0.54223989  0.55162094
   0.39410307  0.45776011  0.44837909
   0.80474006  0.18085030  0.13148402
   0.19525992  0.81914971  0.86851599
   0.69525994  0.68085029  0.36851599
   0.30474006  0.31914971  0.63148401
   0.76460998  0.02832045  0.74060365
   0.23538999  0.97167956  0.25939632
   0.73539002  0.52832044  0.75939635
   0.26461001  0.47167956  0.24060368
Direct configuration=     3
   0.88677186  0.05020161  0.95585319
   0.11322816  0.94979837  0.04414679
   0.61322814  0.55020163  0.54414681
   0.38677186  0.44979837  0.45585322
   0.81048779  0.17325284  0.12255706
   0.18951219  0.82674718  0.87744295
   0.68951221  0.67325282  0.37744295
   0.31048779  0.32674718  0.62255705
   0.75937783  0.02858140  0.73406954
   0.24062214  0.97141860  0.26593043
   0.74062217  0.52858140  0.76593046
   0.25937786  0.47141860  0.23406957
Direct configuration=     4
   0.88579808  0.05125913  0.95684594
   0.11420193  0.94874086  0.04315403
   0.61420192  0.55125914  0.54315406
   0.38579808  0.44874086  0.45684597
   0.81125124  0.17224370  0.12137133
   0.18874875  0.82775631  0.87862867
   0.68874876  0.67224369  0.37862867
   0.31125124  0.32775631  0.62137133
   0.75868287  0.02861606  0.73320164
   0.24131710  0.97138394  0.26679833
   0.74131713  0.52861606  0.76679836
   0.25868290  0.47138394  0.23320167
Direct configuration=     5
   0.88257708  0.05363662  0.95770476
   0.11742293  0.94636337  0.04229522
   0.61742292  0.55363663  0.54229524
   0.38257708  0.44636337  0.45770479
   0.80693472  0.17632614  0.12455358
   0.19306527  0.82367387  0.87544643
   0.69306528  0.67632613  0.37544643
   0.30693472  0.32367387  0.62455357
   0.76494987  0.02730856  0.73881485
   0.23505010  0.97269145  0.26118512
   0.73505013  0.52730855  0.76118515
   0.26494990  0.47269145  0.23881488
Direct configuration=     6
   0.88383363  0.05270913  0.95736972
   0.11616638  0.94729085  0.04263025
   0.61616637  0.55270915  0.54263028
   0.38383363  0.44729085  0.45736975
   0.80861864  0.17473353  0.12331215
   0.19138134  0.82526648  0.87668786
   0.69138136  0.67473352  0.37668786
   0.30861864  0.32526648  0.62331214
   0.76250504  0.02781863  0.73662507
   0.23749493  0.97218137  0.26337490
   0.73749496  0.52781863  0.76337493
   0.26250507  0.47218137  0.23662510
Direct configuration=     7
   0.88491377  0.05418256  0.96209668
   0.11508624  0.94581742  0.03790329
   0.61508623  0.55418258  0.53790332
   0.38491377  0.44581742  0.46209671
   0.80609132  0.17674301  0.12435754
   0.19390867  0.82325700  0.87564246
   0.69390868  0.67674300  0.37564246
   0.30609132  0.32325700  0.62435754
   0.76568810  0.02671398  0.73849257
   0.23431187  0.97328603  0.26150740
   0.73431190  0.52671397  0.76150743
   0.26568813  0.47328603  0.23849260
Direct configuration=     8
   0.88531666  0.05473215  0.96385984
   0.11468335  0.94526783  0.03614014
   0.61468334  0.55473217  0.53614016
   0.38531666  0.44526783  0.46385987
   0.80514863  0.17749255  0.12474748
   0.19485136  0.82250747  0.87525253
   0.69485137  0.67749253  0.37525253
   0.30514863  0.32250747  0.62474747
   0.76687539  0.02630194  0.73918914
   0.23312458  0.97369806  0.26081083
   0.73312461  0.52630194  0.76081086
   0.26687542  0.47369806  0.23918917
Direct configuration=     9
   0.88557398  0.05455044  0.96380755
   0.11442603  0.94544955  0.03619242
   0.61442602  0.55455045  0.53619245
   0.38557398  0.44544955  0.46380758
   0.80510916  0.17755700  0.12487336
   0.19489082  0.82244302  0.87512665
   0.69489084  0.67755698  0.37512665
   0.30510916  0.32244302  0.62487335
   0.76728299  0.02625195  0.73963289
   0.23271698  0.97374806  0.26036708
   0.73271701  0.52625194  0.76036711
   0.26728302  0.47374806  0.23963292
Direct configuration=    10
   0.88554794  0.05456883  0.96381284
   0.11445207  0.94543116  0.03618713
   0.61445206  0.55456884  0.53618716
   0.38554794  0.44543116  0.46381287
   0.80511315  0.17755048  0.12486062
   0.19488683  0.82244954  0.87513939
   0.69488685  0.67755046  0.37513939
   0.30511315  0.32244954  0.62486061
   0.76724173  0.02625701  0.73958798
   0.23275824  0.97374300  0.26041199
   0.73275827  0.52625700  0.76041202
   0.26724176  0.47374300  0.23958801
