ethylene                                
           1
     4.804181    0.000000    0.000000
     0.000000    6.372692    0.000000
     0.000000    0.000000    4.084047
   C    H 
   4   8
Direct configuration=     1
   0.88344002  0.05382000  0.95924997
   0.11656000  0.94617999  0.04075000
   0.61655998  0.55382001  0.54075003
   0.38344002  0.44617999  0.45925000
   0.81309998  0.16980000  0.11850000
   0.18690000  0.83020002  0.88150001
   0.68690002  0.66979998  0.38150001
   0.31309998  0.33020002  0.61849999
   0.75699997  0.02870000  0.73109996
   0.24300000  0.97130001  0.26890001
   0.74300003  0.52869999  0.76890004
   0.25700000  0.47130001  0.23109999
Direct configuration=     2
   0.89403034  0.04228230  0.94836538
   0.10596967  0.95771769  0.05163460
   0.60596966  0.54228231  0.55163462
   0.39403034  0.45771769  0.44836541
   0.80470405  0.18089358  0.13152727
   0.19529594  0.81910643  0.86847274
   0.69529595  0.68089357  0.36847274
   0.30470405  0.31910643  0.63152726
   0.76455792  0.02832064  0.74051636
   0.23544205  0.97167936  0.25948361
   0.73544208  0.52832064  0.75948364
   0.26455795  0.47167936  0.24051639
Direct configuration=     3
   0.88574832  0.05130520  0.95687753
   0.11425169  0.94869478  0.04312244
   0.61425168  0.55130522  0.54312247
   0.38574832  0.44869478  0.45687756
   0.81126997  0.17221799  0.12133947
   0.18873001  0.82778202  0.87866054
   0.68873003  0.67221798  0.37866054
   0.31126997  0.32778202  0.62133946
   0.75864732  0.02861731  0.73315239
   0.24135265  0.97138269  0.26684758
   0.74135268  0.52861731  0.76684761
   0.25864735  0.47138269  0.23315242
Direct configuration=     4
   0.88259011  0.05367960  0.95781401
   0.11740991  0.94632038  0.04218596
   0.61740989  0.55367962  0.54218599
   0.38259011  0.44632038  0.45781404
   0.80705917  0.17617883  0.12439595
   0.19294081  0.82382119  0.87560406
   0.69294083  0.67617881  0.37560406
   0.30705917  0.32382119  0.62439594
   0.76478435  0.02733486  0.73863920
   0.23521562  0.97266514  0.26136077
   0.73521565  0.52733486  0.76136080
   0.26478438  0.47266514  0.23863923
Direct configuration=     5
   0.88376056  0.05279964  0.95746695
   0.11623946  0.94720035  0.04253303
   0.61623944  0.55279965  0.54253305
   0.38376056  0.44720035  0.45746698
   0.80861972  0.17471092  0.12326320
   0.19138026  0.82528910  0.87673681
   0.69138028  0.67471090  0.37673681
   0.30861972  0.32528910  0.62326319
   0.76250993  0.02781015  0.73660576
   0.23749004  0.97218986  0.26339421
   0.73749007  0.52781014  0.76339424
   0.26250996  0.47218986  0.23660579
Direct configuration=     6
   0.88482645  0.05408548  0.96176154
   0.11517357  0.94591450  0.03823843
   0.61517355  0.55408550  0.53823846
   0.38482645  0.44591450  0.46176157
   0.80620724  0.17665827  0.12432369
   0.19379274  0.82334174  0.87567632
   0.69379276  0.67665826  0.37567632
   0.30620724  0.32334174  0.62432368
   0.76554791  0.02678361  0.73844738
   0.23445206  0.97321640  0.26155259
   0.73445209  0.52678360  0.76155262
   0.26554794  0.47321640  0.23844741
Direct configuration=     7
   0.88534802  0.05471469  0.96386302
   0.11465199  0.94528530  0.03613695
   0.61465198  0.55471470  0.53613698
   0.38534802  0.44528530  0.46386305
   0.80502674  0.17761118  0.12484262
   0.19497324  0.82238884  0.87515738
   0.69497326  0.67761116  0.37515738
   0.30502674  0.32238884  0.62484262
   0.76703448  0.02628129  0.73934855
   0.23296549  0.97371871  0.26065142
   0.73296552  0.52628129  0.76065145
   0.26703451  0.47371871  0.23934858
Direct configuration=     8
   0.88550933  0.05459787  0.96382194
   0.11449068  0.94540212  0.03617803
   0.61449067  0.55459788  0.53617806
   0.38550933  0.44540212  0.46382197
   0.80509994  0.17755673  0.12485647
   0.19490004  0.82244328  0.87514353
   0.69490006  0.67755672  0.37514353
   0.30509994  0.32244328  0.62485647
   0.76728441  0.02625427  0.73962955
   0.23271556  0.97374574  0.26037042
   0.73271559  0.52625426  0.76037045
   0.26728444  0.47374574  0.23962958
Direct configuration=     9
   0.88556206  0.05455968  0.96380851
   0.11443796  0.94544030  0.03619146
   0.61443794  0.55455970  0.53619149
   0.38556206  0.44544030  0.46380854
   0.80512387  0.17753894  0.12486100
   0.19487612  0.82246107  0.87513901
   0.69487613  0.67753893  0.37513901
   0.30512387  0.32246107  0.62486099
   0.76736610  0.02624543  0.73972139
   0.23263387  0.97375457  0.26027858
   0.73263390  0.52624543  0.76027861
   0.26736613  0.47375457  0.23972142
