<?xml version="1.0" encoding="ISO-8859-1"?>
<modeling>
 <generator>
  <i name="program" type="string">vasp </i>
  <i name="version" type="string">5.3.5  </i>
  <i name="subversion" type="string">31Mar14 (build Nov 02 2014 15:17:37) complex                          parallel </i>
  <i name="platform" type="string">ion-Intel-MKL </i>
  <i name="date" type="string">2016 08 14 </i>
  <i name="time" type="string">00:29:32 </i>
 </generator>
 <incar>
  <i type="string" name="SYSTEM">graphite</i>
  <i type="string" name="PREC">accurate</i>
  <i type="int" name="NELM">   200</i>
  <i type="int" name="IBRION">    -1</i>
  <i name="EDIFF">      0.00000100</i>
  <i name="EDIFFG">      0.00100000</i>
  <i type="int" name="NSW">     0</i>
  <i type="int" name="ISIF">     2</i>
  <i name="ENCUT">    600.00000000</i>
  <i type="int" name="ISMEAR">     0</i>
  <i name="SIGMA">      0.10000000</i>
  <i type="logical" name="LWAVE"> F  </i>
  <i type="logical" name="LCHARG"> F  </i>
  <i type="int" name="NELM">   200</i>
  <i type="string" name="GGA">PE</i>
 </incar>
 <kpoints>
  <generation param="Gamma">
   <v type="int" name="divisions">       9        9        4 </v>
   <v name="usershift">      0.00000000       0.00000000       0.00000000 </v>
   <v name="genvec1">      0.11111111       0.00000000       0.00000000 </v>
   <v name="genvec2">      0.00000000       0.11111111       0.00000000 </v>
   <v name="genvec3">      0.00000000       0.00000000       0.25000000 </v>
   <v name="shift">      0.00000000       0.00000000       0.00000000 </v>
  </generation>
  <varray name="kpointlist" >
   <v>       0.00000000       0.00000000       0.00000000 </v>
   <v>       0.11111111      -0.00000000       0.00000000 </v>
   <v>       0.22222222      -0.00000000       0.00000000 </v>
   <v>       0.33333333      -0.00000000       0.00000000 </v>
   <v>       0.44444444      -0.00000000       0.00000000 </v>
   <v>       0.00000000       0.11111111       0.00000000 </v>
   <v>       0.11111111       0.11111111       0.00000000 </v>
   <v>       0.22222222       0.11111111       0.00000000 </v>
   <v>       0.33333333       0.11111111       0.00000000 </v>
   <v>       0.44444444       0.11111111       0.00000000 </v>
   <v>      -0.44444444       0.11111111       0.00000000 </v>
   <v>      -0.33333333       0.11111111       0.00000000 </v>
   <v>      -0.22222222       0.11111111       0.00000000 </v>
   <v>      -0.11111111       0.11111111       0.00000000 </v>
   <v>       0.00000000       0.22222222       0.00000000 </v>
   <v>       0.11111111       0.22222222       0.00000000 </v>
   <v>       0.22222222       0.22222222       0.00000000 </v>
   <v>       0.33333333       0.22222222       0.00000000 </v>
   <v>       0.44444444       0.22222222       0.00000000 </v>
   <v>      -0.44444444       0.22222222       0.00000000 </v>
   <v>      -0.33333333       0.22222222       0.00000000 </v>
   <v>      -0.22222222       0.22222222       0.00000000 </v>
   <v>      -0.11111111       0.22222222       0.00000000 </v>
   <v>       0.00000000       0.33333333       0.00000000 </v>
   <v>       0.11111111       0.33333333       0.00000000 </v>
   <v>       0.22222222       0.33333333       0.00000000 </v>
   <v>       0.33333333       0.33333333       0.00000000 </v>
   <v>       0.44444444       0.33333333       0.00000000 </v>
   <v>      -0.44444444       0.33333333       0.00000000 </v>
   <v>      -0.33333333       0.33333333       0.00000000 </v>
   <v>      -0.22222222       0.33333333       0.00000000 </v>
   <v>      -0.11111111       0.33333333       0.00000000 </v>
   <v>       0.00000000       0.44444444       0.00000000 </v>
   <v>       0.11111111       0.44444444       0.00000000 </v>
   <v>       0.22222222       0.44444444       0.00000000 </v>
   <v>       0.33333333       0.44444444       0.00000000 </v>
   <v>       0.44444444       0.44444444       0.00000000 </v>
   <v>      -0.44444444       0.44444444       0.00000000 </v>
   <v>      -0.33333333       0.44444444       0.00000000 </v>
   <v>      -0.22222222       0.44444444       0.00000000 </v>
   <v>      -0.11111111       0.44444444       0.00000000 </v>
   <v>       0.00000000       0.00000000       0.25000000 </v>
   <v>       0.11111111      -0.00000000       0.25000000 </v>
   <v>       0.22222222      -0.00000000       0.25000000 </v>
   <v>       0.33333333      -0.00000000       0.25000000 </v>
   <v>       0.44444444      -0.00000000       0.25000000 </v>
   <v>      -0.44444444       0.00000000       0.25000000 </v>
   <v>      -0.33333333       0.00000000       0.25000000 </v>
   <v>      -0.22222222       0.00000000       0.25000000 </v>
   <v>      -0.11111111       0.00000000       0.25000000 </v>
   <v>       0.00000000       0.11111111       0.25000000 </v>
   <v>       0.11111111       0.11111111       0.25000000 </v>
   <v>       0.22222222       0.11111111       0.25000000 </v>
   <v>       0.33333333       0.11111111       0.25000000 </v>
   <v>       0.44444444       0.11111111       0.25000000 </v>
   <v>      -0.44444444       0.11111111       0.25000000 </v>
   <v>      -0.33333333       0.11111111       0.25000000 </v>
   <v>      -0.22222222       0.11111111       0.25000000 </v>
   <v>      -0.11111111       0.11111111       0.25000000 </v>
   <v>       0.00000000       0.22222222       0.25000000 </v>
   <v>       0.11111111       0.22222222       0.25000000 </v>
   <v>       0.22222222       0.22222222       0.25000000 </v>
   <v>       0.33333333       0.22222222       0.25000000 </v>
   <v>       0.44444444       0.22222222       0.25000000 </v>
   <v>      -0.44444444       0.22222222       0.25000000 </v>
   <v>      -0.33333333       0.22222222       0.25000000 </v>
   <v>      -0.22222222       0.22222222       0.25000000 </v>
   <v>      -0.11111111       0.22222222       0.25000000 </v>
   <v>       0.00000000       0.33333333       0.25000000 </v>
   <v>       0.11111111       0.33333333       0.25000000 </v>
   <v>       0.22222222       0.33333333       0.25000000 </v>
   <v>       0.33333333       0.33333333       0.25000000 </v>
   <v>       0.44444444       0.33333333       0.25000000 </v>
   <v>      -0.44444444       0.33333333       0.25000000 </v>
   <v>      -0.33333333       0.33333333       0.25000000 </v>
   <v>      -0.22222222       0.33333333       0.25000000 </v>
   <v>      -0.11111111       0.33333333       0.25000000 </v>
   <v>       0.00000000       0.44444444       0.25000000 </v>
   <v>       0.11111111       0.44444444       0.25000000 </v>
   <v>       0.22222222       0.44444444       0.25000000 </v>
   <v>       0.33333333       0.44444444       0.25000000 </v>
   <v>       0.44444444       0.44444444       0.25000000 </v>
   <v>      -0.44444444       0.44444444       0.25000000 </v>
   <v>      -0.33333333       0.44444444       0.25000000 </v>
   <v>      -0.22222222       0.44444444       0.25000000 </v>
   <v>      -0.11111111       0.44444444       0.25000000 </v>
   <v>       0.00000000      -0.44444444       0.25000000 </v>
   <v>       0.11111111      -0.44444444       0.25000000 </v>
   <v>       0.22222222      -0.44444444       0.25000000 </v>
   <v>       0.33333333      -0.44444444       0.25000000 </v>
   <v>       0.44444444      -0.44444444       0.25000000 </v>
   <v>      -0.44444444      -0.44444444       0.25000000 </v>
   <v>      -0.33333333      -0.44444444       0.25000000 </v>
   <v>      -0.22222222      -0.44444444       0.25000000 </v>
   <v>      -0.11111111      -0.44444444       0.25000000 </v>
   <v>       0.00000000      -0.33333333       0.25000000 </v>
   <v>       0.11111111      -0.33333333       0.25000000 </v>
   <v>       0.22222222      -0.33333333       0.25000000 </v>
   <v>       0.33333333      -0.33333333       0.25000000 </v>
   <v>       0.44444444      -0.33333333       0.25000000 </v>
   <v>      -0.44444444      -0.33333333       0.25000000 </v>
   <v>      -0.33333333      -0.33333333       0.25000000 </v>
   <v>      -0.22222222      -0.33333333       0.25000000 </v>
   <v>      -0.11111111      -0.33333333       0.25000000 </v>
   <v>       0.00000000      -0.22222222       0.25000000 </v>
   <v>       0.11111111      -0.22222222       0.25000000 </v>
   <v>       0.22222222      -0.22222222       0.25000000 </v>
   <v>       0.33333333      -0.22222222       0.25000000 </v>
   <v>       0.44444444      -0.22222222       0.25000000 </v>
   <v>      -0.44444444      -0.22222222       0.25000000 </v>
   <v>      -0.33333333      -0.22222222       0.25000000 </v>
   <v>      -0.22222222      -0.22222222       0.25000000 </v>
   <v>      -0.11111111      -0.22222222       0.25000000 </v>
   <v>      -0.00000000      -0.11111111       0.25000000 </v>
   <v>       0.11111111      -0.11111111       0.25000000 </v>
   <v>       0.22222222      -0.11111111       0.25000000 </v>
   <v>       0.33333333      -0.11111111       0.25000000 </v>
   <v>       0.44444444      -0.11111111       0.25000000 </v>
   <v>      -0.44444444      -0.11111111       0.25000000 </v>
   <v>      -0.33333333      -0.11111111       0.25000000 </v>
   <v>      -0.22222222      -0.11111111       0.25000000 </v>
   <v>      -0.11111111      -0.11111111       0.25000000 </v>
   <v>       0.00000000       0.00000000       0.50000000 </v>
   <v>       0.11111111      -0.00000000       0.50000000 </v>
   <v>       0.22222222      -0.00000000       0.50000000 </v>
   <v>       0.33333333      -0.00000000       0.50000000 </v>
   <v>       0.44444444      -0.00000000       0.50000000 </v>
   <v>       0.00000000       0.11111111       0.50000000 </v>
   <v>       0.11111111       0.11111111       0.50000000 </v>
   <v>       0.22222222       0.11111111       0.50000000 </v>
   <v>       0.33333333       0.11111111       0.50000000 </v>
   <v>       0.44444444       0.11111111       0.50000000 </v>
   <v>      -0.44444444       0.11111111       0.50000000 </v>
   <v>      -0.33333333       0.11111111       0.50000000 </v>
   <v>      -0.22222222       0.11111111       0.50000000 </v>
   <v>      -0.11111111       0.11111111       0.50000000 </v>
   <v>       0.00000000       0.22222222       0.50000000 </v>
   <v>       0.11111111       0.22222222       0.50000000 </v>
   <v>       0.22222222       0.22222222       0.50000000 </v>
   <v>       0.33333333       0.22222222       0.50000000 </v>
   <v>       0.44444444       0.22222222       0.50000000 </v>
   <v>      -0.44444444       0.22222222       0.50000000 </v>
   <v>      -0.33333333       0.22222222       0.50000000 </v>
   <v>      -0.22222222       0.22222222       0.50000000 </v>
   <v>      -0.11111111       0.22222222       0.50000000 </v>
   <v>       0.00000000       0.33333333       0.50000000 </v>
   <v>       0.11111111       0.33333333       0.50000000 </v>
   <v>       0.22222222       0.33333333       0.50000000 </v>
   <v>       0.33333333       0.33333333       0.50000000 </v>
   <v>       0.44444444       0.33333333       0.50000000 </v>
   <v>      -0.44444444       0.33333333       0.50000000 </v>
   <v>      -0.33333333       0.33333333       0.50000000 </v>
   <v>      -0.22222222       0.33333333       0.50000000 </v>
   <v>      -0.11111111       0.33333333       0.50000000 </v>
   <v>       0.00000000       0.44444444       0.50000000 </v>
   <v>       0.11111111       0.44444444       0.50000000 </v>
   <v>       0.22222222       0.44444444       0.50000000 </v>
   <v>       0.33333333       0.44444444       0.50000000 </v>
   <v>       0.44444444       0.44444444       0.50000000 </v>
   <v>      -0.44444444       0.44444444       0.50000000 </v>
   <v>      -0.33333333       0.44444444       0.50000000 </v>
   <v>      -0.22222222       0.44444444       0.50000000 </v>
   <v>      -0.11111111       0.44444444       0.50000000 </v>
  </varray>
  <varray name="weights" >
   <v>       0.00308642 </v>
   <v>       0.00617284 </v>
   <v>       0.00617284 </v>
   <v>       0.00617284 </v>
   <v>       0.00617284 </v>
   <v>       0.00617284 </v>
   <v>       0.00617284 </v>
   <v>       0.00617284 </v>
   <v>       0.00617284 </v>
   <v>       0.00617284 </v>
   <v>       0.00617284 </v>
   <v>       0.00617284 </v>
   <v>       0.00617284 </v>
   <v>       0.00617284 </v>
   <v>       0.00617284 </v>
   <v>       0.00617284 </v>
   <v>       0.00617284 </v>
   <v>       0.00617284 </v>
   <v>       0.00617284 </v>
   <v>       0.00617284 </v>
   <v>       0.00617284 </v>
   <v>       0.00617284 </v>
   <v>       0.00617284 </v>
   <v>       0.00617284 </v>
   <v>       0.00617284 </v>
   <v>       0.00617284 </v>
   <v>       0.00617284 </v>
   <v>       0.00617284 </v>
   <v>       0.00617284 </v>
   <v>       0.00617284 </v>
   <v>       0.00617284 </v>
   <v>       0.00617284 </v>
   <v>       0.00617284 </v>
   <v>       0.00617284 </v>
   <v>       0.00617284 </v>
   <v>       0.00617284 </v>
   <v>       0.00617284 </v>
   <v>       0.00617284 </v>
   <v>       0.00617284 </v>
   <v>       0.00617284 </v>
   <v>       0.00617284 </v>
   <v>       0.00617284 </v>
   <v>       0.00617284 </v>
   <v>       0.00617284 </v>
   <v>       0.00617284 </v>
   <v>       0.00617284 </v>
   <v>       0.00617284 </v>
   <v>       0.00617284 </v>
   <v>       0.00617284 </v>
   <v>       0.00617284 </v>
   <v>       0.00617284 </v>
   <v>       0.00617284 </v>
   <v>       0.00617284 </v>
   <v>       0.00617284 </v>
   <v>       0.00617284 </v>
   <v>       0.00617284 </v>
   <v>       0.00617284 </v>
   <v>       0.00617284 </v>
   <v>       0.00617284 </v>
   <v>       0.00617284 </v>
   <v>       0.00617284 </v>
   <v>       0.00617284 </v>
   <v>       0.00617284 </v>
   <v>       0.00617284 </v>
   <v>       0.00617284 </v>
   <v>       0.00617284 </v>
   <v>       0.00617284 </v>
   <v>       0.00617284 </v>
   <v>       0.00617284 </v>
   <v>       0.00617284 </v>
   <v>       0.00617284 </v>
   <v>       0.00617284 </v>
   <v>       0.00617284 </v>
   <v>       0.00617284 </v>
   <v>       0.00617284 </v>
   <v>       0.00617284 </v>
   <v>       0.00617284 </v>
   <v>       0.00617284 </v>
   <v>       0.00617284 </v>
   <v>       0.00617284 </v>
   <v>       0.00617284 </v>
   <v>       0.00617284 </v>
   <v>       0.00617284 </v>
   <v>       0.00617284 </v>
   <v>       0.00617284 </v>
   <v>       0.00617284 </v>
   <v>       0.00617284 </v>
   <v>       0.00617284 </v>
   <v>       0.00617284 </v>
   <v>       0.00617284 </v>
   <v>       0.00617284 </v>
   <v>       0.00617284 </v>
   <v>       0.00617284 </v>
   <v>       0.00617284 </v>
   <v>       0.00617284 </v>
   <v>       0.00617284 </v>
   <v>       0.00617284 </v>
   <v>       0.00617284 </v>
   <v>       0.00617284 </v>
   <v>       0.00617284 </v>
   <v>       0.00617284 </v>
   <v>       0.00617284 </v>
   <v>       0.00617284 </v>
   <v>       0.00617284 </v>
   <v>       0.00617284 </v>
   <v>       0.00617284 </v>
   <v>       0.00617284 </v>
   <v>       0.00617284 </v>
   <v>       0.00617284 </v>
   <v>       0.00617284 </v>
   <v>       0.00617284 </v>
   <v>       0.00617284 </v>
   <v>       0.00617284 </v>
   <v>       0.00617284 </v>
   <v>       0.00617284 </v>
   <v>       0.00617284 </v>
   <v>       0.00617284 </v>
   <v>       0.00617284 </v>
   <v>       0.00617284 </v>
   <v>       0.00617284 </v>
   <v>       0.00617284 </v>
   <v>       0.00617284 </v>
   <v>       0.00308642 </v>
   <v>       0.00617284 </v>
   <v>       0.00617284 </v>
   <v>       0.00617284 </v>
   <v>       0.00617284 </v>
   <v>       0.00617284 </v>
   <v>       0.00617284 </v>
   <v>       0.00617284 </v>
   <v>       0.00617284 </v>
   <v>       0.00617284 </v>
   <v>       0.00617284 </v>
   <v>       0.00617284 </v>
   <v>       0.00617284 </v>
   <v>       0.00617284 </v>
   <v>       0.00617284 </v>
   <v>       0.00617284 </v>
   <v>       0.00617284 </v>
   <v>       0.00617284 </v>
   <v>       0.00617284 </v>
   <v>       0.00617284 </v>
   <v>       0.00617284 </v>
   <v>       0.00617284 </v>
   <v>       0.00617284 </v>
   <v>       0.00617284 </v>
   <v>       0.00617284 </v>
   <v>       0.00617284 </v>
   <v>       0.00617284 </v>
   <v>       0.00617284 </v>
   <v>       0.00617284 </v>
   <v>       0.00617284 </v>
   <v>       0.00617284 </v>
   <v>       0.00617284 </v>
   <v>       0.00617284 </v>
   <v>       0.00617284 </v>
   <v>       0.00617284 </v>
   <v>       0.00617284 </v>
   <v>       0.00617284 </v>
   <v>       0.00617284 </v>
   <v>       0.00617284 </v>
   <v>       0.00617284 </v>
   <v>       0.00617284 </v>
  </varray>
 </kpoints>
 <parameters>
  <separator name="general" >
   <i type="string" name="SYSTEM">graphite</i>
   <i type="logical" name="LCOMPAT"> F  </i>
  </separator>
  <separator name="electronic" >
   <i type="string" name="PREC">accura</i>
   <i name="ENMAX">    600.00000000</i>
   <i name="ENAUG">    644.87300000</i>
   <i name="EDIFF">      0.00000100</i>
   <i type="int" name="IALGO">    38</i>
   <i type="int" name="IWAVPR">    10</i>
   <i type="int" name="NBANDS">    84</i>
   <i name="NELECT">    128.00000000</i>
   <i type="int" name="TURBO">     0</i>
   <i type="int" name="IRESTART">     0</i>
   <i type="int" name="NREBOOT">     0</i>
   <i type="int" name="NMIN">     0</i>
   <i name="EREF">      0.00000000</i>
   <separator name="electronic smearing" >
    <i type="int" name="ISMEAR">     0</i>
    <i name="SIGMA">      0.10000000</i>
    <i name="KSPACING">      0.50000000</i>
    <i type="logical" name="KGAMMA"> T  </i>
   </separator>
   <separator name="electronic projectors" >
    <i type="logical" name="LREAL"> F  </i>
    <v name="ROPT">      0.00000000</v>
    <i type="int" name="LMAXPAW">  -100</i>
    <i type="int" name="LMAXMIX">     2</i>
    <i type="logical" name="NLSPLINE"> F  </i>
   </separator>
   <separator name="electronic startup" >
    <i type="int" name="ISTART">     0</i>
    <i type="int" name="ICHARG">     2</i>
    <i type="int" name="INIWAV">     1</i>
   </separator>
   <separator name="electronic spin" >
    <i type="int" name="ISPIN">     1</i>
    <i type="logical" name="LNONCOLLINEAR"> F  </i>
    <v name="MAGMOM">      1.00000000      1.00000000      1.00000000      1.00000000      1.00000000      1.00000000      1.00000000      1.00000000      1.00000000      1.00000000      1.00000000      1.00000000      1.00000000      1.00000000      1.00000000      1.00000000      1.00000000      1.00000000      1.00000000      1.00000000
      1.00000000      1.00000000      1.00000000      1.00000000      1.00000000      1.00000000      1.00000000      1.00000000      1.00000000      1.00000000      1.00000000      1.00000000</v>
    <i name="NUPDOWN">     -1.00000000</i>
    <i type="logical" name="LSORBIT"> F  </i>
    <v name="SAXIS">      0.00000000      0.00000000      1.00000000</v>
    <i type="logical" name="LSPIRAL"> F  </i>
    <v name="QSPIRAL">      0.00000000      0.00000000      0.00000000</v>
    <i type="logical" name="LZEROZ"> F  </i>
   </separator>
   <separator name="electronic exchange-correlation" >
    <i type="logical" name="LASPH"> F  </i>
    <i type="logical" name="LMETAGGA"> F  </i>
   </separator>
   <separator name="electronic convergence" >
    <i type="int" name="NELM">   200</i>
    <i type="int" name="NELMDL">     0</i>
    <i type="int" name="NELMIN">     2</i>
    <i name="ENINI">    600.00000000</i>
    <separator name="electronic convergence detail" >
     <i type="logical" name="LDIAG"> T  </i>
     <i type="logical" name="LSUBROT"> F  </i>
     <i name="WEIMIN">      0.00000000</i>
     <i name="EBREAK">      0.00000000</i>
     <i name="DEPER">      0.30000000</i>
     <i type="int" name="NRMM">     4</i>
     <i name="TIME">      0.40000000</i>
    </separator>
   </separator>
   <separator name="electronic mixer" >
    <i name="AMIX">      0.40000000</i>
    <i name="BMIX">      1.00000000</i>
    <i name="AMIN">      0.10000000</i>
    <i name="AMIX_MAG">      1.60000000</i>
    <i name="BMIX_MAG">      1.00000000</i>
    <separator name="electronic mixer details" >
     <i type="int" name="IMIX">     4</i>
     <i type="int" name="MAXMIX">   -45</i>
     <i name="WC">    100.00000000</i>
     <i type="int" name="INIMIX">     1</i>
     <i type="int" name="MIXPRE">     1</i>
     <i type="int" name="MREMOVE">     5</i>
    </separator>
   </separator>
   <separator name="electronic dipolcorrection" >
    <i type="logical" name="LDIPOL"> F  </i>
    <i type="logical" name="LMONO"> F  </i>
    <i type="int" name="IDIPOL">     0</i>
    <i name="EPSILON">      1.00000000</i>
    <v name="DIPOL">   -100.00000000   -100.00000000   -100.00000000</v>
    <i name="EFIELD">      0.00000000</i>
   </separator>
  </separator>
  <separator name="grids" >
   <i type="int" name="NGX">    40</i>
   <i type="int" name="NGY">    40</i>
   <i type="int" name="NGZ">    90</i>
   <i type="int" name="NGXF">    80</i>
   <i type="int" name="NGYF">    80</i>
   <i type="int" name="NGZF">   180</i>
   <i type="logical" name="ADDGRID"> F  </i>
  </separator>
  <separator name="ionic" >
   <i type="int" name="NSW">     0</i>
   <i type="int" name="IBRION">    -1</i>
   <i type="int" name="ISIF">     2</i>
   <i name="PSTRESS">      0.00000000</i>
   <i name="EDIFFG">      0.00100000</i>
   <i type="int" name="NFREE">     0</i>
   <i name="POTIM">      0.50000000</i>
   <i name="SMASS">     -3.00000000</i>
   <i name="SCALEE">      1.00000000</i>
  </separator>
  <separator name="ionic md" >
   <i name="TEBEG">      0.00010000</i>
   <i name="TEEND">      0.00010000</i>
   <i type="int" name="NBLOCK">     1</i>
   <i type="int" name="KBLOCK">     1</i>
   <i type="int" name="NPACO">   256</i>
   <i name="APACO">     16.00000000</i>
  </separator>
  <separator name="symmetry" >
   <i type="int" name="ISYM">     2</i>
   <i name="SYMPREC">      0.00001000</i>
  </separator>
  <separator name="dos" >
   <i type="logical" name="LORBIT"> F  </i>
   <v name="RWIGS">     -1.00000000</v>
   <i type="int" name="NEDOS">   301</i>
   <i name="EMIN">     10.00000000</i>
   <i name="EMAX">    -10.00000000</i>
   <i name="EFERMI">      0.00000000</i>
  </separator>
  <separator name="writing" >
   <i type="int" name="NWRITE">     2</i>
   <i type="logical" name="LWAVE"> F  </i>
   <i type="logical" name="LCHARG"> F  </i>
   <i type="logical" name="LPARD"> F  </i>
   <i type="logical" name="LVTOT"> F  </i>
   <i type="logical" name="LVHAR"> F  </i>
   <i type="logical" name="LELF"> F  </i>
   <i type="logical" name="LOPTICS"> F  </i>
   <v name="STM">      0.00000000      0.00000000      0.00000000      0.00000000      0.00000000      0.00000000      0.00000000</v>
  </separator>
  <separator name="performance" >
   <i type="int" name="NPAR">     6</i>
   <i type="int" name="NSIM">     4</i>
   <i type="int" name="NBLK">    -1</i>
   <i type="logical" name="LPLANE"> T  </i>
   <i type="logical" name="LSCALAPACK"> T  </i>
   <i type="logical" name="LSCAAWARE"> F  </i>
   <i type="logical" name="LSCALU"> F  </i>
   <i type="logical" name="LASYNC"> F  </i>
   <i type="logical" name="LORBITALREAL"> F  </i>
  </separator>
  <separator name="miscellaneous" >
   <i type="int" name="IDIOT">     3</i>
   <i type="logical" name="LMUSIC"> F  </i>
   <v name="POMASS">     12.01100000</v>
   <v name="DARWINR">      0.00000000</v>
   <v name="DARWINV">      1.00000000</v>
   <i type="logical" name="LCORR"> T  </i>
  </separator>
  <i type="logical" name="GGA_COMPAT"> T  </i>
  <i type="logical" name="LBERRY"> F  </i>
  <i type="int" name="ICORELEVEL">     0</i>
  <i type="logical" name="LDAU"> F  </i>
  <i type="int" name="I_CONSTRAINED_M">     0</i>
  <separator name="electronic exchange-correlation" >
   <i type="string" name="GGA">PE</i>
   <i type="int" name="VOSKOWN">     0</i>
   <i type="logical" name="LHFCALC"> F  </i>
   <i type="string" name="PRECFOCK"></i>
   <i type="logical" name="LSYMGRAD"> F  </i>
   <i type="logical" name="LHFONE"> F  </i>
   <i type="logical" name="LRHFCALC"> F  </i>
   <i type="logical" name="LTHOMAS"> F  </i>
   <i type="logical" name="LMODELHF"> F  </i>
   <i name="ENCUT4O">     -1.00000000</i>
   <i type="int" name="EXXOEP">     0</i>
   <i type="int" name="FOURORBIT">     0</i>
   <i name="AEXX">      0.00000000</i>
   <i name="HFALPHA">      0.00000000</i>
   <i name="MCALPHA">      0.00000000</i>
   <i name="ALDAX">      1.00000000</i>
   <i name="AGGAX">      1.00000000</i>
   <i name="ALDAC">      1.00000000</i>
   <i name="AGGAC">      1.00000000</i>
   <i type="int" name="NKREDX">     1</i>
   <i type="int" name="NKREDY">     1</i>
   <i type="int" name="NKREDZ">     1</i>
   <i type="logical" name="SHIFTRED"> F  </i>
   <i type="logical" name="ODDONLY"> F  </i>
   <i type="logical" name="EVENONLY"> F  </i>
   <i type="int" name="LMAXFOCK">     0</i>
   <i type="int" name="NMAXFOCKAE">     0</i>
   <i type="logical" name="LFOCKAEDFT"> F  </i>
   <i name="HFSCREEN">      0.00000000</i>
   <i name="HFSCREENC">      0.00000000</i>
   <i type="int" name="NBANDSGWLOW">     0</i>
  </separator>
  <separator name="vdW DFT" >
   <i type="logical" name="LUSE_VDW"> F  </i>
   <i name="Zab_VDW">     -0.84910000</i>
   <i name="PARAM1">      0.12340000</i>
   <i name="PARAM2">      1.00000000</i>
   <i name="PARAM3">      0.00000000</i>
  </separator>
  <separator name="model GW" >
   <i type="int" name="MODEL_GW">     0</i>
   <i name="MODEL_EPS0">      4.25424526</i>
   <i name="MODEL_ALPHA">      1.00000000</i>
  </separator>
  <separator name="linear response parameters" >
   <i type="logical" name="LEPSILON"> F  </i>
   <i type="logical" name="LRPA"> F  </i>
   <i type="logical" name="LNABLA"> F  </i>
   <i type="logical" name="LVEL"> F  </i>
   <i type="int" name="KINTER">     0</i>
   <i name="CSHIFT">      0.10000000</i>
   <i name="OMEGAMAX">     -1.00000000</i>
   <i name="DEG_THRESHOLD">      0.00200000</i>
  </separator>
  <separator name="orbital magnetization" >
   <i type="logical" name="NUCIND"> F  </i>
   <v name="MAGPOS">      0.00000000      0.00000000      0.00000000</v>
   <i type="logical" name="LNICSALL"> T  </i>
   <i type="logical" name="ORBITALMAG"> F  </i>
   <i type="logical" name="LMAGBLOCH"> F  </i>
   <i type="logical" name="LCHIMAG"> F  </i>
   <i type="logical" name="LGAUGE"> T  </i>
   <i type="int" name="MAGATOM">     0</i>
   <v name="MAGDIPOL">      0.00000000      0.00000000      0.00000000</v>
   <v name="AVECCONST">      0.00000000      0.00000000      0.00000000</v>
  </separator>
  <separator name="response functions" >
   <i type="logical" name="LADDER"> F  </i>
   <i type="logical" name="LFXC"> F  </i>
   <i type="logical" name="LHARTREE"> T  </i>
   <i type="int" name="IBSE">     0</i>
   <i type="logical" name="LTCTE"> F  </i>
   <i type="logical" name="LTETE"> F  </i>
   <i type="logical" name="LTRIPLET"> F  </i>
   <i type="logical" name="LFXCEPS"> F  </i>
   <i type="logical" name="LFXHEG"> F  </i>
   <i type="logical" name="L2ORDER"> F  </i>
   <i type="logical" name="LUSEW"> F  </i>
   <i name="ENCUTGW">     -2.00000000</i>
   <i name="ENCUTGWSOFT">     -2.00000000</i>
   <i name="ENCUTLF">     -1.00000000</i>
   <i type="int" name="LMAXMP2">    -1</i>
   <i name="SCISSOR">      0.00000000</i>
   <i type="int" name="NOMEGA">     0</i>
   <i type="int" name="NOMEGAR">     0</i>
   <i type="int" name="NBANDSGW">    -1</i>
   <i type="int" name="NBANDSO">    -1</i>
   <i type="int" name="NBANDSV">    -1</i>
   <i type="int" name="NELM">   200</i>
   <i type="int" name="DIM">     3</i>
   <i type="int" name="ANTIRES">     0</i>
   <i name="OMEGAMAX">    -30.00000000</i>
   <i name="OMEGAMIN">    -30.00000000</i>
   <i name="OMEGATL">   -200.00000000</i>
   <i type="int" name="OMEGAGRID">     0</i>
   <i name="CSHIFT">     -0.10000000</i>
   <i type="logical" name="SELFENERGY"> F  </i>
   <i type="logical" name="LSPECTRAL"> F  </i>
   <i type="logical" name="ODDONLYGW"> F  </i>
   <i type="logical" name="EVENONLYGW"> F  </i>
   <i type="int" name="NKREDLFX">     1</i>
   <i type="int" name="NKREDLFY">     1</i>
   <i type="int" name="NKREDLFZ">     1</i>
   <i type="int" name="MAXMEM">  1800</i>
   <i type="int" name="TELESCOPE">     0</i>
   <i type="int" name="TAUPAR">     1</i>
  </separator>
  <separator name="External order field" >
   <i name="OFIELD_KAPPA">      0.00000000</i>
   <v name="OFIELD_K">      0.00000000      0.00000000      0.00000000</v>
   <i name="OFIELD_Q6_NEAR">      0.00000000</i>
   <i name="OFIELD_Q6_FAR">      0.00000000</i>
   <i name="OFIELD_A">      0.00000000</i>
  </separator>
 </parameters>
 <atominfo>
  <atoms>      32 </atoms>
  <types>       1 </types>
  <array name="atoms" >
   <dimension dim="1">ion</dimension>
   <field type="string">element</field>
   <field type="int">atomtype</field>
   <set>
    <rc><c>C </c><c>   1</c></rc>
    <rc><c>C </c><c>   1</c></rc>
    <rc><c>C </c><c>   1</c></rc>
    <rc><c>C </c><c>   1</c></rc>
    <rc><c>C </c><c>   1</c></rc>
    <rc><c>C </c><c>   1</c></rc>
    <rc><c>C </c><c>   1</c></rc>
    <rc><c>C </c><c>   1</c></rc>
    <rc><c>C </c><c>   1</c></rc>
    <rc><c>C </c><c>   1</c></rc>
    <rc><c>C </c><c>   1</c></rc>
    <rc><c>C </c><c>   1</c></rc>
    <rc><c>C </c><c>   1</c></rc>
    <rc><c>C </c><c>   1</c></rc>
    <rc><c>C </c><c>   1</c></rc>
    <rc><c>C </c><c>   1</c></rc>
    <rc><c>C </c><c>   1</c></rc>
    <rc><c>C </c><c>   1</c></rc>
    <rc><c>C </c><c>   1</c></rc>
    <rc><c>C </c><c>   1</c></rc>
    <rc><c>C </c><c>   1</c></rc>
    <rc><c>C </c><c>   1</c></rc>
    <rc><c>C </c><c>   1</c></rc>
    <rc><c>C </c><c>   1</c></rc>
    <rc><c>C </c><c>   1</c></rc>
    <rc><c>C </c><c>   1</c></rc>
    <rc><c>C </c><c>   1</c></rc>
    <rc><c>C </c><c>   1</c></rc>
    <rc><c>C </c><c>   1</c></rc>
    <rc><c>C </c><c>   1</c></rc>
    <rc><c>C </c><c>   1</c></rc>
    <rc><c>C </c><c>   1</c></rc>
   </set>
  </array>
  <array name="atomtypes" >
   <dimension dim="1">type</dimension>
   <field type="int">atomspertype</field>
   <field type="string">element</field>
   <field>mass</field>
   <field>valence</field>
   <field type="string">pseudopotential</field>
   <set>
    <rc><c>  32</c><c>C </c><c>     12.01100000</c><c>      4.00000000</c><c> PAW_PBE C 08Apr2002                    </c></rc>
   </set>
  </array>
 </atominfo>
 <structure name="initialpos" >
  <crystal>
   <varray name="basis" >
    <v>       4.93431088      -0.00022240       0.00000000 </v>
    <v>      -2.46734805       4.27312738       0.00000000 </v>
    <v>       0.00000000       0.00000000      10.76118770 </v>
   </varray>
   <i name="volume">    226.89308034 </i>
   <varray name="rec_basis" >
    <v>       0.20266782       0.11702250       0.00000000 </v>
    <v>       0.00001055       0.23402673       0.00000000 </v>
    <v>       0.00000000       0.00000000       0.09292655 </v>
   </varray>
  </crystal>
  <varray name="positions" >
   <v>       0.49915515       0.00000017       0.12415530 </v>
   <v>       0.99999985       0.00000017       0.12500000 </v>
   <v>       0.49999985       0.50000017       0.12500000 </v>
   <v>       0.99999985       0.50000017       0.12500000 </v>
   <v>       0.49999985       0.00000017       0.62500000 </v>
   <v>       0.99999985       0.00000017       0.62500000 </v>
   <v>       0.49999985       0.50000017       0.62500000 </v>
   <v>       0.99999985       0.50000017       0.62500000 </v>
   <v>       0.00000017       0.49999985       0.37500000 </v>
   <v>       0.50000017       0.49999985       0.37500000 </v>
   <v>       0.00000017       0.99999985       0.37500000 </v>
   <v>       0.50000017       0.99999985       0.37500000 </v>
   <v>       0.00000017       0.49999985       0.87500000 </v>
   <v>       0.50000017       0.49999985       0.87500000 </v>
   <v>       0.00000017       0.99999985       0.87500000 </v>
   <v>       0.50000017       0.99999985       0.87500000 </v>
   <v>       0.16664946       0.33335053       0.12500000 </v>
   <v>       0.66664946       0.33335053       0.12500000 </v>
   <v>       0.16664946       0.83335053       0.12500000 </v>
   <v>       0.66664946       0.83335053       0.12500000 </v>
   <v>       0.16664946       0.33335053       0.62500000 </v>
   <v>       0.66664946       0.33335053       0.62500000 </v>
   <v>       0.16664946       0.83335053       0.62500000 </v>
   <v>       0.66664946       0.83335053       0.62500000 </v>
   <v>       0.33335053       0.16664946       0.37500000 </v>
   <v>       0.83335053       0.16664946       0.37500000 </v>
   <v>       0.33335053       0.66664946       0.37500000 </v>
   <v>       0.83335053       0.66664946       0.37500000 </v>
   <v>       0.33335053       0.16664946       0.87500000 </v>
   <v>       0.83335053       0.16664946       0.87500000 </v>
   <v>       0.33335053       0.66664946       0.87500000 </v>
   <v>       0.83335053       0.66664946       0.87500000 </v>
  </varray>
 </structure>
 <calculation>
  <scstep>
   <time name="dav">   85.07   85.12</time>
   <time name="total">   85.46   85.53</time>
   <energy>
    <i name="alphaZ">    367.73130239 </i>
    <i name="ewald">  -4661.22156818 </i>
    <i name="hartreedc">   -629.47149757 </i>
    <i name="XCdc">    448.18661071 </i>
    <i name="pawpsdc">   1210.60617908 </i>
    <i name="pawaedc">  -1247.42152856 </i>
    <i name="eentropy">     -0.01632478 </i>
    <i name="bandstr">    308.42044155 </i>
    <i name="atom">   4708.80920826 </i>
    <i name="e_fr_energy">    505.62282291 </i>
    <i name="e_wo_entrp">    505.63914769 </i>
    <i name="e_0_energy">    505.63098530 </i>
   </energy>
  </scstep>
  <scstep>
   <time name="dav">   98.13   98.18</time>
   <time name="total">   98.14   98.19</time>
   <energy>
    <i name="e_fr_energy">   -266.72947284 </i>
    <i name="e_wo_entrp">   -266.72709829 </i>
    <i name="e_0_energy">   -266.72828556 </i>
   </energy>
  </scstep>
  <scstep>
   <time name="dav">   95.25   95.30</time>
   <time name="total">   95.26   95.31</time>
   <energy>
    <i name="e_fr_energy">   -306.57661171 </i>
    <i name="e_wo_entrp">   -306.57253513 </i>
    <i name="e_0_energy">   -306.57457342 </i>
   </energy>
  </scstep>
  <scstep>
   <time name="dav">   92.97   93.02</time>
   <time name="total">   92.98   93.03</time>
   <energy>
    <i name="e_fr_energy">   -307.22945416 </i>
    <i name="e_wo_entrp">   -307.22537802 </i>
    <i name="e_0_energy">   -307.22741609 </i>
   </energy>
  </scstep>
  <scstep>
   <time name="dav">   94.99   95.03</time>
   <time name="total">   99.10   99.16</time>
   <energy>
    <i name="e_fr_energy">   -307.24731953 </i>
    <i name="e_wo_entrp">   -307.24324326 </i>
    <i name="e_0_energy">   -307.24528139 </i>
   </energy>
  </scstep>
  <scstep>
   <time name="dav">   91.78   91.83</time>
   <time name="total">   98.21   98.26</time>
   <energy>
    <i name="e_fr_energy">   -294.20566839 </i>
    <i name="e_wo_entrp">   -294.20202804 </i>
    <i name="e_0_energy">   -294.20384821 </i>
   </energy>
  </scstep>
  <scstep>
   <time name="dav">  124.71  124.77</time>
   <time name="total">  128.51  128.58</time>
   <energy>
    <i name="e_fr_energy">   -290.15978289 </i>
    <i name="e_wo_entrp">   -290.15631786 </i>
    <i name="e_0_energy">   -290.15805037 </i>
   </energy>
  </scstep>
  <scstep>
   <time name="dav">   89.44   89.49</time>
   <time name="total">   93.17   93.22</time>
   <energy>
    <i name="e_fr_energy">   -290.18813312 </i>
    <i name="e_wo_entrp">   -290.18469657 </i>
    <i name="e_0_energy">   -290.18641484 </i>
   </energy>
  </scstep>
  <scstep>
   <time name="dav">  112.10  112.16</time>
   <time name="total">  117.60  117.66</time>
   <energy>
    <i name="e_fr_energy">   -290.19052570 </i>
    <i name="e_wo_entrp">   -290.18708529 </i>
    <i name="e_0_energy">   -290.18880549 </i>
   </energy>
  </scstep>
  <scstep>
   <time name="dav">  123.90  123.96</time>
   <time name="total">  129.49  129.56</time>
   <energy>
    <i name="e_fr_energy">   -290.19086607 </i>
    <i name="e_wo_entrp">   -290.18742325 </i>
    <i name="e_0_energy">   -290.18914466 </i>
   </energy>
  </scstep>
  <scstep>
   <time name="dav">  135.64  135.71</time>
   <time name="total">  141.65  141.72</time>
   <energy>
    <i name="e_fr_energy">   -290.19084498 </i>
    <i name="e_wo_entrp">   -290.18740409 </i>
    <i name="e_0_energy">   -290.18912454 </i>
   </energy>
  </scstep>
  <scstep>
   <time name="dav">  118.02  118.08</time>
   <time name="total">  118.42  118.48</time>
   <energy>
    <i name="alphaZ">    367.73130239 </i>
    <i name="ewald">  -4661.22156818 </i>
    <i name="hartreedc">   -843.48022170 </i>
    <i name="XCdc">    464.60601353 </i>
    <i name="pawpsdc">   2231.07855250 </i>
    <i name="pawaedc">  -2272.46710012 </i>
    <i name="eentropy">     -0.00344076 </i>
    <i name="bandstr">   -285.24359059 </i>
    <i name="atom">   4708.80920826 </i>
    <i name="e_fr_energy">   -290.19084466 </i>
    <i name="e_wo_entrp">   -290.18740390 </i>
    <i name="e_0_energy">   -290.18912428 </i>
   </energy>
  </scstep>
  <structure>
   <crystal>
    <varray name="basis" >
     <v>       4.93431088      -0.00022240       0.00000000 </v>
     <v>      -2.46734805       4.27312738       0.00000000 </v>
     <v>       0.00000000       0.00000000      10.76118770 </v>
    </varray>
    <i name="volume">    226.89308034 </i>
    <varray name="rec_basis" >
     <v>       0.20266782       0.11702250       0.00000000 </v>
     <v>       0.00001055       0.23402673       0.00000000 </v>
     <v>       0.00000000       0.00000000       0.09292655 </v>
    </varray>
   </crystal>
   <varray name="positions" >
    <v>       0.49915515       0.00000017       0.12415530 </v>
    <v>       0.99999985       0.00000017       0.12500000 </v>
    <v>       0.49999985       0.50000017       0.12500000 </v>
    <v>       0.99999985       0.50000017       0.12500000 </v>
    <v>       0.49999985       0.00000017       0.62500000 </v>
    <v>       0.99999985       0.00000017       0.62500000 </v>
    <v>       0.49999985       0.50000017       0.62500000 </v>
    <v>       0.99999985       0.50000017       0.62500000 </v>
    <v>       0.00000017       0.49999985       0.37500000 </v>
    <v>       0.50000017       0.49999985       0.37500000 </v>
    <v>       0.00000017       0.99999985       0.37500000 </v>
    <v>       0.50000017       0.99999985       0.37500000 </v>
    <v>       0.00000017       0.49999985       0.87500000 </v>
    <v>       0.50000017       0.49999985       0.87500000 </v>
    <v>       0.00000017       0.99999985       0.87500000 </v>
    <v>       0.50000017       0.99999985       0.87500000 </v>
    <v>       0.16664946       0.33335053       0.12500000 </v>
    <v>       0.66664946       0.33335053       0.12500000 </v>
    <v>       0.16664946       0.83335053       0.12500000 </v>
    <v>       0.66664946       0.83335053       0.12500000 </v>
    <v>       0.16664946       0.33335053       0.62500000 </v>
    <v>       0.66664946       0.33335053       0.62500000 </v>
    <v>       0.16664946       0.83335053       0.62500000 </v>
    <v>       0.66664946       0.83335053       0.62500000 </v>
    <v>       0.33335053       0.16664946       0.37500000 </v>
    <v>       0.83335053       0.16664946       0.37500000 </v>
    <v>       0.33335053       0.66664946       0.37500000 </v>
    <v>       0.83335053       0.66664946       0.37500000 </v>
    <v>       0.33335053       0.16664946       0.87500000 </v>
    <v>       0.83335053       0.16664946       0.87500000 </v>
    <v>       0.33335053       0.66664946       0.87500000 </v>
    <v>       0.83335053       0.66664946       0.87500000 </v>
   </varray>
  </structure>
  <varray name="forces" >
   <v>       0.25166363       0.00458816       0.14255333 </v>
   <v>      -0.04710936       0.00319070       0.00405051 </v>
   <v>      -0.00154184       0.02951462       0.00412419 </v>
   <v>      -0.00168546      -0.02302442       0.00399319 </v>
   <v>      -0.00572250       0.00325316      -0.00005386 </v>
   <v>      -0.00578648       0.00325208      -0.00076406 </v>
   <v>      -0.00574292       0.00327377      -0.00076419 </v>
   <v>      -0.00573649       0.00322360      -0.00076414 </v>
   <v>       0.00522591      -0.00286651       0.00057165 </v>
   <v>       0.00698260      -0.00263367       0.00138953 </v>
   <v>       0.00590607      -0.00427067       0.00097819 </v>
   <v>       0.00663835      -0.00325796      -0.00282383 </v>
   <v>       0.00701150      -0.00389301       0.00139584 </v>
   <v>       0.00521089      -0.00366251       0.00058181 </v>
   <v>       0.00591216      -0.00221268       0.00099188 </v>
   <v>       0.00667067      -0.00325724      -0.00270869 </v>
   <v>       0.00193626      -0.00326267      -0.01337790 </v>
   <v>      -0.03230600      -0.00383612      -0.03969436 </v>
   <v>      -0.08575624      -0.03420389      -0.03918000 </v>
   <v>      -0.08473369       0.02692810      -0.04015640 </v>
   <v>       0.00572835      -0.00327252       0.00044836 </v>
   <v>       0.00569766      -0.00327474       0.00025883 </v>
   <v>       0.00572689      -0.00325727       0.00025688 </v>
   <v>       0.00572976      -0.00329065       0.00026093 </v>
   <v>      -0.00370642       0.00213965      -0.00340318 </v>
   <v>      -0.00900679       0.00136595      -0.00399467 </v>
   <v>      -0.00568282       0.00634137      -0.00370128 </v>
   <v>      -0.00653160       0.00328092       0.00043111 </v>
   <v>      -0.00914108       0.00527289      -0.00410870 </v>
   <v>      -0.00362398       0.00447670      -0.00345888 </v>
   <v>      -0.00569115       0.00009700      -0.00377925 </v>
   <v>      -0.00653588       0.00327787       0.00044718 </v>
  </varray>
  <varray name="stress" >
   <v>     -17.49495916       0.67012690      -0.01536279 </v>
   <v>       0.67012690     -17.09596652      -0.00028904 </v>
   <v>      -0.01536279      -0.00028901     291.11937926 </v>
  </varray>
  <energy>
   <i name="e_fr_energy">   -293.90118108 </i>
   <i name="e_wo_entrp">   -293.89946070 </i>
   <i name="e_0_energy">     -0.00344076 </i>
  </energy>
  <time name="totalsc"> 1387.70 1388.49</time>
  <eigenvalues>
   <array>
    <dimension dim="1">band</dimension>
    <dimension dim="2">kpoint</dimension>
    <dimension dim="3">spin</dimension>
    <field>eigene</field>
    <field>occ</field>
    <set>
     <set comment="spin 1">
      <set comment="kpoint 1">
       <r>  -13.2818    1.0000 </r>
       <r>  -12.6924    1.0000 </r>
       <r>  -12.6906    1.0000 </r>
       <r>  -11.9366    1.0000 </r>
       <r>   -7.7694    1.0000 </r>
       <r>   -7.7678    1.0000 </r>
       <r>   -7.7665    1.0000 </r>
       <r>   -7.4140    1.0000 </r>
       <r>   -7.4095    1.0000 </r>
       <r>   -7.4090    1.0000 </r>
       <r>   -7.4084    1.0000 </r>
       <r>   -7.4079    1.0000 </r>
       <r>   -7.4037    1.0000 </r>
       <r>   -7.3095    1.0000 </r>
       <r>   -7.3067    1.0000 </r>
       <r>   -7.3032    1.0000 </r>
       <r>   -6.3691    1.0000 </r>
       <r>   -6.3657    1.0000 </r>
       <r>   -6.3649    1.0000 </r>
       <r>   -6.3643    1.0000 </r>
       <r>   -6.3636    1.0000 </r>
       <r>   -6.3609    1.0000 </r>
       <r>   -6.3040    1.0000 </r>
       <r>   -6.3019    1.0000 </r>
       <r>   -6.2992    1.0000 </r>
       <r>   -6.0003    1.0000 </r>
       <r>   -5.9986    1.0000 </r>
       <r>   -5.9984    1.0000 </r>
       <r>   -2.9301    1.0000 </r>
       <r>   -0.6106    1.0000 </r>
       <r>   -0.6066    1.0000 </r>
       <r>    0.3360    1.0000 </r>
       <r>    0.3387    1.0000 </r>
       <r>    0.3398    1.0000 </r>
       <r>    0.5149    1.0000 </r>
       <r>    0.5180    1.0000 </r>
       <r>    0.5180    1.0000 </r>
       <r>    0.5194    1.0000 </r>
       <r>    0.5212    1.0000 </r>
       <r>    0.5231    1.0000 </r>
       <r>    0.7057    1.0000 </r>
       <r>    0.7084    1.0000 </r>
       <r>    0.7097    1.0000 </r>
       <r>    2.3136    1.0000 </r>
       <r>    3.0871    1.0000 </r>
       <r>    3.0882    1.0000 </r>
       <r>    3.0892    1.0000 </r>
       <r>    3.8286    1.0000 </r>
       <r>    3.8328    1.0000 </r>
       <r>    3.8970    1.0000 </r>
       <r>    3.9004    1.0000 </r>
       <r>    3.9052    1.0000 </r>
       <r>    3.9085    1.0000 </r>
       <r>    3.9726    1.0000 </r>
       <r>    3.9771    1.0000 </r>
       <r>    4.5310    1.0000 </r>
       <r>    4.5383    1.0000 </r>
       <r>    4.5388    1.0000 </r>
       <r>    4.5393    1.0000 </r>
       <r>    4.5400    1.0000 </r>
       <r>    4.5469    1.0000 </r>
       <r>    4.7511    1.0000 </r>
       <r>    4.7539    1.0000 </r>
       <r>    4.7564    1.0000 </r>
       <r>    8.4845    0.0000 </r>
       <r>    8.4913    0.0000 </r>
       <r>    8.4929    0.0000 </r>
       <r>    8.4934    0.0000 </r>
       <r>    8.4936    0.0000 </r>
       <r>    8.5007    0.0000 </r>
       <r>    9.1216    0.0000 </r>
       <r>    9.1241    0.0000 </r>
       <r>    9.1267    0.0000 </r>
       <r>    9.9562    0.0000 </r>
       <r>    9.9583    0.0000 </r>
       <r>    9.9591    0.0000 </r>
       <r>   13.4332    0.0000 </r>
       <r>   13.4375    0.0000 </r>
       <r>   13.4407    0.0000 </r>
       <r>   14.1963    0.0000 </r>
       <r>   14.2023    0.0000 </r>
       <r>   14.2041    0.0000 </r>
       <r>   14.2067    0.0000 </r>
       <r>   14.2085    0.0000 </r>
      </set>
      <set comment="kpoint 2">
       <r>  -13.2065    1.0000 </r>
       <r>  -12.6189    1.0000 </r>
       <r>  -12.6170    1.0000 </r>
       <r>  -11.8659    1.0000 </r>
       <r>   -8.6384    1.0000 </r>
       <r>   -8.1702    1.0000 </r>
       <r>   -8.1687    1.0000 </r>
       <r>   -8.0626    1.0000 </r>
       <r>   -8.0603    1.0000 </r>
       <r>   -7.6365    1.0000 </r>
       <r>   -7.6331    1.0000 </r>
       <r>   -7.6323    1.0000 </r>
       <r>   -7.6311    1.0000 </r>
       <r>   -7.6246    1.0000 </r>
       <r>   -7.2332    1.0000 </r>
       <r>   -7.2290    1.0000 </r>
       <r>   -6.2701    1.0000 </r>
       <r>   -6.2676    1.0000 </r>
       <r>   -6.0214    1.0000 </r>
       <r>   -6.0203    1.0000 </r>
       <r>   -6.0194    1.0000 </r>
       <r>   -6.0167    1.0000 </r>
       <r>   -5.8618    1.0000 </r>
       <r>   -5.5744    1.0000 </r>
       <r>   -5.5727    1.0000 </r>
       <r>   -5.4967    1.0000 </r>
       <r>   -5.4942    1.0000 </r>
       <r>   -5.0326    1.0000 </r>
       <r>   -2.8394    1.0000 </r>
       <r>   -0.5256    1.0000 </r>
       <r>   -0.5216    1.0000 </r>
       <r>    0.0968    1.0000 </r>
       <r>    0.0997    1.0000 </r>
       <r>    0.2886    1.0000 </r>
       <r>    0.2911    1.0000 </r>
       <r>    0.2935    1.0000 </r>
       <r>    0.2942    1.0000 </r>
       <r>    0.4116    1.0000 </r>
       <r>    0.4956    1.0000 </r>
       <r>    0.4986    1.0000 </r>
       <r>    0.5903    1.0000 </r>
       <r>    0.5936    1.0000 </r>
       <r>    0.7801    1.0000 </r>
       <r>    2.3909    1.0000 </r>
       <r>    2.4164    1.0000 </r>
       <r>    2.9427    1.0000 </r>
       <r>    2.9444    1.0000 </r>
       <r>    3.5073    1.0000 </r>
       <r>    3.5975    1.0000 </r>
       <r>    3.6040    1.0000 </r>
       <r>    3.6605    1.0000 </r>
       <r>    3.6947    1.0000 </r>
       <r>    3.7447    1.0000 </r>
       <r>    3.7513    1.0000 </r>
       <r>    3.8363    1.0000 </r>
       <r>    4.1222    1.0000 </r>
       <r>    4.1274    1.0000 </r>
       <r>    4.4823    1.0000 </r>
       <r>    4.4889    1.0000 </r>
       <r>    4.4900    1.0000 </r>
       <r>    4.4926    1.0000 </r>
       <r>    4.9658    1.0000 </r>
       <r>    4.9693    1.0000 </r>
       <r>    5.1753    1.0000 </r>
       <r>    8.6163    0.0000 </r>
       <r>    8.6192    0.0000 </r>
       <r>    8.6206    0.0000 </r>
       <r>    8.6270    0.0000 </r>
       <r>    8.8727    0.0000 </r>
       <r>    8.9959    0.0000 </r>
       <r>    8.9980    0.0000 </r>
       <r>    9.0141    0.0000 </r>
       <r>    9.0194    0.0000 </r>
       <r>   10.1061    0.0000 </r>
       <r>   10.1083    0.0000 </r>
       <r>   10.6722    0.0000 </r>
       <r>   13.4853    0.0000 </r>
       <r>   13.7819    0.0000 </r>
       <r>   13.7877    0.0000 </r>
       <r>   14.2490    0.0000 </r>
       <r>   14.2514    0.0000 </r>
       <r>   14.5304    0.0000 </r>
       <r>   14.5344    0.0000 </r>
       <r>   14.5412    0.0000 </r>
      </set>
      <set comment="kpoint 3">
       <r>  -12.9812    1.0000 </r>
       <r>  -12.3985    1.0000 </r>
       <r>  -12.3967    1.0000 </r>
       <r>  -11.6542    1.0000 </r>
       <r>   -9.6803    1.0000 </r>
       <r>   -9.1763    1.0000 </r>
       <r>   -9.1747    1.0000 </r>
       <r>   -8.5619    1.0000 </r>
       <r>   -8.4357    1.0000 </r>
       <r>   -8.4336    1.0000 </r>
       <r>   -7.9745    1.0000 </r>
       <r>   -7.9720    1.0000 </r>
       <r>   -7.9713    1.0000 </r>
       <r>   -7.9694    1.0000 </r>
       <r>   -7.4387    1.0000 </r>
       <r>   -7.4358    1.0000 </r>
       <r>   -5.6836    1.0000 </r>
       <r>   -5.6818    1.0000 </r>
       <r>   -5.3278    1.0000 </r>
       <r>   -5.3267    1.0000 </r>
       <r>   -5.3257    1.0000 </r>
       <r>   -5.3232    1.0000 </r>
       <r>   -4.8779    1.0000 </r>
       <r>   -4.8759    1.0000 </r>
       <r>   -4.5351    1.0000 </r>
       <r>   -4.1693    1.0000 </r>
       <r>   -4.1669    1.0000 </r>
       <r>   -3.7377    1.0000 </r>
       <r>   -2.5680    1.0000 </r>
       <r>   -0.5387    1.0000 </r>
       <r>   -0.5360    1.0000 </r>
       <r>   -0.3192    1.0000 </r>
       <r>   -0.3167    1.0000 </r>
       <r>   -0.3146    1.0000 </r>
       <r>   -0.3138    1.0000 </r>
       <r>   -0.2714    1.0000 </r>
       <r>   -0.2674    1.0000 </r>
       <r>   -0.0745    1.0000 </r>
       <r>   -0.0717    1.0000 </r>
       <r>    0.6289    1.0000 </r>
       <r>    0.8049    1.0000 </r>
       <r>    0.8083    1.0000 </r>
       <r>    0.9920    1.0000 </r>
       <r>    1.3124    1.0000 </r>
       <r>    2.6211    1.0000 </r>
       <r>    2.6376    1.0000 </r>
       <r>    2.6693    1.0000 </r>
       <r>    2.6712    1.0000 </r>
       <r>    2.7754    1.0000 </r>
       <r>    2.7808    1.0000 </r>
       <r>    2.9207    1.0000 </r>
       <r>    3.2157    1.0000 </r>
       <r>    3.2540    1.0000 </r>
       <r>    3.2586    1.0000 </r>
       <r>    3.3281    1.0000 </r>
       <r>    3.3340    1.0000 </r>
       <r>    3.4486    1.0000 </r>
       <r>    4.3654    1.0000 </r>
       <r>    4.3719    1.0000 </r>
       <r>    4.3729    1.0000 </r>
       <r>    4.3758    1.0000 </r>
       <r>    5.2762    1.0000 </r>
       <r>    5.4237    1.0000 </r>
       <r>    5.4273    1.0000 </r>
       <r>    8.7913    0.0000 </r>
       <r>    8.7933    0.0000 </r>
       <r>    8.9387    0.0000 </r>
       <r>    8.9418    0.0000 </r>
       <r>    8.9433    0.0000 </r>
       <r>    8.9500    0.0000 </r>
       <r>    9.3277    0.0000 </r>
       <r>   10.1999    0.0000 </r>
       <r>   10.2053    0.0000 </r>
       <r>   10.3569    0.0000 </r>
       <r>   10.3601    0.0000 </r>
       <r>   11.8486    0.0000 </r>
       <r>   13.6293    0.0000 </r>
       <r>   14.3881    0.0000 </r>
       <r>   14.3906    0.0000 </r>
       <r>   14.5170    0.0000 </r>
       <r>   14.7378    0.0000 </r>
       <r>   14.7428    0.0000 </r>
       <r>   15.1222    0.0000 </r>
       <r>   15.1850    0.0000 </r>
      </set>
      <set comment="kpoint 4">
       <r>  -12.6069    1.0000 </r>
       <r>  -12.0325    1.0000 </r>
       <r>  -12.0307    1.0000 </r>
       <r>  -11.3025    1.0000 </r>
       <r>  -10.6154    1.0000 </r>
       <r>  -10.0872    1.0000 </r>
       <r>  -10.0856    1.0000 </r>
       <r>   -9.4336    1.0000 </r>
       <r>   -8.7036    1.0000 </r>
       <r>   -8.7016    1.0000 </r>
       <r>   -8.2289    1.0000 </r>
       <r>   -8.2266    1.0000 </r>
       <r>   -8.2261    1.0000 </r>
       <r>   -8.2241    1.0000 </r>
       <r>   -7.6603    1.0000 </r>
       <r>   -7.6579    1.0000 </r>
       <r>   -4.8674    1.0000 </r>
       <r>   -4.8654    1.0000 </r>
       <r>   -4.5194    1.0000 </r>
       <r>   -4.5183    1.0000 </r>
       <r>   -4.5173    1.0000 </r>
       <r>   -4.5144    1.0000 </r>
       <r>   -4.1123    1.0000 </r>
       <r>   -4.1100    1.0000 </r>
       <r>   -3.0700    1.0000 </r>
       <r>   -2.7382    1.0000 </r>
       <r>   -2.7356    1.0000 </r>
       <r>   -2.3560    1.0000 </r>
       <r>   -2.1178    1.0000 </r>
       <r>   -1.3739    1.0000 </r>
       <r>   -1.3716    1.0000 </r>
       <r>   -1.1383    1.0000 </r>
       <r>   -1.1355    1.0000 </r>
       <r>   -1.1342    1.0000 </r>
       <r>   -1.1329    1.0000 </r>
       <r>   -0.8569    1.0000 </r>
       <r>   -0.8544    1.0000 </r>
       <r>    0.1473    1.0000 </r>
       <r>    0.1511    1.0000 </r>
       <r>    0.2437    1.0000 </r>
       <r>    0.9818    1.0000 </r>
       <r>    1.1531    1.0000 </r>
       <r>    1.1566    1.0000 </r>
       <r>    1.3351    1.0000 </r>
       <r>    1.4029    1.0000 </r>
       <r>    1.5963    1.0000 </r>
       <r>    1.6007    1.0000 </r>
       <r>    1.7974    1.0000 </r>
       <r>    2.3218    1.0000 </r>
       <r>    2.3260    1.0000 </r>
       <r>    2.4373    1.0000 </r>
       <r>    2.4393    1.0000 </r>
       <r>    2.6321    1.0000 </r>
       <r>    2.7678    1.0000 </r>
       <r>    2.7730    1.0000 </r>
       <r>    2.9127    1.0000 </r>
       <r>    2.9980    1.0000 </r>
       <r>    4.2457    1.0000 </r>
       <r>    4.2521    1.0000 </r>
       <r>    4.2530    1.0000 </r>
       <r>    4.2560    1.0000 </r>
       <r>    4.7801    1.0000 </r>
       <r>    5.8747    1.0000 </r>
       <r>    5.8782    1.0000 </r>
       <r>    8.6591    0.0000 </r>
       <r>    8.6612    0.0000 </r>
       <r>    9.3134    0.0000 </r>
       <r>    9.3167    0.0000 </r>
       <r>    9.3181    0.0000 </r>
       <r>    9.3250    0.0000 </r>
       <r>   10.5277    0.0000 </r>
       <r>   10.5314    0.0000 </r>
       <r>   10.6200    0.0000 </r>
       <r>   11.6240    0.0000 </r>
       <r>   11.6292    0.0000 </r>
       <r>   13.1259    0.0000 </r>
       <r>   13.8585    0.0000 </r>
       <r>   14.6173    0.0000 </r>
       <r>   14.6202    0.0000 </r>
       <r>   14.6996    0.0000 </r>
       <r>   14.9445    0.0000 </r>
       <r>   14.9497    0.0000 </r>
       <r>   14.9893    0.0000 </r>
       <r>   15.2499    0.0000 </r>
      </set>
      <set comment="kpoint 5">
       <r>  -12.0855    1.0000 </r>
       <r>  -11.5229    1.0000 </r>
       <r>  -11.5211    1.0000 </r>
       <r>  -11.4198    1.0000 </r>
       <r>  -10.8727    1.0000 </r>
       <r>  -10.8710    1.0000 </r>
       <r>  -10.8126    1.0000 </r>
       <r>  -10.1880    1.0000 </r>
       <r>   -8.8411    1.0000 </r>
       <r>   -8.8392    1.0000 </r>
       <r>   -8.3605    1.0000 </r>
       <r>   -8.3584    1.0000 </r>
       <r>   -8.3579    1.0000 </r>
       <r>   -8.3559    1.0000 </r>
       <r>   -7.7814    1.0000 </r>
       <r>   -7.7791    1.0000 </r>
       <r>   -4.0614    1.0000 </r>
       <r>   -4.0592    1.0000 </r>
       <r>   -3.7829    1.0000 </r>
       <r>   -3.7819    1.0000 </r>
       <r>   -3.7813    1.0000 </r>
       <r>   -3.7771    1.0000 </r>
       <r>   -3.5228    1.0000 </r>
       <r>   -3.5202    1.0000 </r>
       <r>   -2.0497    1.0000 </r>
       <r>   -2.0479    1.0000 </r>
       <r>   -1.9054    1.0000 </r>
       <r>   -1.9020    1.0000 </r>
       <r>   -1.9014    1.0000 </r>
       <r>   -1.8999    1.0000 </r>
       <r>   -1.6402    1.0000 </r>
       <r>   -1.6382    1.0000 </r>
       <r>   -1.5495    1.0000 </r>
       <r>   -1.4931    1.0000 </r>
       <r>   -1.2618    1.0000 </r>
       <r>   -1.2589    1.0000 </r>
       <r>   -0.9339    1.0000 </r>
       <r>   -0.7015    1.0000 </r>
       <r>   -0.0323    1.0000 </r>
       <r>    0.1967    1.0000 </r>
       <r>    0.2002    1.0000 </r>
       <r>    0.4759    1.0000 </r>
       <r>    0.7456    1.0000 </r>
       <r>    0.7500    1.0000 </r>
       <r>    1.4547    1.0000 </r>
       <r>    1.4660    1.0000 </r>
       <r>    1.4702    1.0000 </r>
       <r>    1.6184    1.0000 </r>
       <r>    1.6222    1.0000 </r>
       <r>    1.7927    1.0000 </r>
       <r>    2.0201    1.0000 </r>
       <r>    2.1726    1.0000 </r>
       <r>    2.1770    1.0000 </r>
       <r>    2.3111    1.0000 </r>
       <r>    2.3130    1.0000 </r>
       <r>    2.3356    1.0000 </r>
       <r>    3.5083    1.0000 </r>
       <r>    4.1247    1.0000 </r>
       <r>    4.1737    1.0000 </r>
       <r>    4.1799    1.0000 </r>
       <r>    4.1808    1.0000 </r>
       <r>    4.1839    1.0000 </r>
       <r>    6.1467    1.0000 </r>
       <r>    6.1502    1.0000 </r>
       <r>    8.6175    0.0000 </r>
       <r>    8.6202    0.0000 </r>
       <r>    9.5671    0.0000 </r>
       <r>    9.5706    0.0000 </r>
       <r>    9.5718    0.0000 </r>
       <r>    9.5789    0.0000 </r>
       <r>   10.5863    0.0000 </r>
       <r>   10.5904    0.0000 </r>
       <r>   12.2371    0.0000 </r>
       <r>   13.0693    0.0000 </r>
       <r>   13.0748    0.0000 </r>
       <r>   13.8982    0.0000 </r>
       <r>   14.1533    0.0000 </r>
       <r>   14.2891    0.0000 </r>
       <r>   14.2951    0.0000 </r>
       <r>   14.4220    0.0000 </r>
       <r>   14.4745    0.0000 </r>
       <r>   14.9453    0.0000 </r>
       <r>   14.9490    0.0000 </r>
       <r>   15.3224    0.0000 </r>
      </set>
      <set comment="kpoint 6">
       <r>  -13.2065    1.0000 </r>
       <r>  -12.6189    1.0000 </r>
       <r>  -12.6170    1.0000 </r>
       <r>  -11.8659    1.0000 </r>
       <r>   -8.6385    1.0000 </r>
       <r>   -8.1704    1.0000 </r>
       <r>   -8.1689    1.0000 </r>
       <r>   -8.0629    1.0000 </r>
       <r>   -8.0597    1.0000 </r>
       <r>   -7.6365    1.0000 </r>
       <r>   -7.6332    1.0000 </r>
       <r>   -7.6325    1.0000 </r>
       <r>   -7.6306    1.0000 </r>
       <r>   -7.6243    1.0000 </r>
       <r>   -7.2321    1.0000 </r>
       <r>   -7.2294    1.0000 </r>
       <r>   -6.2710    1.0000 </r>
       <r>   -6.2686    1.0000 </r>
       <r>   -6.0238    1.0000 </r>
       <r>   -6.0209    1.0000 </r>
       <r>   -6.0194    1.0000 </r>
       <r>   -6.0165    1.0000 </r>
       <r>   -5.8604    1.0000 </r>
       <r>   -5.5760    1.0000 </r>
       <r>   -5.5725    1.0000 </r>
       <r>   -5.4949    1.0000 </r>
       <r>   -5.4936    1.0000 </r>
       <r>   -5.0315    1.0000 </r>
       <r>   -2.8394    1.0000 </r>
       <r>   -0.5256    1.0000 </r>
       <r>   -0.5216    1.0000 </r>
       <r>    0.0984    1.0000 </r>
       <r>    0.0995    1.0000 </r>
       <r>    0.2906    1.0000 </r>
       <r>    0.2912    1.0000 </r>
       <r>    0.2940    1.0000 </r>
       <r>    0.2946    1.0000 </r>
       <r>    0.4102    1.0000 </r>
       <r>    0.4973    1.0000 </r>
       <r>    0.4984    1.0000 </r>
       <r>    0.5901    1.0000 </r>
       <r>    0.5908    1.0000 </r>
       <r>    0.7785    1.0000 </r>
       <r>    2.3909    1.0000 </r>
       <r>    2.4157    1.0000 </r>
       <r>    2.9427    1.0000 </r>
       <r>    2.9453    1.0000 </r>
       <r>    3.5105    1.0000 </r>
       <r>    3.6031    1.0000 </r>
       <r>    3.6040    1.0000 </r>
       <r>    3.6578    1.0000 </r>
       <r>    3.6974    1.0000 </r>
       <r>    3.7446    1.0000 </r>
       <r>    3.7457    1.0000 </r>
       <r>    3.8328    1.0000 </r>
       <r>    4.1214    1.0000 </r>
       <r>    4.1259    1.0000 </r>
       <r>    4.4837    1.0000 </r>
       <r>    4.4889    1.0000 </r>
       <r>    4.4895    1.0000 </r>
       <r>    4.4947    1.0000 </r>
       <r>    4.9663    1.0000 </r>
       <r>    4.9702    1.0000 </r>
       <r>    5.1735    1.0000 </r>
       <r>    8.6134    0.0000 </r>
       <r>    8.6186    0.0000 </r>
       <r>    8.6206    0.0000 </r>
       <r>    8.6255    0.0000 </r>
       <r>    8.8756    0.0000 </r>
       <r>    8.9943    0.0000 </r>
       <r>    8.9982    0.0000 </r>
       <r>    9.0163    0.0000 </r>
       <r>    9.0208    0.0000 </r>
       <r>   10.1040    0.0000 </r>
       <r>   10.1081    0.0000 </r>
       <r>   10.6739    0.0000 </r>
       <r>   13.4845    0.0000 </r>
       <r>   13.7835    0.0000 </r>
       <r>   13.7869    0.0000 </r>
       <r>   14.2496    0.0000 </r>
       <r>   14.2510    0.0000 </r>
       <r>   14.5200    0.0000 </r>
       <r>   14.5363    0.0000 </r>
       <r>   14.5394    0.0000 </r>
      </set>
      <set comment="kpoint 7">
       <r>  -13.0562    1.0000 </r>
       <r>  -12.4719    1.0000 </r>
       <r>  -12.4701    1.0000 </r>
       <r>  -11.7247    1.0000 </r>
       <r>   -9.1194    1.0000 </r>
       <r>   -9.1159    1.0000 </r>
       <r>   -8.6331    1.0000 </r>
       <r>   -8.6293    1.0000 </r>
       <r>   -8.6293    1.0000 </r>
       <r>   -8.6254    1.0000 </r>
       <r>   -8.0462    1.0000 </r>
       <r>   -8.0423    1.0000 </r>
       <r>   -7.5748    1.0000 </r>
       <r>   -7.2220    1.0000 </r>
       <r>   -7.2200    1.0000 </r>
       <r>   -7.1168    1.0000 </r>
       <r>   -6.1815    1.0000 </r>
       <r>   -6.1776    1.0000 </r>
       <r>   -6.1172    1.0000 </r>
       <r>   -5.8276    1.0000 </r>
       <r>   -5.1858    1.0000 </r>
       <r>   -5.1819    1.0000 </r>
       <r>   -4.8143    1.0000 </r>
       <r>   -4.8092    1.0000 </r>
       <r>   -4.8092    1.0000 </r>
       <r>   -4.8061    1.0000 </r>
       <r>   -4.3648    1.0000 </r>
       <r>   -4.3607    1.0000 </r>
       <r>   -2.6583    1.0000 </r>
       <r>   -0.6140    1.0000 </r>
       <r>   -0.3920    1.0000 </r>
       <r>   -0.3892    1.0000 </r>
       <r>   -0.3559    1.0000 </r>
       <r>   -0.3519    1.0000 </r>
       <r>   -0.1455    1.0000 </r>
       <r>    0.2442    1.0000 </r>
       <r>    0.2473    1.0000 </r>
       <r>    0.4346    1.0000 </r>
       <r>    0.4363    1.0000 </r>
       <r>    0.4364    1.0000 </r>
       <r>    0.4411    1.0000 </r>
       <r>    0.6383    1.0000 </r>
       <r>    0.6416    1.0000 </r>
       <r>    1.9337    1.0000 </r>
       <r>    1.9364    1.0000 </r>
       <r>    2.5448    1.0000 </r>
       <r>    2.9647    1.0000 </r>
       <r>    3.0646    1.0000 </r>
       <r>    3.0709    1.0000 </r>
       <r>    3.1285    1.0000 </r>
       <r>    3.3472    1.0000 </r>
       <r>    3.3865    1.0000 </r>
       <r>    3.4293    1.0000 </r>
       <r>    3.4360    1.0000 </r>
       <r>    3.5241    1.0000 </r>
       <r>    3.7705    1.0000 </r>
       <r>    3.7747    1.0000 </r>
       <r>    3.7748    1.0000 </r>
       <r>    3.7806    1.0000 </r>
       <r>    4.7956    1.0000 </r>
       <r>    4.8014    1.0000 </r>
       <r>    4.9941    1.0000 </r>
       <r>    5.3848    1.0000 </r>
       <r>    5.3882    1.0000 </r>
       <r>    8.4166    0.0000 </r>
       <r>    8.4234    0.0000 </r>
       <r>    8.9459    0.0000 </r>
       <r>    8.9500    0.0000 </r>
       <r>    9.1725    0.0000 </r>
       <r>    9.5381    0.0000 </r>
       <r>    9.5445    0.0000 </r>
       <r>    9.5453    0.0000 </r>
       <r>    9.5461    0.0000 </r>
       <r>    9.5510    0.0000 </r>
       <r>   11.1538    0.0000 </r>
       <r>   11.1567    0.0000 </r>
       <r>   13.8784    0.0000 </r>
       <r>   13.8830    0.0000 </r>
       <r>   14.4603    0.0000 </r>
       <r>   14.6243    0.0000 </r>
       <r>   14.6292    0.0000 </r>
       <r>   14.6294    0.0000 </r>
       <r>   14.6351    0.0000 </r>
       <r>   14.6924    0.0000 </r>
      </set>
      <set comment="kpoint 8">
       <r>  -12.7563    1.0000 </r>
       <r>  -12.1787    1.0000 </r>
       <r>  -12.1769    1.0000 </r>
       <r>  -11.4430    1.0000 </r>
       <r>  -10.1096    1.0000 </r>
       <r>   -9.5942    1.0000 </r>
       <r>   -9.5926    1.0000 </r>
       <r>   -9.4688    1.0000 </r>
       <r>   -8.9707    1.0000 </r>
       <r>   -8.9691    1.0000 </r>
       <r>   -8.9604    1.0000 </r>
       <r>   -8.3646    1.0000 </r>
       <r>   -7.6655    1.0000 </r>
       <r>   -7.2495    1.0000 </r>
       <r>   -7.2480    1.0000 </r>
       <r>   -6.8596    1.0000 </r>
       <r>   -5.9107    1.0000 </r>
       <r>   -5.6761    1.0000 </r>
       <r>   -5.6727    1.0000 </r>
       <r>   -5.2583    1.0000 </r>
       <r>   -4.3822    1.0000 </r>
       <r>   -4.0281    1.0000 </r>
       <r>   -4.0269    1.0000 </r>
       <r>   -3.7783    1.0000 </r>
       <r>   -3.6158    1.0000 </r>
       <r>   -3.4309    1.0000 </r>
       <r>   -3.4286    1.0000 </r>
       <r>   -3.0282    1.0000 </r>
       <r>   -2.2975    1.0000 </r>
       <r>   -1.5496    1.0000 </r>
       <r>   -1.3006    1.0000 </r>
       <r>   -1.2978    1.0000 </r>
       <r>   -1.0109    1.0000 </r>
       <r>   -0.3061    1.0000 </r>
       <r>   -0.0929    1.0000 </r>
       <r>   -0.0921    1.0000 </r>
       <r>   -0.0192    1.0000 </r>
       <r>   -0.0153    1.0000 </r>
       <r>    0.1441    1.0000 </r>
       <r>    0.5374    1.0000 </r>
       <r>    0.7221    1.0000 </r>
       <r>    0.7254    1.0000 </r>
       <r>    0.8302    1.0000 </r>
       <r>    0.9216    1.0000 </r>
       <r>    1.5676    1.0000 </r>
       <r>    1.9706    1.0000 </r>
       <r>    2.1156    1.0000 </r>
       <r>    2.1217    1.0000 </r>
       <r>    2.2448    1.0000 </r>
       <r>    2.7988    1.0000 </r>
       <r>    2.8436    1.0000 </r>
       <r>    2.8466    1.0000 </r>
       <r>    2.8507    1.0000 </r>
       <r>    2.8866    1.0000 </r>
       <r>    2.8934    1.0000 </r>
       <r>    3.0108    1.0000 </r>
       <r>    3.4520    1.0000 </r>
       <r>    3.4931    1.0000 </r>
       <r>    3.4973    1.0000 </r>
       <r>    4.9949    1.0000 </r>
       <r>    5.0004    1.0000 </r>
       <r>    5.1273    1.0000 </r>
       <r>    5.4544    1.0000 </r>
       <r>    5.5106    1.0000 </r>
       <r>    8.4183    0.0000 </r>
       <r>    8.4249    0.0000 </r>
       <r>    8.7507    0.0000 </r>
       <r>    9.2315    0.0000 </r>
       <r>    9.5505    0.0000 </r>
       <r>    9.8844    0.0000 </r>
       <r>   10.0957    0.0000 </r>
       <r>   10.1002    0.0000 </r>
       <r>   10.8694    0.0000 </r>
       <r>   10.8744    0.0000 </r>
       <r>   11.4793    0.0000 </r>
       <r>   12.3759    0.0000 </r>
       <r>   14.0691    0.0000 </r>
       <r>   14.7194    0.0000 </r>
       <r>   14.8117    0.0000 </r>
       <r>   14.8141    0.0000 </r>
       <r>   14.8821    0.0000 </r>
       <r>   15.2100    0.0000 </r>
       <r>   15.2484    0.0000 </r>
       <r>   15.2575    0.0000 </r>
      </set>
      <set comment="kpoint 9">
       <r>  -12.3085    1.0000 </r>
       <r>  -11.7409    1.0000 </r>
       <r>  -11.7391    1.0000 </r>
       <r>  -11.0223    1.0000 </r>
       <r>  -10.9799    1.0000 </r>
       <r>  -10.4430    1.0000 </r>
       <r>  -10.4413    1.0000 </r>
       <r>   -9.7753    1.0000 </r>
       <r>   -9.6822    1.0000 </r>
       <r>   -9.1777    1.0000 </r>
       <r>   -9.1762    1.0000 </r>
       <r>   -8.5619    1.0000 </r>
       <r>   -7.8301    1.0000 </r>
       <r>   -7.3863    1.0000 </r>
       <r>   -7.3848    1.0000 </r>
       <r>   -6.8772    1.0000 </r>
       <r>   -5.2176    1.0000 </r>
       <r>   -4.9030    1.0000 </r>
       <r>   -4.8998    1.0000 </r>
       <r>   -4.5327    1.0000 </r>
       <r>   -3.5426    1.0000 </r>
       <r>   -3.2347    1.0000 </r>
       <r>   -3.2331    1.0000 </r>
       <r>   -2.9006    1.0000 </r>
       <r>   -2.4725    1.0000 </r>
       <r>   -2.2908    1.0000 </r>
       <r>   -2.2448    1.0000 </r>
       <r>   -2.2418    1.0000 </r>
       <r>   -1.9851    1.0000 </r>
       <r>   -1.9824    1.0000 </r>
       <r>   -1.9363    1.0000 </r>
       <r>   -1.7599    1.0000 </r>
       <r>   -1.6369    1.0000 </r>
       <r>   -1.0011    1.0000 </r>
       <r>   -0.7994    1.0000 </r>
       <r>   -0.7978    1.0000 </r>
       <r>   -0.5415    1.0000 </r>
       <r>   -0.1814    1.0000 </r>
       <r>    0.4690    1.0000 </r>
       <r>    0.4724    1.0000 </r>
       <r>    0.6704    1.0000 </r>
       <r>    0.8898    1.0000 </r>
       <r>    0.8945    1.0000 </r>
       <r>    0.9618    1.0000 </r>
       <r>    1.0867    1.0000 </r>
       <r>    1.1372    1.0000 </r>
       <r>    1.1405    1.0000 </r>
       <r>    1.3278    1.0000 </r>
       <r>    1.3407    1.0000 </r>
       <r>    1.9412    1.0000 </r>
       <r>    1.9454    1.0000 </r>
       <r>    2.1316    1.0000 </r>
       <r>    2.2653    1.0000 </r>
       <r>    2.2710    1.0000 </r>
       <r>    2.4211    1.0000 </r>
       <r>    3.2931    1.0000 </r>
       <r>    3.3146    1.0000 </r>
       <r>    3.3189    1.0000 </r>
       <r>    3.4071    1.0000 </r>
       <r>    4.5088    1.0000 </r>
       <r>    5.0849    1.0000 </r>
       <r>    5.0900    1.0000 </r>
       <r>    5.5557    1.0000 </r>
       <r>    6.1640    1.0000 </r>
       <r>    8.0681    0.0000 </r>
       <r>    8.5260    0.0000 </r>
       <r>    8.5320    0.0000 </r>
       <r>    9.5881    0.0000 </r>
       <r>    9.7103    0.0000 </r>
       <r>   10.5338    0.0000 </r>
       <r>   10.5385    0.0000 </r>
       <r>   11.3737    0.0000 </r>
       <r>   11.6014    0.0000 </r>
       <r>   12.3137    0.0000 </r>
       <r>   12.3188    0.0000 </r>
       <r>   13.6449    0.0000 </r>
       <r>   14.3317    0.0000 </r>
       <r>   14.5782    0.0000 </r>
       <r>   14.7778    0.0000 </r>
       <r>   14.7845    0.0000 </r>
       <r>   14.8879    0.0000 </r>
       <r>   15.0761    0.0000 </r>
       <r>   15.0791    0.0000 </r>
       <r>   15.2382    0.0000 </r>
      </set>
      <set comment="kpoint 10">
       <r>  -11.7168    1.0000 </r>
       <r>  -11.7134    1.0000 </r>
       <r>  -11.1637    1.0000 </r>
       <r>  -11.1602    1.0000 </r>
       <r>  -11.1601    1.0000 </r>
       <r>  -11.1564    1.0000 </r>
       <r>  -10.4667    1.0000 </r>
       <r>  -10.4632    1.0000 </r>
       <r>   -9.7538    1.0000 </r>
       <r>   -9.2475    1.0000 </r>
       <r>   -9.2459    1.0000 </r>
       <r>   -8.6284    1.0000 </r>
       <r>   -7.8907    1.0000 </r>
       <r>   -7.4409    1.0000 </r>
       <r>   -7.4395    1.0000 </r>
       <r>   -6.9136    1.0000 </r>
       <r>   -4.6588    1.0000 </r>
       <r>   -4.4139    1.0000 </r>
       <r>   -4.4110    1.0000 </r>
       <r>   -4.2352    1.0000 </r>
       <r>   -2.9909    1.0000 </r>
       <r>   -2.8346    1.0000 </r>
       <r>   -2.7897    1.0000 </r>
       <r>   -2.7869    1.0000 </r>
       <r>   -2.7762    1.0000 </r>
       <r>   -2.7726    1.0000 </r>
       <r>   -2.6209    1.0000 </r>
       <r>   -2.5536    1.0000 </r>
       <r>   -1.3035    1.0000 </r>
       <r>   -1.2423    1.0000 </r>
       <r>   -1.2385    1.0000 </r>
       <r>   -1.0529    1.0000 </r>
       <r>   -1.0499    1.0000 </r>
       <r>   -1.0345    1.0000 </r>
       <r>   -0.7861    1.0000 </r>
       <r>   -0.7825    1.0000 </r>
       <r>   -0.5333    1.0000 </r>
       <r>   -0.5268    1.0000 </r>
       <r>   -0.5265    1.0000 </r>
       <r>   -0.5259    1.0000 </r>
       <r>   -0.2434    1.0000 </r>
       <r>   -0.2398    1.0000 </r>
       <r>    1.1435    1.0000 </r>
       <r>    1.1474    1.0000 </r>
       <r>    1.1478    1.0000 </r>
       <r>    1.1532    1.0000 </r>
       <r>    1.2631    1.0000 </r>
       <r>    1.4998    1.0000 </r>
       <r>    1.5053    1.0000 </r>
       <r>    1.6620    1.0000 </r>
       <r>    1.6638    1.0000 </r>
       <r>    1.6638    1.0000 </r>
       <r>    1.6738    1.0000 </r>
       <r>    1.8373    1.0000 </r>
       <r>    1.8437    1.0000 </r>
       <r>    3.2533    1.0000 </r>
       <r>    3.2576    1.0000 </r>
       <r>    3.3781    1.0000 </r>
       <r>    3.8585    1.0000 </r>
       <r>    3.8621    1.0000 </r>
       <r>    5.1077    1.0000 </r>
       <r>    5.1124    1.0000 </r>
       <r>    5.5641    1.0000 </r>
       <r>    6.6648    0.9218 </r>
       <r>    7.5939    0.0000 </r>
       <r>    8.5873    0.0000 </r>
       <r>    8.5924    0.0000 </r>
       <r>    9.7621    0.0000 </r>
       <r>    9.7698    0.0000 </r>
       <r>   10.7043    0.0000 </r>
       <r>   10.7094    0.0000 </r>
       <r>   11.6078    0.0000 </r>
       <r>   13.0064    0.0000 </r>
       <r>   13.0108    0.0000 </r>
       <r>   13.6962    0.0000 </r>
       <r>   13.7032    0.0000 </r>
       <r>   13.7050    0.0000 </r>
       <r>   13.7072    0.0000 </r>
       <r>   14.6335    0.0000 </r>
       <r>   14.6371    0.0000 </r>
       <r>   14.9068    0.0000 </r>
       <r>   14.9108    0.0000 </r>
       <r>   15.4231    0.0000 </r>
       <r>   15.4491    0.0000 </r>
      </set>
      <set comment="kpoint 11">
       <r>  -12.3086    1.0000 </r>
       <r>  -11.7409    1.0000 </r>
       <r>  -11.7392    1.0000 </r>
       <r>  -11.0224    1.0000 </r>
       <r>  -10.9798    1.0000 </r>
       <r>  -10.4429    1.0000 </r>
       <r>  -10.4412    1.0000 </r>
       <r>   -9.7751    1.0000 </r>
       <r>   -9.6824    1.0000 </r>
       <r>   -9.1780    1.0000 </r>
       <r>   -9.1764    1.0000 </r>
       <r>   -8.5621    1.0000 </r>
       <r>   -7.8298    1.0000 </r>
       <r>   -7.3858    1.0000 </r>
       <r>   -7.3845    1.0000 </r>
       <r>   -6.8767    1.0000 </r>
       <r>   -5.2172    1.0000 </r>
       <r>   -4.9016    1.0000 </r>
       <r>   -4.9002    1.0000 </r>
       <r>   -4.5323    1.0000 </r>
       <r>   -3.5436    1.0000 </r>
       <r>   -3.2364    1.0000 </r>
       <r>   -3.2331    1.0000 </r>
       <r>   -2.9013    1.0000 </r>
       <r>   -2.4734    1.0000 </r>
       <r>   -2.2912    1.0000 </r>
       <r>   -2.2448    1.0000 </r>
       <r>   -2.2437    1.0000 </r>
       <r>   -1.9856    1.0000 </r>
       <r>   -1.9825    1.0000 </r>
       <r>   -1.9373    1.0000 </r>
       <r>   -1.7600    1.0000 </r>
       <r>   -1.6373    1.0000 </r>
       <r>   -1.0000    1.0000 </r>
       <r>   -0.7993    1.0000 </r>
       <r>   -0.7956    1.0000 </r>
       <r>   -0.5403    1.0000 </r>
       <r>   -0.1812    1.0000 </r>
       <r>    0.4689    1.0000 </r>
       <r>    0.4723    1.0000 </r>
       <r>    0.6708    1.0000 </r>
       <r>    0.8909    1.0000 </r>
       <r>    0.8941    1.0000 </r>
       <r>    0.9622    1.0000 </r>
       <r>    1.0870    1.0000 </r>
       <r>    1.1373    1.0000 </r>
       <r>    1.1412    1.0000 </r>
       <r>    1.3281    1.0000 </r>
       <r>    1.3406    1.0000 </r>
       <r>    1.9413    1.0000 </r>
       <r>    1.9455    1.0000 </r>
       <r>    2.1311    1.0000 </r>
       <r>    2.2658    1.0000 </r>
       <r>    2.2696    1.0000 </r>
       <r>    2.4207    1.0000 </r>
       <r>    3.2928    1.0000 </r>
       <r>    3.3144    1.0000 </r>
       <r>    3.3186    1.0000 </r>
       <r>    3.4074    1.0000 </r>
       <r>    4.5089    1.0000 </r>
       <r>    5.0858    1.0000 </r>
       <r>    5.0904    1.0000 </r>
       <r>    5.5550    1.0000 </r>
       <r>    6.1661    1.0000 </r>
       <r>    8.0664    0.0000 </r>
       <r>    8.5265    0.0000 </r>
       <r>    8.5311    0.0000 </r>
       <r>    9.5881    0.0000 </r>
       <r>    9.7102    0.0000 </r>
       <r>   10.5333    0.0000 </r>
       <r>   10.5386    0.0000 </r>
       <r>   11.3737    0.0000 </r>
       <r>   11.6017    0.0000 </r>
       <r>   12.3134    0.0000 </r>
       <r>   12.3188    0.0000 </r>
       <r>   13.6446    0.0000 </r>
       <r>   14.3314    0.0000 </r>
       <r>   14.5780    0.0000 </r>
       <r>   14.7783    0.0000 </r>
       <r>   14.7841    0.0000 </r>
       <r>   14.8879    0.0000 </r>
       <r>   15.0756    0.0000 </r>
       <r>   15.0792    0.0000 </r>
       <r>   15.2382    0.0000 </r>
      </set>
      <set comment="kpoint 12">
       <r>  -12.7564    1.0000 </r>
       <r>  -12.1788    1.0000 </r>
       <r>  -12.1770    1.0000 </r>
       <r>  -11.4430    1.0000 </r>
       <r>  -10.1095    1.0000 </r>
       <r>   -9.5940    1.0000 </r>
       <r>   -9.5924    1.0000 </r>
       <r>   -9.4692    1.0000 </r>
       <r>   -8.9707    1.0000 </r>
       <r>   -8.9692    1.0000 </r>
       <r>   -8.9610    1.0000 </r>
       <r>   -8.3651    1.0000 </r>
       <r>   -7.6647    1.0000 </r>
       <r>   -7.2485    1.0000 </r>
       <r>   -7.2472    1.0000 </r>
       <r>   -6.8582    1.0000 </r>
       <r>   -5.9111    1.0000 </r>
       <r>   -5.6747    1.0000 </r>
       <r>   -5.6737    1.0000 </r>
       <r>   -5.2580    1.0000 </r>
       <r>   -4.3831    1.0000 </r>
       <r>   -4.0297    1.0000 </r>
       <r>   -4.0269    1.0000 </r>
       <r>   -3.7786    1.0000 </r>
       <r>   -3.6166    1.0000 </r>
       <r>   -3.4314    1.0000 </r>
       <r>   -3.4288    1.0000 </r>
       <r>   -3.0285    1.0000 </r>
       <r>   -2.2975    1.0000 </r>
       <r>   -1.5508    1.0000 </r>
       <r>   -1.3009    1.0000 </r>
       <r>   -1.3000    1.0000 </r>
       <r>   -1.0121    1.0000 </r>
       <r>   -0.3046    1.0000 </r>
       <r>   -0.0926    1.0000 </r>
       <r>   -0.0894    1.0000 </r>
       <r>   -0.0192    1.0000 </r>
       <r>   -0.0153    1.0000 </r>
       <r>    0.1456    1.0000 </r>
       <r>    0.5377    1.0000 </r>
       <r>    0.7223    1.0000 </r>
       <r>    0.7258    1.0000 </r>
       <r>    0.8304    1.0000 </r>
       <r>    0.9218    1.0000 </r>
       <r>    1.5671    1.0000 </r>
       <r>    1.9709    1.0000 </r>
       <r>    2.1176    1.0000 </r>
       <r>    2.1202    1.0000 </r>
       <r>    2.2449    1.0000 </r>
       <r>    2.7988    1.0000 </r>
       <r>    2.8438    1.0000 </r>
       <r>    2.8466    1.0000 </r>
       <r>    2.8507    1.0000 </r>
       <r>    2.8881    1.0000 </r>
       <r>    2.8912    1.0000 </r>
       <r>    3.0103    1.0000 </r>
       <r>    3.4524    1.0000 </r>
       <r>    3.4925    1.0000 </r>
       <r>    3.4969    1.0000 </r>
       <r>    4.9964    1.0000 </r>
       <r>    5.0011    1.0000 </r>
       <r>    5.1274    1.0000 </r>
       <r>    5.4567    1.0000 </r>
       <r>    5.5091    1.0000 </r>
       <r>    8.4189    0.0000 </r>
       <r>    8.4236    0.0000 </r>
       <r>    8.7491    0.0000 </r>
       <r>    9.2318    0.0000 </r>
       <r>    9.5502    0.0000 </r>
       <r>    9.8844    0.0000 </r>
       <r>   10.0949    0.0000 </r>
       <r>   10.1005    0.0000 </r>
       <r>   10.8690    0.0000 </r>
       <r>   10.8744    0.0000 </r>
       <r>   11.4796    0.0000 </r>
       <r>   12.3755    0.0000 </r>
       <r>   14.0690    0.0000 </r>
       <r>   14.7191    0.0000 </r>
       <r>   14.8114    0.0000 </r>
       <r>   14.8142    0.0000 </r>
       <r>   14.8856    0.0000 </r>
       <r>   15.2096    0.0000 </r>
       <r>   15.2518    0.0000 </r>
       <r>   15.2552    0.0000 </r>
      </set>
      <set comment="kpoint 13">
       <r>  -13.0563    1.0000 </r>
       <r>  -12.4719    1.0000 </r>
       <r>  -12.4701    1.0000 </r>
       <r>  -11.7248    1.0000 </r>
       <r>   -9.1182    1.0000 </r>
       <r>   -9.1175    1.0000 </r>
       <r>   -8.6310    1.0000 </r>
       <r>   -8.6296    1.0000 </r>
       <r>   -8.6295    1.0000 </r>
       <r>   -8.6281    1.0000 </r>
       <r>   -8.0450    1.0000 </r>
       <r>   -8.0441    1.0000 </r>
       <r>   -7.5735    1.0000 </r>
       <r>   -7.2198    1.0000 </r>
[...]
       <r>   -2.0340    1.0000 </r>
       <r>   -2.0318    1.0000 </r>
       <r>   -1.7432    1.0000 </r>
       <r>   -1.7426    1.0000 </r>
       <r>   -1.1269    1.0000 </r>
       <r>   -1.1236    1.0000 </r>
       <r>   -0.9479    1.0000 </r>
       <r>   -0.9456    1.0000 </r>
       <r>   -0.6209    1.0000 </r>
       <r>   -0.6186    1.0000 </r>
       <r>    0.4209    1.0000 </r>
       <r>    0.4245    1.0000 </r>
       <r>    0.7307    1.0000 </r>
       <r>    0.7328    1.0000 </r>
       <r>    1.0106    1.0000 </r>
       <r>    1.0119    1.0000 </r>
       <r>    1.0274    1.0000 </r>
       <r>    1.0304    1.0000 </r>
       <r>    1.2701    1.0000 </r>
       <r>    1.2709    1.0000 </r>
       <r>    1.9037    1.0000 </r>
       <r>    1.9075    1.0000 </r>
       <r>    2.1649    1.0000 </r>
       <r>    2.1674    1.0000 </r>
       <r>    2.3532    1.0000 </r>
       <r>    2.3554    1.0000 </r>
       <r>    2.3749    1.0000 </r>
       <r>    2.3762    1.0000 </r>
       <r>    3.6711    1.0000 </r>
       <r>    3.6736    1.0000 </r>
       <r>    3.9062    1.0000 </r>
       <r>    3.9106    1.0000 </r>
       <r>    4.8600    1.0000 </r>
       <r>    4.8625    1.0000 </r>
       <r>    6.0242    1.0000 </r>
       <r>    6.0276    1.0000 </r>
       <r>    8.0755    0.0000 </r>
       <r>    8.0810    0.0000 </r>
       <r>    9.2602    0.0000 </r>
       <r>    9.2643    0.0000 </r>
       <r>    9.8379    0.0000 </r>
       <r>    9.8423    0.0000 </r>
       <r>   11.2636    0.0000 </r>
       <r>   11.2668    0.0000 </r>
       <r>   11.6068    0.0000 </r>
       <r>   11.6111    0.0000 </r>
       <r>   13.1787    0.0000 </r>
       <r>   13.1825    0.0000 </r>
       <r>   14.5492    0.0000 </r>
       <r>   14.5556    0.0000 </r>
       <r>   14.5691    0.0000 </r>
       <r>   14.5714    0.0000 </r>
       <r>   15.1211    0.0000 </r>
       <r>   15.1288    0.0000 </r>
       <r>   15.4623    0.0000 </r>
       <r>   15.4923    0.0000 </r>
      </set>
     </set>
    </set>
   </array>
  </eigenvalues>
  <separator name="orbital magnetization" >
   <v name="MAGDIPOLOUT">      0.00000000      0.00000000      0.00000000</v>
  </separator>
  <dos>
   <i name="efermi">      6.76499454 </i>
   <total>
    <array>
     <dimension dim="1">gridpoints</dimension>
     <dimension dim="2">spin</dimension>
     <field>energy</field>
     <field>total</field>
     <field>integrated</field>
     <set>
      <set comment="spin 1">
       <r>   -14.7787     0.0000     0.0000 </r>
       <r>   -14.6689     0.0000     0.0000 </r>
       <r>   -14.5592     0.0000     0.0000 </r>
       <r>   -14.4494     0.0000     0.0000 </r>
       <r>   -14.3396     0.0000     0.0000 </r>
       <r>   -14.2298     0.0000     0.0000 </r>
       <r>   -14.1201     0.0000     0.0000 </r>
       <r>   -14.0103     0.0000     0.0000 </r>
       <r>   -13.9005     0.0000     0.0000 </r>
       <r>   -13.7907     0.0000     0.0000 </r>
       <r>   -13.6810     0.0000     0.0000 </r>
       <r>   -13.5712     0.0000     0.0000 </r>
       <r>   -13.4614     0.0005     0.0001 </r>
       <r>   -13.3516     0.0249     0.0028 </r>
       <r>   -13.2419     0.2782     0.0333 </r>
       <r>   -13.1321     0.8208     0.1234 </r>
       <r>   -13.0223     1.3370     0.2702 </r>
       <r>   -12.9125     1.7425     0.4615 </r>
       <r>   -12.8028     1.8315     0.6625 </r>
       <r>   -12.6930     2.3393     0.9193 </r>
       <r>   -12.5832     2.8266     1.2296 </r>
       <r>   -12.4734     2.3719     1.4900 </r>
       <r>   -12.3637     3.0193     1.8214 </r>
       <r>   -12.2539     3.5497     2.2111 </r>
       <r>   -12.1441     3.9486     2.6446 </r>
       <r>   -12.0343     3.6481     3.0450 </r>
       <r>   -11.9246     4.1598     3.5017 </r>
       <r>   -11.8148     4.7118     4.0189 </r>
       <r>   -11.7050     5.6576     4.6400 </r>
       <r>   -11.5952     4.9917     5.1879 </r>
       <r>   -11.4854     4.8896     5.7247 </r>
       <r>   -11.3757     4.3960     6.2073 </r>
       <r>   -11.2659     4.6934     6.7225 </r>
       <r>   -11.1561     5.2296     7.2966 </r>
       <r>   -11.0463     5.7047     7.9228 </r>
       <r>   -10.9366     5.1477     8.4879 </r>
       <r>   -10.8268     4.9773     9.0343 </r>
       <r>   -10.7170     3.9313     9.4658 </r>
       <r>   -10.6072     4.9489    10.0091 </r>
       <r>   -10.4975     5.2499    10.5854 </r>
       <r>   -10.3877     5.8209    11.2244 </r>
       <r>   -10.2779     4.8042    11.7518 </r>
       <r>   -10.1681     5.0450    12.3056 </r>
       <r>   -10.0584     5.3950    12.8978 </r>
       <r>    -9.9486     5.2943    13.4790 </r>
       <r>    -9.8388     4.0607    13.9248 </r>
       <r>    -9.7290     4.4822    14.4168 </r>
       <r>    -9.6193     5.3032    14.9990 </r>
       <r>    -9.5095     5.7169    15.6265 </r>
       <r>    -9.3997     6.2493    16.3125 </r>
       <r>    -9.2899     5.6913    16.9373 </r>
       <r>    -9.1802     4.4643    17.4274 </r>
       <r>    -9.0704     4.5072    17.9222 </r>
       <r>    -8.9606     4.8010    18.4492 </r>
       <r>    -8.8508     4.3123    18.9226 </r>
       <r>    -8.7411     5.2340    19.4971 </r>
       <r>    -8.6313     6.6842    20.2309 </r>
       <r>    -8.5215     6.7100    20.9675 </r>
       <r>    -8.4117     5.6068    21.5830 </r>
       <r>    -8.3020     5.3021    22.1650 </r>
       <r>    -8.1922     4.0568    22.6104 </r>
       <r>    -8.0824     4.5410    23.1088 </r>
       <r>    -7.9726     5.2997    23.6906 </r>
       <r>    -7.8629     5.5380    24.2986 </r>
       <r>    -7.7531     7.2134    25.0904 </r>
       <r>    -7.6433     7.4424    25.9074 </r>
       <r>    -7.5335     6.9326    26.6684 </r>
       <r>    -7.4238     5.9490    27.3215 </r>
       <r>    -7.3140     5.3704    27.9110 </r>
       <r>    -7.2042     5.1781    28.4795 </r>
       <r>    -7.0944     4.4338    28.9662 </r>
       <r>    -6.9847     4.4658    29.4564 </r>
       <r>    -6.8749     5.6265    30.0741 </r>
       <r>    -6.7651     4.2055    30.5357 </r>
       <r>    -6.6553     2.1751    30.7745 </r>
       <r>    -6.5456     2.4101    31.0391 </r>
       <r>    -6.4358     2.3030    31.2919 </r>
       <r>    -6.3260     2.5835    31.5755 </r>
       <r>    -6.2162     5.0950    32.1348 </r>
       <r>    -6.1065     5.9151    32.7841 </r>
       <r>    -5.9967     3.7582    33.1967 </r>
       <r>    -5.8869     4.1535    33.6526 </r>
       <r>    -5.7771     5.5934    34.2667 </r>
       <r>    -5.6674     7.1334    35.0497 </r>
       <r>    -5.5576     7.1493    35.8345 </r>
       <r>    -5.4478     5.7965    36.4709 </r>
       <r>    -5.3380     6.0955    37.1400 </r>
       <r>    -5.2283     6.1979    37.8204 </r>
       <r>    -5.1185     7.1628    38.6067 </r>
       <r>    -5.0087     6.8862    39.3626 </r>
       <r>    -4.8989     6.0405    40.0257 </r>
       <r>    -4.7892     4.9741    40.5717 </r>
       <r>    -4.6794     4.2133    41.0342 </r>
       <r>    -4.5696     5.0163    41.5849 </r>
       <r>    -4.4598     5.4162    42.1795 </r>
       <r>    -4.3501     5.6663    42.8015 </r>
       <r>    -4.2403     5.3752    43.3916 </r>
       <r>    -4.1305     4.3111    43.8648 </r>
       <r>    -4.0207     3.9867    44.3025 </r>
       <r>    -3.9110     3.6063    44.6983 </r>
       <r>    -3.8012     3.9247    45.1292 </r>
       <r>    -3.6914     5.5430    45.7377 </r>
       <r>    -3.5816     6.3857    46.4387 </r>
       <r>    -3.4719     5.6906    47.0633 </r>
       <r>    -3.3621     4.5740    47.5654 </r>
       <r>    -3.2523     5.3512    48.1529 </r>
       <r>    -3.1425     4.7327    48.6724 </r>
       <r>    -3.0328     5.9139    49.3216 </r>
       <r>    -2.9230     7.9352    50.1927 </r>
       <r>    -2.8132     7.1541    50.9780 </r>
       <r>    -2.7034     5.4422    51.5755 </r>
       <r>    -2.5937     5.5553    52.1853 </r>
       <r>    -2.4839     5.7794    52.8197 </r>
       <r>    -2.3741     6.5106    53.5344 </r>
       <r>    -2.2643     7.0326    54.3064 </r>
       <r>    -2.1546     7.7547    55.1577 </r>
       <r>    -2.0448     8.9210    56.1370 </r>
       <r>    -1.9350     9.2766    57.1554 </r>
       <r>    -1.8252     7.2428    57.9504 </r>
       <r>    -1.7155     6.6757    58.6833 </r>
       <r>    -1.6057     6.5803    59.4056 </r>
       <r>    -1.4959     6.5830    60.1283 </r>
       <r>    -1.3861     7.3982    60.9404 </r>
       <r>    -1.2763     8.6957    61.8950 </r>
       <r>    -1.1666     9.2559    62.9110 </r>
       <r>    -1.0568    10.3353    64.0456 </r>
       <r>    -0.9470    11.7042    65.3304 </r>
       <r>    -0.8372     9.3576    66.3577 </r>
       <r>    -0.7275     7.0514    67.1317 </r>
       <r>    -0.6177     6.6764    67.8646 </r>
       <r>    -0.5079     8.5680    68.8052 </r>
       <r>    -0.3981    10.0347    69.9067 </r>
       <r>    -0.2884    11.5942    71.1795 </r>
       <r>    -0.1786    11.7371    72.4679 </r>
       <r>    -0.0688    11.5817    73.7393 </r>
       <r>     0.0410    11.2473    74.9740 </r>
       <r>     0.1507    11.9173    76.2822 </r>
       <r>     0.2605    12.6067    77.6661 </r>
       <r>     0.3703    12.1777    79.0029 </r>
       <r>     0.4801    15.3750    80.6907 </r>
       <r>     0.5898    15.4312    82.3847 </r>
       <r>     0.6996    15.2565    84.0595 </r>
       <r>     0.8094    12.9353    85.4795 </r>
       <r>     0.9192    12.4022    86.8409 </r>
       <r>     1.0289    14.2746    88.4079 </r>
       <r>     1.1387    11.4955    89.6698 </r>
       <r>     1.2485     8.1865    90.5685 </r>
       <r>     1.3583     9.8198    91.6465 </r>
       <r>     1.4680    11.8712    92.9496 </r>
       <r>     1.5778    12.2623    94.2957 </r>
       <r>     1.6876    10.3694    95.4340 </r>
       <r>     1.7974     8.9884    96.4207 </r>
       <r>     1.9071     7.3544    97.2281 </r>
       <r>     2.0169     7.7438    98.0782 </r>
       <r>     2.1267    11.3493    99.3240 </r>
       <r>     2.2365    12.3811   100.6832 </r>
       <r>     2.3462    10.7304   101.8611 </r>
       <r>     2.4560     9.0879   102.8587 </r>
       <r>     2.5658     8.0121   103.7382 </r>
       <r>     2.6756     7.7909   104.5935 </r>
       <r>     2.7853     8.7992   105.5594 </r>
       <r>     2.8951    12.7128   106.9550 </r>
       <r>     3.0049    11.8314   108.2538 </r>
       <r>     3.1147     8.2819   109.1629 </r>
       <r>     3.2244     6.1384   109.8368 </r>
       <r>     3.3342     7.5007   110.6602 </r>
       <r>     3.4440    10.8752   111.8540 </r>
       <r>     3.5538    12.6540   113.2431 </r>
       <r>     3.6635     9.3284   114.2671 </r>
       <r>     3.7733     7.6937   115.1117 </r>
       <r>     3.8831     6.2973   115.8030 </r>
       <r>     3.9929     5.4827   116.4048 </r>
       <r>     4.1026     5.1218   116.9671 </r>
       <r>     4.2124     5.8111   117.6050 </r>
       <r>     4.3222     5.5754   118.2170 </r>
       <r>     4.4320     5.6776   118.8403 </r>
       <r>     4.5417     6.0104   119.5001 </r>
       <r>     4.6515     3.1198   119.8426 </r>
       <r>     4.7613     3.1398   120.1873 </r>
       <r>     4.8711     5.9905   120.8449 </r>
       <r>     4.9808     9.8072   121.9215 </r>
       <r>     5.0906     8.7593   122.8830 </r>
       <r>     5.2004     4.7739   123.4071 </r>
       <r>     5.3102     3.5934   123.8015 </r>
       <r>     5.4199     6.6261   124.5289 </r>
       <r>     5.5297     6.6478   125.2587 </r>
       <r>     5.6395     4.2202   125.7220 </r>
       <r>     5.7493     2.5771   126.0049 </r>
       <r>     5.8590     2.5524   126.2850 </r>
       <r>     5.9688     2.5221   126.5619 </r>
       <r>     6.0786     2.7208   126.8606 </r>
       <r>     6.1884     2.1841   127.1003 </r>
       <r>     6.2981     1.6081   127.2769 </r>
       <r>     6.4079     2.3032   127.5297 </r>
       <r>     6.5177     2.0482   127.7545 </r>
       <r>     6.6275     1.1860   127.8847 </r>
       <r>     6.7372     0.8718   127.9804 </r>
       <r>     6.8470     0.6674   128.0537 </r>
       <r>     6.9568     0.4343   128.1014 </r>
       <r>     7.0666     0.0866   128.1109 </r>
       <r>     7.1763     0.0852   128.1202 </r>
       <r>     7.2861     0.9651   128.2262 </r>
       <r>     7.3959     1.9516   128.4404 </r>
       <r>     7.5057     1.3446   128.5880 </r>
       <r>     7.6154     0.9357   128.6907 </r>
       <r>     7.7252     1.2868   128.8320 </r>
       <r>     7.8350     0.8154   128.9215 </r>
       <r>     7.9448     0.7963   129.0089 </r>
       <r>     8.0545     2.5801   129.2922 </r>
       <r>     8.1643     4.0186   129.7333 </r>
       <r>     8.2741     3.4658   130.1138 </r>
       <r>     8.3839     3.3923   130.4862 </r>
       <r>     8.4937     4.5471   130.9853 </r>
       <r>     8.6034     7.2934   131.7860 </r>
       <r>     8.7132    10.0946   132.8941 </r>
       <r>     8.8230     6.8948   133.6510 </r>
       <r>     8.9328     7.0977   134.4301 </r>
       <r>     9.0425     7.1954   135.2200 </r>
       <r>     9.1523     5.6105   135.8359 </r>
       <r>     9.2621     5.2007   136.4068 </r>
       <r>     9.3719     5.4357   137.0035 </r>
       <r>     9.4816     5.0139   137.5539 </r>
       <r>     9.5914     5.7272   138.1826 </r>
       <r>     9.7012     5.4050   138.7760 </r>
       <r>     9.8110     4.1236   139.2286 </r>
       <r>     9.9207     4.4992   139.7225 </r>
       <r>    10.0305     4.3207   140.1969 </r>
       <r>    10.1403     5.3387   140.7829 </r>
       <r>    10.2501     4.3370   141.2590 </r>
       <r>    10.3598     2.6876   141.5540 </r>
       <r>    10.4696     3.7892   141.9700 </r>
       <r>    10.5794     5.4119   142.5641 </r>
       <r>    10.6892     4.2962   143.0357 </r>
       <r>    10.7989     2.6980   143.3319 </r>
       <r>    10.9087     2.7360   143.6322 </r>
       <r>    11.0185     4.0916   144.0814 </r>
       <r>    11.1283     3.6264   144.4795 </r>
       <r>    11.2380     2.7320   144.7794 </r>
       <r>    11.3478     3.4382   145.1568 </r>
       <r>    11.4576     4.7741   145.6809 </r>
       <r>    11.5674     4.4244   146.1666 </r>
       <r>    11.6771     2.7262   146.4658 </r>
       <r>    11.7869     1.6617   146.6482 </r>
       <r>    11.8967     2.8490   146.9610 </r>
       <r>    12.0065     2.5351   147.2393 </r>
       <r>    12.1162     2.1356   147.4737 </r>
       <r>    12.2260     3.2748   147.8332 </r>
       <r>    12.3358     4.3520   148.3110 </r>
       <r>    12.4456     3.3145   148.6748 </r>
       <r>    12.5553     3.0831   149.0133 </r>
       <r>    12.6651     3.0186   149.3446 </r>
       <r>    12.7749     3.0670   149.6813 </r>
       <r>    12.8847     2.0045   149.9013 </r>
       <r>    12.9944     1.5715   150.0739 </r>
       <r>    13.1042     2.7320   150.3738 </r>
       <r>    13.2140     3.0587   150.7095 </r>
       <r>    13.3238     1.7958   150.9067 </r>
       <r>    13.4335     2.0306   151.1296 </r>
       <r>    13.5433     4.2141   151.5922 </r>
       <r>    13.6531     4.5318   152.0897 </r>
       <r>    13.7629     4.5957   152.5942 </r>
       <r>    13.8726     5.9298   153.2451 </r>
       <r>    13.9824     6.5583   153.9651 </r>
       <r>    14.0922     5.7290   154.5940 </r>
       <r>    14.2020     5.2086   155.1657 </r>
       <r>    14.3117     4.8770   155.7011 </r>
       <r>    14.4215     6.2510   156.3873 </r>
       <r>    14.5313     6.7473   157.1280 </r>
       <r>    14.6411     9.1887   158.1367 </r>
       <r>    14.7508     8.6284   159.0839 </r>
       <r>    14.8606    10.2563   160.2098 </r>
       <r>    14.9704    12.3268   161.5629 </r>
       <r>    15.0802    11.6491   162.8417 </r>
       <r>    15.1899    12.4102   164.2040 </r>
       <r>    15.2997     9.9774   165.2993 </r>
       <r>    15.4095     7.1605   166.0854 </r>
       <r>    15.5193     4.9157   166.6250 </r>
       <r>    15.6290     3.0271   166.9573 </r>
       <r>    15.7388     2.0279   167.1799 </r>
       <r>    15.8486     2.0983   167.4102 </r>
       <r>    15.9584     1.5810   167.5838 </r>
       <r>    16.0681     1.1426   167.7092 </r>
       <r>    16.1779     0.8287   167.8002 </r>
       <r>    16.2877     0.2565   167.8284 </r>
       <r>    16.3975     0.1412   167.8439 </r>
       <r>    16.5072     0.4131   167.8892 </r>
       <r>    16.6170     0.6397   167.9594 </r>
       <r>    16.7268     0.3206   167.9946 </r>
       <r>    16.8366     0.0478   167.9999 </r>
       <r>    16.9463     0.0012   168.0000 </r>
       <r>    17.0561     0.0000   168.0000 </r>
       <r>    17.1659     0.0000   168.0000 </r>
       <r>    17.2757     0.0000   168.0000 </r>
       <r>    17.3854     0.0000   168.0000 </r>
       <r>    17.4952     0.0000   168.0000 </r>
       <r>    17.6050     0.0000   168.0000 </r>
       <r>    17.7148     0.0000   168.0000 </r>
       <r>    17.8245     0.0000   168.0000 </r>
       <r>    17.9343     0.0000   168.0000 </r>
       <r>    18.0441     0.0000   168.0000 </r>
       <r>    18.1539     0.0000   168.0000 </r>
      </set>
     </set>
    </array>
   </total>
  </dos>
 </calculation>
 <structure name="finalpos" >
  <crystal>
   <varray name="basis" >
    <v>       4.93431088      -0.00022240       0.00000000 </v>
    <v>      -2.46734805       4.27312738       0.00000000 </v>
    <v>       0.00000000       0.00000000      10.76118770 </v>
   </varray>
   <i name="volume">    226.89308034 </i>
   <varray name="rec_basis" >
    <v>       0.20266782       0.11702250       0.00000000 </v>
    <v>       0.00001055       0.23402673       0.00000000 </v>
    <v>       0.00000000       0.00000000       0.09292655 </v>
   </varray>
  </crystal>
  <varray name="positions" >
   <v>       0.49915515       0.00000017       0.12415530 </v>
   <v>       0.99999985       0.00000017       0.12500000 </v>
   <v>       0.49999985       0.50000017       0.12500000 </v>
   <v>       0.99999985       0.50000017       0.12500000 </v>
   <v>       0.49999985       0.00000017       0.62500000 </v>
   <v>       0.99999985       0.00000017       0.62500000 </v>
   <v>       0.49999985       0.50000017       0.62500000 </v>
   <v>       0.99999985       0.50000017       0.62500000 </v>
   <v>       0.00000017       0.49999985       0.37500000 </v>
   <v>       0.50000017       0.49999985       0.37500000 </v>
   <v>       0.00000017       0.99999985       0.37500000 </v>
   <v>       0.50000017       0.99999985       0.37500000 </v>
   <v>       0.00000017       0.49999985       0.87500000 </v>
   <v>       0.50000017       0.49999985       0.87500000 </v>
   <v>       0.00000017       0.99999985       0.87500000 </v>
   <v>       0.50000017       0.99999985       0.87500000 </v>
   <v>       0.16664946       0.33335053       0.12500000 </v>
   <v>       0.66664946       0.33335053       0.12500000 </v>
   <v>       0.16664946       0.83335053       0.12500000 </v>
   <v>       0.66664946       0.83335053       0.12500000 </v>
   <v>       0.16664946       0.33335053       0.62500000 </v>
   <v>       0.66664946       0.33335053       0.62500000 </v>
   <v>       0.16664946       0.83335053       0.62500000 </v>
   <v>       0.66664946       0.83335053       0.62500000 </v>
   <v>       0.33335053       0.16664946       0.37500000 </v>
   <v>       0.83335053       0.16664946       0.37500000 </v>
   <v>       0.33335053       0.66664946       0.37500000 </v>
   <v>       0.83335053       0.66664946       0.37500000 </v>
   <v>       0.33335053       0.16664946       0.87500000 </v>
   <v>       0.83335053       0.16664946       0.87500000 </v>
   <v>       0.33335053       0.66664946       0.87500000 </v>
   <v>       0.83335053       0.66664946       0.87500000 </v>
  </varray>
 </structure>
</modeling>
