   4   4   0   0
  0.8468675E+01  0.2466437E-09  0.2466437E-09  0.6432798E-09  0.5000000E-15
  1.000000000000000E-004
  CAR 
 graphite                                
     18.86510528    -16.62571929  301      5.04188792      1.00000000
    -16.626  0.0000E+00  0.0000E+00
    -16.507  0.0000E+00  0.0000E+00
    -16.389  0.0000E+00  0.0000E+00
    -16.271  0.0000E+00  0.0000E+00
    -16.153  0.0000E+00  0.0000E+00
    -16.034  0.0000E+00  0.0000E+00
    -15.916  0.0000E+00  0.0000E+00
    -15.798  0.0000E+00  0.0000E+00
    -15.679  0.0000E+00  0.0000E+00
    -15.561  0.0000E+00  0.0000E+00
    -15.443  0.0000E+00  0.0000E+00
    -15.324  0.0000E+00  0.0000E+00
    -15.206  0.0000E+00  0.0000E+00
    -15.088  0.0000E+00  0.0000E+00
    -14.969  0.0000E+00  0.0000E+00
    -14.851  0.0000E+00  0.0000E+00
    -14.733  0.0000E+00  0.0000E+00
    -14.615  0.1622E-04  0.6027E-07
    -14.496  0.9783E-03  0.4922E-04
    -14.378  0.1533E-02  0.2082E-03
    -14.260  0.2130E-02  0.4224E-03
    -14.141  0.3109E-02  0.7320E-03
    -14.023  0.3019E-02  0.1108E-02
    -13.905  0.3060E-02  0.1467E-02
    -13.786  0.3106E-02  0.1832E-02
    -13.668  0.3058E-02  0.2198E-02
    -13.550  0.3080E-02  0.2559E-02
    -13.432  0.3136E-02  0.2929E-02
    -13.313  0.3142E-02  0.3300E-02
    -13.195  0.3133E-02  0.3672E-02
    -13.077  0.3063E-02  0.4039E-02
    -12.958  0.3074E-02  0.4402E-02
    -12.840  0.3101E-02  0.4767E-02
    -12.722  0.3150E-02  0.5137E-02
    -12.603  0.3195E-02  0.5513E-02
    -12.485  0.3185E-02  0.5890E-02
    -12.367  0.3173E-02  0.6266E-02
    -12.249  0.3142E-02  0.6640E-02
    -12.130  0.3123E-02  0.7010E-02
    -12.012  0.3139E-02  0.7381E-02
    -11.894  0.3161E-02  0.7754E-02
    -11.775  0.3188E-02  0.8129E-02
    -11.657  0.3221E-02  0.8508E-02
    -11.539  0.3259E-02  0.8891E-02
    -11.420  0.3257E-02  0.9277E-02
    -11.302  0.3254E-02  0.9662E-02
    -11.184  0.3228E-02  0.1005E-01
    -11.065  0.3232E-02  0.1043E-01
    -10.947  0.3244E-02  0.1081E-01
    -10.829  0.3270E-02  0.1120E-01
    -10.711  0.3299E-02  0.1158E-01
    -10.592  0.3328E-02  0.1198E-01
    -10.474  0.3367E-02  0.1237E-01
    -10.356  0.3416E-02  0.1277E-01
    -10.237  0.3477E-02  0.1318E-01
    -10.119  0.3533E-02  0.1360E-01
    -10.001  0.3616E-02  0.1402E-01
     -9.882  0.3722E-02  0.1445E-01
     -9.764  0.3874E-02  0.1490E-01
     -9.646  0.4820E-02  0.1540E-01
     -9.528  0.5273E-02  0.1600E-01
     -9.409  0.5656E-02  0.1666E-01
     -9.291  0.4286E-02  0.1724E-01
     -9.173  0.3139E-02  0.1768E-01
     -9.054  0.2636E-02  0.1801E-01
     -8.936  0.2352E-02  0.1831E-01
     -8.818  0.4033E-02  0.1865E-01
     -8.699  0.2814E-02  0.1902E-01
     -8.581  0.1282E-02  0.1934E-01
     -8.463  0.1126E-02  0.1948E-01
     -8.345  0.9820E-03  0.1960E-01
     -8.226  0.8383E-03  0.1971E-01
     -8.108  0.8113E-03  0.1980E-01
     -7.990  0.1063E-02  0.1991E-01
     -7.871  0.1352E-02  0.2006E-01
     -7.753  0.1770E-02  0.2023E-01
     -7.635  0.4044E-02  0.2056E-01
     -7.516  0.4397E-02  0.2111E-01
     -7.398  0.4272E-02  0.2163E-01
     -7.280  0.4044E-02  0.2209E-01
     -7.161  0.4805E-02  0.2261E-01
     -7.043  0.5567E-02  0.2323E-01
     -6.925  0.5895E-02  0.2393E-01
     -6.807  0.4592E-02  0.2454E-01
     -6.688  0.3521E-02  0.2499E-01
     -6.570  0.3422E-02  0.2540E-01
     -6.452  0.3334E-02  0.2580E-01
     -6.333  0.3249E-02  0.2619E-01
     -6.215  0.3164E-02  0.2657E-01
     -6.097  0.3069E-02  0.2694E-01
     -5.978  0.2975E-02  0.2730E-01
     -5.860  0.2880E-02  0.2764E-01
     -5.742  0.2785E-02  0.2798E-01
     -5.624  0.2690E-02  0.2830E-01
     -5.505  0.2594E-02  0.2862E-01
     -5.387  0.2649E-02  0.2892E-01
     -5.269  0.2879E-02  0.2925E-01
     -5.150  0.3110E-02  0.2960E-01
     -5.032  0.3342E-02  0.2998E-01
     -4.914  0.3573E-02  0.3039E-01
     -4.795  0.3805E-02  0.3083E-01
     -4.677  0.4036E-02  0.3129E-01
     -4.559  0.4112E-02  0.3178E-01
     -4.441  0.4066E-02  0.3227E-01
     -4.322  0.3870E-02  0.3274E-01
     -4.204  0.3823E-02  0.3319E-01
     -4.086  0.3821E-02  0.3364E-01
     -3.967  0.3820E-02  0.3409E-01
     -3.849  0.3824E-02  0.3455E-01
     -3.731  0.3893E-02  0.3500E-01
     -3.612  0.3981E-02  0.3547E-01
     -3.494  0.4340E-02  0.3596E-01
     -3.376  0.4663E-02  0.3649E-01
     -3.258  0.4869E-02  0.3706E-01
     -3.139  0.5085E-02  0.3765E-01
     -3.021  0.5426E-02  0.3827E-01
     -2.903  0.5715E-02  0.3893E-01
     -2.784  0.5868E-02  0.3961E-01
     -2.666  0.6107E-02  0.4032E-01
     -2.548  0.6438E-02  0.4106E-01
     -2.429  0.6884E-02  0.4185E-01
     -2.311  0.7149E-02  0.4269E-01
     -2.193  0.6653E-02  0.4351E-01
     -2.074  0.6289E-02  0.4427E-01
     -1.956  0.6111E-02  0.4501E-01
     -1.838  0.6188E-02  0.4573E-01
     -1.720  0.7640E-02  0.4654E-01
     -1.601  0.8512E-02  0.4749E-01
     -1.483  0.9513E-02  0.4856E-01
     -1.365  0.1127E-01  0.4977E-01
     -1.246  0.1280E-01  0.5135E-01
     -1.128  0.1019E-01  0.5270E-01
     -1.010  0.8864E-02  0.5382E-01
     -0.891  0.8007E-02  0.5481E-01
     -0.773  0.7137E-02  0.5572E-01
     -0.655  0.5284E-02  0.5645E-01
     -0.537  0.4949E-02  0.5705E-01
     -0.418  0.5109E-02  0.5764E-01
     -0.300  0.5448E-02  0.5826E-01
     -0.182  0.6069E-02  0.5894E-01
     -0.063  0.7471E-02  0.5974E-01
      0.055  0.7051E-02  0.6065E-01
      0.173  0.7918E-02  0.6160E-01
      0.292  0.7301E-02  0.6249E-01
      0.410  0.6776E-02  0.6333E-01
      0.528  0.6476E-02  0.6411E-01
      0.646  0.6220E-02  0.6486E-01
      0.765  0.6002E-02  0.6558E-01
      0.883  0.5812E-02  0.6628E-01
      1.001  0.5855E-02  0.6697E-01
      1.120  0.5962E-02  0.6767E-01
      1.238  0.5839E-02  0.6837E-01
      1.356  0.5725E-02  0.6905E-01
      1.475  0.6023E-02  0.6975E-01
      1.593  0.5709E-02  0.7044E-01
      1.711  0.5416E-02  0.7110E-01
      1.830  0.5807E-02  0.7180E-01
      1.948  0.5067E-02  0.7244E-01
      2.066  0.4505E-02  0.7302E-01
      2.184  0.4212E-02  0.7353E-01
      2.303  0.4105E-02  0.7402E-01
      2.421  0.4086E-02  0.7451E-01
      2.539  0.4071E-02  0.7499E-01
      2.658  0.4077E-02  0.7547E-01
      2.776  0.4107E-02  0.7596E-01
      2.894  0.4309E-02  0.7645E-01
      3.013  0.4620E-02  0.7697E-01
      3.131  0.3852E-02  0.7748E-01
      3.249  0.3206E-02  0.7788E-01
      3.367  0.2719E-02  0.7823E-01
      3.486  0.2232E-02  0.7852E-01
      3.604  0.1860E-02  0.7876E-01
      3.722  0.1684E-02  0.7897E-01
      3.841  0.1510E-02  0.7916E-01
      3.959  0.1330E-02  0.7933E-01
      4.077  0.1156E-02  0.7948E-01
      4.196  0.9883E-03  0.7960E-01
      4.314  0.8465E-03  0.7971E-01
      4.432  0.6874E-03  0.7980E-01
      4.550  0.5388E-03  0.7987E-01
      4.669  0.3975E-03  0.7993E-01
      4.787  0.2629E-03  0.7997E-01
      4.905  0.1335E-03  0.7999E-01
      5.024  0.1205E-04  0.8000E-01
      5.142  0.6460E-04  0.8000E-01
      5.260  0.1503E-03  0.8002E-01
      5.379  0.2424E-03  0.8004E-01
      5.497  0.3421E-03  0.8007E-01
      5.615  0.4506E-03  0.8012E-01
      5.734  0.5689E-03  0.8018E-01
      5.852  0.7030E-03  0.8026E-01
      5.970  0.8620E-03  0.8035E-01
      6.088  0.1063E-02  0.8046E-01
      6.207  0.1627E-02  0.8062E-01
      6.325  0.2018E-02  0.8084E-01
      6.443  0.2216E-02  0.8110E-01
      6.562  0.2826E-02  0.8138E-01
      6.680  0.5871E-02  0.8187E-01
      6.798  0.5214E-02  0.8259E-01
      6.917  0.4416E-02  0.8313E-01
      7.035  0.4258E-02  0.8365E-01
      7.153  0.4114E-02  0.8414E-01
      7.271  0.4001E-02  0.8462E-01
      7.390  0.4003E-02  0.8509E-01
      7.508  0.3961E-02  0.8557E-01
      7.626  0.3506E-02  0.8602E-01
      7.745  0.3156E-02  0.8640E-01
      7.863  0.3000E-02  0.8677E-01
      7.981  0.2860E-02  0.8711E-01
      8.100  0.2736E-02  0.8744E-01
      8.218  0.2630E-02  0.8776E-01
      8.336  0.2557E-02  0.8807E-01
      8.454  0.2496E-02  0.8837E-01
      8.573  0.2441E-02  0.8866E-01
      8.691  0.2391E-02  0.8894E-01
      8.809  0.2341E-02  0.8922E-01
      8.928  0.2291E-02  0.8950E-01
      9.046  0.2242E-02  0.8977E-01
      9.164  0.2174E-02  0.9003E-01
      9.283  0.2118E-02  0.9028E-01
      9.401  0.2068E-02  0.9053E-01
      9.519  0.2022E-02  0.9077E-01
      9.637  0.1981E-02  0.9101E-01
      9.756  0.1944E-02  0.9124E-01
      9.874  0.1999E-02  0.9147E-01
      9.992  0.2174E-02  0.9172E-01
     10.111  0.2236E-02  0.9198E-01
     10.229  0.2262E-02  0.9225E-01
     10.347  0.2327E-02  0.9252E-01
     10.466  0.2379E-02  0.9280E-01
     10.584  0.2410E-02  0.9308E-01
     10.702  0.2543E-02  0.9337E-01
     10.821  0.2702E-02  0.9368E-01
     10.939  0.2870E-02  0.9401E-01
     11.057  0.3036E-02  0.9436E-01
     11.175  0.3274E-02  0.9474E-01
     11.294  0.2890E-02  0.9511E-01
     11.412  0.2589E-02  0.9543E-01
     11.530  0.2403E-02  0.9572E-01
     11.649  0.2256E-02  0.9600E-01
     11.767  0.2128E-02  0.9626E-01
     11.885  0.1967E-02  0.9650E-01
     12.004  0.1860E-02  0.9673E-01
     12.122  0.1799E-02  0.9694E-01
     12.240  0.1976E-02  0.9716E-01
     12.358  0.2887E-02  0.9744E-01
     12.477  0.4191E-02  0.9786E-01
     12.595  0.6135E-02  0.9849E-01
     12.713  0.6737E-02  0.9925E-01
     12.832  0.8201E-02  0.1001E+00
     12.950  0.9393E-02  0.1012E+00
     13.068  0.1042E-01  0.1023E+00
     13.187  0.1017E-01  0.1036E+00
     13.305  0.9983E-02  0.1047E+00
     13.423  0.1608E-01  0.1060E+00
     13.541  0.1279E-01  0.1077E+00
     13.660  0.9684E-02  0.1090E+00
     13.778  0.7045E-02  0.1100E+00
     13.896  0.5780E-02  0.1107E+00
     14.015  0.5583E-02  0.1114E+00
     14.133  0.5658E-02  0.1120E+00
     14.251  0.5754E-02  0.1127E+00
     14.370  0.5062E-02  0.1134E+00
     14.488  0.4307E-02  0.1139E+00
     14.606  0.3672E-02  0.1144E+00
     14.725  0.3189E-02  0.1148E+00
     14.843  0.3138E-02  0.1152E+00
     14.961  0.3371E-02  0.1156E+00
     15.079  0.4418E-02  0.1161E+00
     15.198  0.3639E-02  0.1165E+00
     15.316  0.3749E-02  0.1170E+00
     15.434  0.4130E-02  0.1174E+00
     15.553  0.5137E-02  0.1180E+00
     15.671  0.3310E-02  0.1184E+00
     15.789  0.2371E-02  0.1188E+00
     15.908  0.1992E-02  0.1190E+00
     16.026  0.1668E-02  0.1192E+00
     16.144  0.1464E-02  0.1194E+00
     16.262  0.1335E-02  0.1196E+00
     16.381  0.1199E-02  0.1197E+00
     16.499  0.8262E-03  0.1198E+00
     16.617  0.5638E-03  0.1199E+00
     16.736  0.3222E-03  0.1200E+00
     16.854  0.3187E-05  0.1200E+00
     16.972  0.0000E+00  0.1200E+00
     17.091  0.0000E+00  0.1200E+00
     17.209  0.0000E+00  0.1200E+00
     17.327  0.0000E+00  0.1200E+00
     17.445  0.0000E+00  0.1200E+00
     17.564  0.0000E+00  0.1200E+00
     17.682  0.0000E+00  0.1200E+00
     17.800  0.0000E+00  0.1200E+00
     17.919  0.0000E+00  0.1200E+00
     18.037  0.0000E+00  0.1200E+00
     18.155  0.0000E+00  0.1200E+00
     18.274  0.0000E+00  0.1200E+00
     18.392  0.0000E+00  0.1200E+00
     18.510  0.0000E+00  0.1200E+00
     18.628  0.0000E+00  0.1200E+00
     18.747  0.0000E+00  0.1200E+00
     18.865  0.0000E+00  0.1200E+00
