# Thermal properties / unit cell (natom)

unit:
  temperature:   K
  free_energy:   kJ/mol
  entropy:       J/K/mol
  heat_capacity: J/K/mol

natom:     4
num_modes: 3888
num_integrated_modes: 3874

zero_point_energy:      66.0775326
high_T_entropy:        229.1556486

thermal_properties:
- temperature:         0.0000000
  free_energy:        66.0775326
  entropy:             0.0000000
  heat_capacity:       0.0000000
  energy:             66.0775326

- temperature:        10.0000000
  free_energy:        66.0775265
  entropy:             0.0037250
  heat_capacity:       0.0165143
  energy:             66.0775638

- temperature:        20.0000000
  free_energy:        66.0773429
  entropy:             0.0384310
  heat_capacity:       0.0985332
  energy:             66.0781116

- temperature:        30.0000000
  free_energy:        66.0766738
  entropy:             0.0993975
  heat_capacity:       0.2210231
  energy:             66.0796558

- temperature:        40.0000000
  free_energy:        66.0752577
  entropy:             0.1897737
  heat_capacity:       0.4369554
  energy:             66.0828486

- temperature:        50.0000000
  free_energy:        66.0727403
  entropy:             0.3213906
  heat_capacity:       0.7765304
  energy:             66.0888098

- temperature:        60.0000000
  free_energy:        66.0686650
  entropy:             0.5023588
  heat_capacity:       1.2443666
  energy:             66.0988065

- temperature:        70.0000000
  free_energy:        66.0625125
  entropy:             0.7374718
  heat_capacity:       1.8437583
  energy:             66.1141355

- temperature:        80.0000000
  free_energy:        66.0537236
  entropy:             1.0301375
  heat_capacity:       2.5789054
  energy:             66.1361346

- temperature:        90.0000000
  free_energy:        66.0417094
  entropy:             1.3828910
  heat_capacity:       3.4506372
  energy:             66.1661696

- temperature:       100.0000000
  free_energy:        66.0258602
  entropy:             1.7972799
  heat_capacity:       4.4544527
  energy:             66.2055882

- temperature:       110.0000000
  free_energy:        66.0055568
  entropy:             2.2737339
  heat_capacity:       5.5808027
  energy:             66.2556675

- temperature:       120.0000000
  free_energy:        65.9801808
  entropy:             2.8115631
  heat_capacity:       6.8163184
  energy:             66.3175684

- temperature:       130.0000000
  free_energy:        65.9491265
  entropy:             3.4090692
  heat_capacity:       8.1452910
  energy:             66.3923055

- temperature:       140.0000000
  free_energy:        65.9118089
  entropy:             4.0637242
  heat_capacity:       9.5510904
  energy:             66.4807303

- temperature:       150.0000000
  free_energy:        65.8676719
  entropy:             4.7723785
  heat_capacity:      11.0173625
  energy:             66.5835287

- temperature:       160.0000000
  free_energy:        65.8161932
  entropy:             5.5314695
  heat_capacity:      12.5289208
  energy:             66.7012283

- temperature:       170.0000000
  free_energy:        65.7568870
  entropy:             6.3372116
  heat_capacity:      14.0723095
  energy:             66.8342130

- temperature:       180.0000000
  free_energy:        65.6893063
  entropy:             7.1857549
  heat_capacity:      15.6360700
  energy:             66.9827422

- temperature:       190.0000000
  free_energy:        65.6130419
  entropy:             8.0733092
  heat_capacity:      17.2107717
  energy:             67.1469707

- temperature:       200.0000000
  free_energy:        65.5277222
  entropy:             8.9962327
  heat_capacity:      18.7888775
  energy:             67.3269688

- temperature:       210.0000000
  free_energy:        65.4330109
  entropy:             9.9510904
  heat_capacity:      20.3645128
  energy:             67.5227398

- temperature:       220.0000000
  free_energy:        65.3286047
  entropy:            10.9346866
  heat_capacity:      21.9331902
  energy:             67.7342357

- temperature:       230.0000000
  free_energy:        65.2142312
  entropy:            11.9440779
  heat_capacity:      23.4915325
  energy:             67.9613691

- temperature:       240.0000000
  free_energy:        65.0896461
  entropy:            12.9765721
  heat_capacity:      25.0370156
  energy:             68.2040234

- temperature:       250.0000000
  free_energy:        64.9546309
  entropy:            14.0297171
  heat_capacity:      26.5677486
  energy:             68.4620602

- temperature:       260.0000000
  free_energy:        64.8089904
  entropy:            15.1012846
  heat_capacity:      28.0822926
  energy:             68.7353244

- temperature:       270.0000000
  free_energy:        64.6525506
  entropy:            16.1892508
  heat_capacity:      29.5795202
  energy:             69.0236483

- temperature:       280.0000000
  free_energy:        64.4851569
  entropy:            17.2917755
  heat_capacity:      31.0585115
  energy:             69.3268540

- temperature:       290.0000000
  free_energy:        64.3066721
  entropy:            18.4071826
  heat_capacity:      32.5184790
  energy:             69.6447551

- temperature:       300.0000000
  free_energy:        64.1169754
  entropy:            19.5339414
  heat_capacity:      33.9587189
  energy:             69.9771578

- temperature:       310.0000000
  free_energy:        63.9159602
  entropy:            20.6706496
  heat_capacity:      35.3785800
  energy:             70.3238615

- temperature:       320.0000000
  free_energy:        63.7035335
  entropy:            21.8160184
  heat_capacity:      36.7774474
  energy:             70.6846594

- temperature:       330.0000000
  free_energy:        63.4796149
  entropy:            22.9688596
  heat_capacity:      38.1547354
  energy:             71.0593386

- temperature:       340.0000000
  free_energy:        63.2441351
  entropy:            24.1280742
  heat_capacity:      39.5098869
  energy:             71.4476803

- temperature:       350.0000000
  free_energy:        62.9970356
  entropy:            25.2926434
  heat_capacity:      40.8423772
  energy:             71.8494608

- temperature:       360.0000000
  free_energy:        62.7382676
  entropy:            26.4616199
  heat_capacity:      42.1517187
  energy:             72.2644507

- temperature:       370.0000000
  free_energy:        62.4677914
  entropy:            27.6341218
  heat_capacity:      43.4374674
  energy:             72.6924165

- temperature:       380.0000000
  free_energy:        62.1855761
  entropy:            28.8093263
  heat_capacity:      44.6992282
  energy:             73.1331201

- temperature:       390.0000000
  free_energy:        61.8915985
  entropy:            29.9864653
  heat_capacity:      45.9366596
  energy:             73.5863199

- temperature:       400.0000000
  free_energy:        61.5858428
  entropy:            31.1648212
  heat_capacity:      47.1494779
  energy:             74.0517712

- temperature:       410.0000000
  free_energy:        61.2683002
  entropy:            32.3437231
  heat_capacity:      48.3374590
  energy:             74.5292267

- temperature:       420.0000000
  free_energy:        60.9389686
  entropy:            33.5225441
  heat_capacity:      49.5004399
  energy:             75.0184371

- temperature:       430.0000000
  free_energy:        60.5978516
  entropy:            34.7006983
  heat_capacity:      50.6383186
  energy:             75.5191518

- temperature:       440.0000000
  free_energy:        60.2449587
  entropy:            35.8776386
  heat_capacity:      51.7510533
  energy:             76.0311196

- temperature:       450.0000000
  free_energy:        59.8803045
  entropy:            37.0528546
  heat_capacity:      52.8386601
  energy:             76.5540891

- temperature:       460.0000000
  free_energy:        59.5039089
  entropy:            38.2258705
  heat_capacity:      53.9012109
  energy:             77.0878093

- temperature:       470.0000000
  free_energy:        59.1157960
  entropy:            39.3962431
  heat_capacity:      54.9388300
  energy:             77.6320302

- temperature:       480.0000000
  free_energy:        58.7159942
  entropy:            40.5635607
  heat_capacity:      55.9516905
  energy:             78.1865034

- temperature:       490.0000000
  free_energy:        58.3045362
  entropy:            41.7274409
  heat_capacity:      56.9400106
  energy:             78.7509822

- temperature:       500.0000000
  free_energy:        57.8814580
  entropy:            42.8875292
  heat_capacity:      57.9040499
  energy:             79.3252226

- temperature:       510.0000000
  free_energy:        57.4467994
  entropy:            44.0434979
  heat_capacity:      58.8441049
  energy:             79.9089833

- temperature:       520.0000000
  free_energy:        57.0006028
  entropy:            45.1950443
  heat_capacity:      59.7605054
  energy:             80.5020259

- temperature:       530.0000000
  free_energy:        56.5429141
  entropy:            46.3418898
  heat_capacity:      60.6536103
  energy:             81.1041157

- temperature:       540.0000000
  free_energy:        56.0737816
  entropy:            47.4837781
  heat_capacity:      61.5238041
  energy:             81.7150217

- temperature:       550.0000000
  free_energy:        55.5932559
  entropy:            48.6204744
  heat_capacity:      62.3714931
  energy:             82.3345168

- temperature:       560.0000000
  free_energy:        55.1013901
  entropy:            49.7517641
  heat_capacity:      63.1971021
  energy:             82.9623780

- temperature:       570.0000000
  free_energy:        54.5982393
  entropy:            50.8774516
  heat_capacity:      64.0010713
  energy:             83.5983867

- temperature:       580.0000000
  free_energy:        54.0838603
  entropy:            51.9973594
  heat_capacity:      64.7838530
  energy:             84.2423288

- temperature:       590.0000000
  free_energy:        53.5583119
  entropy:            53.1113268
  heat_capacity:      65.5459093
  energy:             84.8939947

- temperature:       600.0000000
  free_energy:        53.0216541
  entropy:            54.2192089
  heat_capacity:      66.2877092
  energy:             85.5531795

- temperature:       610.0000000
  free_energy:        52.4739484
  entropy:            55.3208762
  heat_capacity:      67.0097267
  energy:             86.2196829

- temperature:       620.0000000
  free_energy:        51.9152577
  entropy:            56.4162128
  heat_capacity:      67.7124383
  energy:             86.8933096

- temperature:       630.0000000
  free_energy:        51.3456456
  entropy:            57.5051164
  heat_capacity:      68.3963217
  energy:             87.5738689

- temperature:       640.0000000
  free_energy:        50.7651771
  entropy:            58.5874966
  heat_capacity:      69.0618536
  energy:             88.2611749

- temperature:       650.0000000
  free_energy:        50.1739177
  entropy:            59.6632749
  heat_capacity:      69.7095086
  energy:             88.9550464

- temperature:       660.0000000
  free_energy:        49.5719338
  entropy:            60.7323837
  heat_capacity:      70.3397576
  energy:             89.6553070

- temperature:       670.0000000
  free_energy:        48.9592924
  entropy:            61.7947651
  heat_capacity:      70.9530671
  energy:             90.3617851

- temperature:       680.0000000
  free_energy:        48.3360611
  entropy:            62.8503711
  heat_capacity:      71.5498977
  energy:             91.0743135

- temperature:       690.0000000
  free_energy:        47.7023077
  entropy:            63.8991622
  heat_capacity:      72.1307038
  energy:             91.7927296

- temperature:       700.0000000
  free_energy:        47.0581007
  entropy:            64.9411070
  heat_capacity:      72.6959321
  energy:             92.5168756

- temperature:       710.0000000
  free_energy:        46.4035085
  entropy:            65.9761821
  heat_capacity:      73.2460220
  energy:             93.2465978

- temperature:       720.0000000
  free_energy:        45.7386000
  entropy:            67.0043709
  heat_capacity:      73.7814041
  energy:             93.9817470

- temperature:       730.0000000
  free_energy:        45.0634441
  entropy:            68.0256633
  heat_capacity:      74.3025006
  energy:             94.7221783

- temperature:       740.0000000
  free_energy:        44.3781097
  entropy:            69.0400555
  heat_capacity:      74.8097244
  energy:             95.4677508

- temperature:       750.0000000
  free_energy:        43.6826660
  entropy:            70.0475492
  heat_capacity:      75.3034790
  energy:             96.2183279

- temperature:       760.0000000
  free_energy:        42.9771817
  entropy:            71.0481514
  heat_capacity:      75.7841585
  energy:             96.9737768

- temperature:       770.0000000
  free_energy:        42.2617259
  entropy:            72.0418739
  heat_capacity:      76.2521473
  energy:             97.7339687

- temperature:       780.0000000
  free_energy:        41.5363671
  entropy:            73.0287328
  heat_capacity:      76.7078199
  energy:             98.4987787

- temperature:       790.0000000
  free_energy:        40.8011740
  entropy:            74.0087485
  heat_capacity:      77.1515412
  energy:             99.2680853

- temperature:       800.0000000
  free_energy:        40.0562149
  entropy:            74.9819450
  heat_capacity:      77.5836663
  energy:            100.0417709

- temperature:       810.0000000
  free_energy:        39.3015578
  entropy:            75.9483498
  heat_capacity:      78.0045403
  energy:            100.8197211

- temperature:       820.0000000
  free_energy:        38.5372704
  entropy:            76.9079937
  heat_capacity:      78.4144989
  energy:            101.6018253

- temperature:       830.0000000
  free_energy:        37.7634203
  entropy:            77.8609102
  heat_capacity:      78.8138681
  energy:            102.3879758

- temperature:       840.0000000
  free_energy:        36.9800745
  entropy:            78.8071356
  heat_capacity:      79.2029645
  energy:            103.1780684

- temperature:       850.0000000
  free_energy:        36.1872998
  entropy:            79.7467084
  heat_capacity:      79.5820954
  energy:            103.9720019

- temperature:       860.0000000
  free_energy:        35.3851624
  entropy:            80.6796694
  heat_capacity:      79.9515590
  energy:            104.7696781

- temperature:       870.0000000
  free_energy:        34.5737283
  entropy:            81.6060615
  heat_capacity:      80.3116443
  energy:            105.5710018

- temperature:       880.0000000
  free_energy:        33.7530629
  entropy:            82.5259292
  heat_capacity:      80.6626316
  energy:            106.3758806

- temperature:       890.0000000
  free_energy:        32.9232313
  entropy:            83.4393188
  heat_capacity:      81.0047929
  energy:            107.1842250

- temperature:       900.0000000
  free_energy:        32.0842980
  entropy:            84.3462778
  heat_capacity:      81.3383912
  energy:            107.9959480

- temperature:       910.0000000
  free_energy:        31.2363270
  entropy:            85.2468551
  heat_capacity:      81.6636818
  energy:            108.8109651

- temperature:       920.0000000
  free_energy:        30.3793820
  entropy:            86.1411008
  heat_capacity:      81.9809118
  energy:            109.6291947

- temperature:       930.0000000
  free_energy:        29.5135259
  entropy:            87.0290660
  heat_capacity:      82.2903204
  energy:            110.4505573

- temperature:       940.0000000
  free_energy:        28.6388214
  entropy:            87.9108026
  heat_capacity:      82.5921394
  energy:            111.2749758

- temperature:       950.0000000
  free_energy:        27.7553305
  entropy:            88.7863633
  heat_capacity:      82.8865932
  energy:            112.1023755

- temperature:       960.0000000
  free_energy:        26.8631146
  entropy:            89.6558014
  heat_capacity:      83.1738988
  energy:            112.9326839

- temperature:       970.0000000
  free_energy:        25.9622347
  entropy:            90.5191709
  heat_capacity:      83.4542666
  energy:            113.7658304

- temperature:       980.0000000
  free_energy:        25.0527512
  entropy:            91.3765261
  heat_capacity:      83.7278999
  energy:            114.6017468

- temperature:       990.0000000
  free_energy:        24.1347240
  entropy:            92.2279218
  heat_capacity:      83.9949958
  energy:            115.4403666

- temperature:      1000.0000000
  free_energy:        23.2082124
  entropy:            93.0734131
  heat_capacity:      84.2557448
  energy:            116.2816255
