<?xml version="1.0" encoding="ISO-8859-1"?>
<modeling>
 <generator>
  <i name="program" type="string">vasp </i>
  <i name="version" type="string">5.3.5  </i>
  <i name="subversion" type="string">31Mar14 (build Nov 02 2014 15:17:37) complex                          parallel </i>
  <i name="platform" type="string">ion-Intel-MKL </i>
  <i name="date" type="string">2016 10 18 </i>
  <i name="time" type="string">10:59:58 </i>
 </generator>
 <incar>
  <i type="string" name="SYSTEM">graphite</i>
  <i type="string" name="PREC">accurate</i>
  <i type="int" name="NELM">   200</i>
  <i type="int" name="IBRION">     2</i>
  <i name="EDIFF">      0.00000001</i>
  <i name="EDIFFG">      0.00100000</i>
  <i type="int" name="NSW">   200</i>
  <i type="int" name="ISIF">     2</i>
  <i name="ENCUT">    800.00000000</i>
  <i type="int" name="ISMEAR">    -5</i>
  <i type="logical" name="LWAVE"> F  </i>
  <i type="logical" name="LCHARG"> F  </i>
  <i type="int" name="NELM">   200</i>
  <i type="string" name="GGA">PE</i>
 </incar>
 <kpoints>
  <generation param="Gamma">
   <v type="int" name="divisions">      12       12        8 </v>
   <v name="usershift">      0.00000000       0.00000000       0.00000000 </v>
   <v name="genvec1">      0.08333333      -0.00000000       0.00000000 </v>
   <v name="genvec2">      0.00000000       0.08333333       0.00000000 </v>
   <v name="genvec3">      0.00000000       0.00000000       0.12500000 </v>
   <v name="shift">      0.00000000       0.00000000       0.00000000 </v>
  </generation>
  <varray name="kpointlist" >
   <v>       0.00000000       0.00000000       0.00000000 </v>
   <v>       0.08333333       0.00000000       0.00000000 </v>
   <v>       0.16666667       0.00000000       0.00000000 </v>
   <v>       0.25000000       0.00000000       0.00000000 </v>
   <v>       0.33333333       0.00000000       0.00000000 </v>
   <v>       0.41666667       0.00000000       0.00000000 </v>
   <v>       0.50000000       0.00000000       0.00000000 </v>
   <v>       0.08333333       0.08333333       0.00000000 </v>
   <v>       0.16666667       0.08333333       0.00000000 </v>
   <v>       0.25000000       0.08333333       0.00000000 </v>
   <v>       0.33333333       0.08333333       0.00000000 </v>
   <v>       0.41666667       0.08333333       0.00000000 </v>
   <v>       0.50000000       0.08333333       0.00000000 </v>
   <v>      -0.41666667       0.08333333       0.00000000 </v>
   <v>      -0.33333333       0.08333333       0.00000000 </v>
   <v>      -0.25000000       0.08333333       0.00000000 </v>
   <v>      -0.16666667       0.08333333       0.00000000 </v>
   <v>      -0.08333333       0.08333333       0.00000000 </v>
   <v>       0.16666667       0.16666667       0.00000000 </v>
   <v>       0.25000000       0.16666667       0.00000000 </v>
   <v>       0.33333333       0.16666667       0.00000000 </v>
   <v>       0.41666667       0.16666667       0.00000000 </v>
   <v>       0.50000000       0.16666667       0.00000000 </v>
   <v>      -0.41666667       0.16666667       0.00000000 </v>
   <v>      -0.33333333       0.16666667       0.00000000 </v>
   <v>      -0.25000000       0.16666667       0.00000000 </v>
   <v>      -0.16666667       0.16666667       0.00000000 </v>
   <v>       0.25000000       0.25000000       0.00000000 </v>
   <v>       0.33333333       0.25000000       0.00000000 </v>
   <v>       0.41666667       0.25000000       0.00000000 </v>
   <v>       0.50000000       0.25000000       0.00000000 </v>
   <v>      -0.41666667       0.25000000       0.00000000 </v>
   <v>      -0.33333333       0.25000000       0.00000000 </v>
   <v>      -0.25000000       0.25000000       0.00000000 </v>
   <v>       0.33333333       0.33333333       0.00000000 </v>
   <v>       0.41666667       0.33333333       0.00000000 </v>
   <v>       0.50000000       0.33333333       0.00000000 </v>
   <v>      -0.41666667       0.33333333       0.00000000 </v>
   <v>      -0.33333333       0.33333333       0.00000000 </v>
   <v>       0.41666667       0.41666667       0.00000000 </v>
   <v>       0.50000000       0.41666667       0.00000000 </v>
   <v>      -0.41666667       0.41666667       0.00000000 </v>
   <v>       0.50000000       0.50000000       0.00000000 </v>
   <v>       0.00000000       0.00000000       0.12500000 </v>
   <v>       0.08333333       0.00000000       0.12500000 </v>
   <v>       0.16666667       0.00000000       0.12500000 </v>
   <v>       0.25000000       0.00000000       0.12500000 </v>
   <v>       0.33333333       0.00000000       0.12500000 </v>
   <v>       0.41666667       0.00000000       0.12500000 </v>
   <v>       0.50000000       0.00000000       0.12500000 </v>
   <v>       0.08333333       0.08333333       0.12500000 </v>
   <v>       0.16666667       0.08333333       0.12500000 </v>
   <v>       0.25000000       0.08333333       0.12500000 </v>
   <v>       0.33333333       0.08333333       0.12500000 </v>
   <v>       0.41666667       0.08333333       0.12500000 </v>
   <v>       0.50000000       0.08333333       0.12500000 </v>
   <v>      -0.41666667       0.08333333       0.12500000 </v>
   <v>      -0.33333333       0.08333333       0.12500000 </v>
   <v>      -0.25000000       0.08333333       0.12500000 </v>
   <v>      -0.16666667       0.08333333       0.12500000 </v>
   <v>      -0.08333333       0.08333333       0.12500000 </v>
   <v>       0.16666667       0.16666667       0.12500000 </v>
   <v>       0.25000000       0.16666667       0.12500000 </v>
   <v>       0.33333333       0.16666667       0.12500000 </v>
   <v>       0.41666667       0.16666667       0.12500000 </v>
   <v>       0.50000000       0.16666667       0.12500000 </v>
   <v>      -0.41666667       0.16666667       0.12500000 </v>
   <v>      -0.33333333       0.16666667       0.12500000 </v>
   <v>      -0.25000000       0.16666667       0.12500000 </v>
   <v>      -0.16666667       0.16666667       0.12500000 </v>
   <v>       0.25000000       0.25000000       0.12500000 </v>
   <v>       0.33333333       0.25000000       0.12500000 </v>
   <v>       0.41666667       0.25000000       0.12500000 </v>
   <v>       0.50000000       0.25000000       0.12500000 </v>
   <v>      -0.41666667       0.25000000       0.12500000 </v>
   <v>      -0.33333333       0.25000000       0.12500000 </v>
   <v>      -0.25000000       0.25000000       0.12500000 </v>
   <v>       0.33333333       0.33333333       0.12500000 </v>
   <v>       0.41666667       0.33333333       0.12500000 </v>
   <v>       0.50000000       0.33333333       0.12500000 </v>
   <v>      -0.41666667       0.33333333       0.12500000 </v>
   <v>      -0.33333333       0.33333333       0.12500000 </v>
   <v>       0.41666667       0.41666667       0.12500000 </v>
   <v>       0.50000000       0.41666667       0.12500000 </v>
   <v>      -0.41666667       0.41666667       0.12500000 </v>
   <v>       0.50000000       0.50000000       0.12500000 </v>
   <v>       0.00000000       0.00000000       0.25000000 </v>
   <v>       0.08333333       0.00000000       0.25000000 </v>
   <v>       0.16666667       0.00000000       0.25000000 </v>
   <v>       0.25000000       0.00000000       0.25000000 </v>
   <v>       0.33333333       0.00000000       0.25000000 </v>
   <v>       0.41666667       0.00000000       0.25000000 </v>
   <v>       0.50000000       0.00000000       0.25000000 </v>
   <v>       0.08333333       0.08333333       0.25000000 </v>
   <v>       0.16666667       0.08333333       0.25000000 </v>
   <v>       0.25000000       0.08333333       0.25000000 </v>
   <v>       0.33333333       0.08333333       0.25000000 </v>
   <v>       0.41666667       0.08333333       0.25000000 </v>
   <v>       0.50000000       0.08333333       0.25000000 </v>
   <v>      -0.41666667       0.08333333       0.25000000 </v>
   <v>      -0.33333333       0.08333333       0.25000000 </v>
   <v>      -0.25000000       0.08333333       0.25000000 </v>
   <v>      -0.16666667       0.08333333       0.25000000 </v>
   <v>      -0.08333333       0.08333333       0.25000000 </v>
   <v>       0.16666667       0.16666667       0.25000000 </v>
   <v>       0.25000000       0.16666667       0.25000000 </v>
   <v>       0.33333333       0.16666667       0.25000000 </v>
   <v>       0.41666667       0.16666667       0.25000000 </v>
   <v>       0.50000000       0.16666667       0.25000000 </v>
   <v>      -0.41666667       0.16666667       0.25000000 </v>
   <v>      -0.33333333       0.16666667       0.25000000 </v>
   <v>      -0.25000000       0.16666667       0.25000000 </v>
   <v>      -0.16666667       0.16666667       0.25000000 </v>
   <v>       0.25000000       0.25000000       0.25000000 </v>
   <v>       0.33333333       0.25000000       0.25000000 </v>
   <v>       0.41666667       0.25000000       0.25000000 </v>
   <v>       0.50000000       0.25000000       0.25000000 </v>
   <v>      -0.41666667       0.25000000       0.25000000 </v>
   <v>      -0.33333333       0.25000000       0.25000000 </v>
   <v>      -0.25000000       0.25000000       0.25000000 </v>
   <v>       0.33333333       0.33333333       0.25000000 </v>
   <v>       0.41666667       0.33333333       0.25000000 </v>
   <v>       0.50000000       0.33333333       0.25000000 </v>
   <v>      -0.41666667       0.33333333       0.25000000 </v>
   <v>      -0.33333333       0.33333333       0.25000000 </v>
   <v>       0.41666667       0.41666667       0.25000000 </v>
   <v>       0.50000000       0.41666667       0.25000000 </v>
   <v>      -0.41666667       0.41666667       0.25000000 </v>
   <v>       0.50000000       0.50000000       0.25000000 </v>
   <v>       0.00000000       0.00000000       0.37500000 </v>
   <v>       0.08333333       0.00000000       0.37500000 </v>
   <v>       0.16666667       0.00000000       0.37500000 </v>
   <v>       0.25000000       0.00000000       0.37500000 </v>
   <v>       0.33333333       0.00000000       0.37500000 </v>
   <v>       0.41666667       0.00000000       0.37500000 </v>
   <v>       0.50000000       0.00000000       0.37500000 </v>
   <v>       0.08333333       0.08333333       0.37500000 </v>
   <v>       0.16666667       0.08333333       0.37500000 </v>
   <v>       0.25000000       0.08333333       0.37500000 </v>
   <v>       0.33333333       0.08333333       0.37500000 </v>
   <v>       0.41666667       0.08333333       0.37500000 </v>
   <v>       0.50000000       0.08333333       0.37500000 </v>
   <v>      -0.41666667       0.08333333       0.37500000 </v>
   <v>      -0.33333333       0.08333333       0.37500000 </v>
   <v>      -0.25000000       0.08333333       0.37500000 </v>
   <v>      -0.16666667       0.08333333       0.37500000 </v>
   <v>      -0.08333333       0.08333333       0.37500000 </v>
   <v>       0.16666667       0.16666667       0.37500000 </v>
   <v>       0.25000000       0.16666667       0.37500000 </v>
   <v>       0.33333333       0.16666667       0.37500000 </v>
   <v>       0.41666667       0.16666667       0.37500000 </v>
   <v>       0.50000000       0.16666667       0.37500000 </v>
   <v>      -0.41666667       0.16666667       0.37500000 </v>
   <v>      -0.33333333       0.16666667       0.37500000 </v>
   <v>      -0.25000000       0.16666667       0.37500000 </v>
   <v>      -0.16666667       0.16666667       0.37500000 </v>
   <v>       0.25000000       0.25000000       0.37500000 </v>
   <v>       0.33333333       0.25000000       0.37500000 </v>
   <v>       0.41666667       0.25000000       0.37500000 </v>
   <v>       0.50000000       0.25000000       0.37500000 </v>
   <v>      -0.41666667       0.25000000       0.37500000 </v>
   <v>      -0.33333333       0.25000000       0.37500000 </v>
   <v>      -0.25000000       0.25000000       0.37500000 </v>
   <v>       0.33333333       0.33333333       0.37500000 </v>
   <v>       0.41666667       0.33333333       0.37500000 </v>
   <v>       0.50000000       0.33333333       0.37500000 </v>
   <v>      -0.41666667       0.33333333       0.37500000 </v>
   <v>      -0.33333333       0.33333333       0.37500000 </v>
   <v>       0.41666667       0.41666667       0.37500000 </v>
   <v>       0.50000000       0.41666667       0.37500000 </v>
   <v>      -0.41666667       0.41666667       0.37500000 </v>
   <v>       0.50000000       0.50000000       0.37500000 </v>
   <v>       0.00000000       0.00000000       0.50000000 </v>
   <v>       0.08333333       0.00000000       0.50000000 </v>
   <v>       0.16666667       0.00000000       0.50000000 </v>
   <v>       0.25000000       0.00000000       0.50000000 </v>
   <v>       0.33333333       0.00000000       0.50000000 </v>
   <v>       0.41666667       0.00000000       0.50000000 </v>
   <v>       0.50000000       0.00000000       0.50000000 </v>
   <v>       0.08333333       0.08333333       0.50000000 </v>
   <v>       0.16666667       0.08333333       0.50000000 </v>
   <v>       0.25000000       0.08333333       0.50000000 </v>
   <v>       0.33333333       0.08333333       0.50000000 </v>
   <v>       0.41666667       0.08333333       0.50000000 </v>
   <v>       0.50000000       0.08333333       0.50000000 </v>
   <v>      -0.41666667       0.08333333       0.50000000 </v>
   <v>      -0.33333333       0.08333333       0.50000000 </v>
   <v>      -0.25000000       0.08333333       0.50000000 </v>
   <v>      -0.16666667       0.08333333       0.50000000 </v>
   <v>      -0.08333333       0.08333333       0.50000000 </v>
   <v>       0.16666667       0.16666667       0.50000000 </v>
   <v>       0.25000000       0.16666667       0.50000000 </v>
   <v>       0.33333333       0.16666667       0.50000000 </v>
   <v>       0.41666667       0.16666667       0.50000000 </v>
   <v>       0.50000000       0.16666667       0.50000000 </v>
   <v>      -0.41666667       0.16666667       0.50000000 </v>
   <v>      -0.33333333       0.16666667       0.50000000 </v>
   <v>      -0.25000000       0.16666667       0.50000000 </v>
   <v>      -0.16666667       0.16666667       0.50000000 </v>
   <v>       0.25000000       0.25000000       0.50000000 </v>
   <v>       0.33333333       0.25000000       0.50000000 </v>
   <v>       0.41666667       0.25000000       0.50000000 </v>
   <v>       0.50000000       0.25000000       0.50000000 </v>
   <v>      -0.41666667       0.25000000       0.50000000 </v>
   <v>      -0.33333333       0.25000000       0.50000000 </v>
   <v>      -0.25000000       0.25000000       0.50000000 </v>
   <v>       0.33333333       0.33333333       0.50000000 </v>
   <v>       0.41666667       0.33333333       0.50000000 </v>
   <v>       0.50000000       0.33333333       0.50000000 </v>
   <v>      -0.41666667       0.33333333       0.50000000 </v>
   <v>      -0.33333333       0.33333333       0.50000000 </v>
   <v>       0.41666667       0.41666667       0.50000000 </v>
   <v>       0.50000000       0.41666667       0.50000000 </v>
   <v>      -0.41666667       0.41666667       0.50000000 </v>
   <v>       0.50000000       0.50000000       0.50000000 </v>
  </varray>
  <varray name="weights" >
   <v>       0.00086806 </v>
   <v>       0.00347222 </v>
   <v>       0.00347222 </v>
   <v>       0.00347222 </v>
   <v>       0.00347222 </v>
   <v>       0.00347222 </v>
   <v>       0.00173611 </v>
   <v>       0.00173611 </v>
   <v>       0.00347222 </v>
   <v>       0.00347222 </v>
   <v>       0.00347222 </v>
   <v>       0.00347222 </v>
   <v>       0.00347222 </v>
   <v>       0.00347222 </v>
   <v>       0.00347222 </v>
   <v>       0.00347222 </v>
   <v>       0.00347222 </v>
   <v>       0.00173611 </v>
   <v>       0.00173611 </v>
   <v>       0.00347222 </v>
   <v>       0.00347222 </v>
   <v>       0.00347222 </v>
   <v>       0.00347222 </v>
   <v>       0.00347222 </v>
   <v>       0.00347222 </v>
   <v>       0.00347222 </v>
   <v>       0.00173611 </v>
   <v>       0.00173611 </v>
   <v>       0.00347222 </v>
   <v>       0.00347222 </v>
   <v>       0.00347222 </v>
   <v>       0.00347222 </v>
   <v>       0.00347222 </v>
   <v>       0.00173611 </v>
   <v>       0.00173611 </v>
   <v>       0.00347222 </v>
   <v>       0.00347222 </v>
   <v>       0.00347222 </v>
   <v>       0.00173611 </v>
   <v>       0.00173611 </v>
   <v>       0.00347222 </v>
   <v>       0.00173611 </v>
   <v>       0.00086806 </v>
   <v>       0.00173611 </v>
   <v>       0.00694444 </v>
   <v>       0.00694444 </v>
   <v>       0.00694444 </v>
   <v>       0.00694444 </v>
   <v>       0.00694444 </v>
   <v>       0.00347222 </v>
   <v>       0.00347222 </v>
   <v>       0.00694444 </v>
   <v>       0.00694444 </v>
   <v>       0.00694444 </v>
   <v>       0.00694444 </v>
   <v>       0.00694444 </v>
   <v>       0.00694444 </v>
   <v>       0.00694444 </v>
   <v>       0.00694444 </v>
   <v>       0.00694444 </v>
   <v>       0.00347222 </v>
   <v>       0.00347222 </v>
   <v>       0.00694444 </v>
   <v>       0.00694444 </v>
   <v>       0.00694444 </v>
   <v>       0.00694444 </v>
   <v>       0.00694444 </v>
   <v>       0.00694444 </v>
   <v>       0.00694444 </v>
   <v>       0.00347222 </v>
   <v>       0.00347222 </v>
   <v>       0.00694444 </v>
   <v>       0.00694444 </v>
   <v>       0.00694444 </v>
   <v>       0.00694444 </v>
   <v>       0.00694444 </v>
   <v>       0.00347222 </v>
   <v>       0.00347222 </v>
   <v>       0.00694444 </v>
   <v>       0.00694444 </v>
   <v>       0.00694444 </v>
   <v>       0.00347222 </v>
   <v>       0.00347222 </v>
   <v>       0.00694444 </v>
   <v>       0.00347222 </v>
   <v>       0.00173611 </v>
   <v>       0.00173611 </v>
   <v>       0.00694444 </v>
   <v>       0.00694444 </v>
   <v>       0.00694444 </v>
   <v>       0.00694444 </v>
   <v>       0.00694444 </v>
   <v>       0.00347222 </v>
   <v>       0.00347222 </v>
   <v>       0.00694444 </v>
   <v>       0.00694444 </v>
   <v>       0.00694444 </v>
   <v>       0.00694444 </v>
   <v>       0.00694444 </v>
   <v>       0.00694444 </v>
   <v>       0.00694444 </v>
   <v>       0.00694444 </v>
   <v>       0.00694444 </v>
   <v>       0.00347222 </v>
   <v>       0.00347222 </v>
   <v>       0.00694444 </v>
   <v>       0.00694444 </v>
   <v>       0.00694444 </v>
   <v>       0.00694444 </v>
   <v>       0.00694444 </v>
   <v>       0.00694444 </v>
   <v>       0.00694444 </v>
   <v>       0.00347222 </v>
   <v>       0.00347222 </v>
   <v>       0.00694444 </v>
   <v>       0.00694444 </v>
   <v>       0.00694444 </v>
   <v>       0.00694444 </v>
   <v>       0.00694444 </v>
   <v>       0.00347222 </v>
   <v>       0.00347222 </v>
   <v>       0.00694444 </v>
   <v>       0.00694444 </v>
   <v>       0.00694444 </v>
   <v>       0.00347222 </v>
   <v>       0.00347222 </v>
   <v>       0.00694444 </v>
   <v>       0.00347222 </v>
   <v>       0.00173611 </v>
   <v>       0.00173611 </v>
   <v>       0.00694444 </v>
   <v>       0.00694444 </v>
   <v>       0.00694444 </v>
   <v>       0.00694444 </v>
   <v>       0.00694444 </v>
   <v>       0.00347222 </v>
   <v>       0.00347222 </v>
   <v>       0.00694444 </v>
   <v>       0.00694444 </v>
   <v>       0.00694444 </v>
   <v>       0.00694444 </v>
   <v>       0.00694444 </v>
   <v>       0.00694444 </v>
   <v>       0.00694444 </v>
   <v>       0.00694444 </v>
   <v>       0.00694444 </v>
   <v>       0.00347222 </v>
   <v>       0.00347222 </v>
   <v>       0.00694444 </v>
   <v>       0.00694444 </v>
   <v>       0.00694444 </v>
   <v>       0.00694444 </v>
   <v>       0.00694444 </v>
   <v>       0.00694444 </v>
   <v>       0.00694444 </v>
   <v>       0.00347222 </v>
   <v>       0.00347222 </v>
   <v>       0.00694444 </v>
   <v>       0.00694444 </v>
   <v>       0.00694444 </v>
   <v>       0.00694444 </v>
   <v>       0.00694444 </v>
   <v>       0.00347222 </v>
   <v>       0.00347222 </v>
   <v>       0.00694444 </v>
   <v>       0.00694444 </v>
   <v>       0.00694444 </v>
   <v>       0.00347222 </v>
   <v>       0.00347222 </v>
   <v>       0.00694444 </v>
   <v>       0.00347222 </v>
   <v>       0.00173611 </v>
   <v>       0.00086806 </v>
   <v>       0.00347222 </v>
   <v>       0.00347222 </v>
   <v>       0.00347222 </v>
   <v>       0.00347222 </v>
   <v>       0.00347222 </v>
   <v>       0.00173611 </v>
   <v>       0.00173611 </v>
   <v>       0.00347222 </v>
   <v>       0.00347222 </v>
   <v>       0.00347222 </v>
   <v>       0.00347222 </v>
   <v>       0.00347222 </v>
   <v>       0.00347222 </v>
   <v>       0.00347222 </v>
   <v>       0.00347222 </v>
   <v>       0.00347222 </v>
   <v>       0.00173611 </v>
   <v>       0.00173611 </v>
   <v>       0.00347222 </v>
   <v>       0.00347222 </v>
   <v>       0.00347222 </v>
   <v>       0.00347222 </v>
   <v>       0.00347222 </v>
   <v>       0.00347222 </v>
   <v>       0.00347222 </v>
   <v>       0.00173611 </v>
   <v>       0.00173611 </v>
   <v>       0.00347222 </v>
   <v>       0.00347222 </v>
   <v>       0.00347222 </v>
   <v>       0.00347222 </v>
   <v>       0.00347222 </v>
   <v>       0.00173611 </v>
   <v>       0.00173611 </v>
   <v>       0.00347222 </v>
   <v>       0.00347222 </v>
   <v>       0.00347222 </v>
   <v>       0.00173611 </v>
   <v>       0.00173611 </v>
   <v>       0.00347222 </v>
   <v>       0.00173611 </v>
   <v>       0.00086806 </v>
  </varray>
  <varray name="tetrahedronlist"  type="int" >
   <v type="int" >        4        2        2        8       45 </v>
   <v type="int" >        4        1        2        2       45 </v>
   <v type="int" >        4        1        2       44       45 </v>
   <v type="int" >        4        2        8       45       51 </v>
   <v type="int" >        4        2       45       45       51 </v>
   <v type="int" >        4        2       44       45       45 </v>
   <v type="int" >        4        3        8        9       51 </v>
   <v type="int" >        4        2        3        8       51 </v>
   <v type="int" >        4        2        3       45       51 </v>
   <v type="int" >        4        3        9       51       52 </v>
   <v type="int" >        4        3       46       51       52 </v>
   <v type="int" >        4        3       45       46       51 </v>
   <v type="int" >        4        4        9       10       52 </v>
   <v type="int" >        4        3        4        9       52 </v>
   <v type="int" >        4        3        4       46       52 </v>
   <v type="int" >        4        4       10       52       53 </v>
   <v type="int" >        4        4       47       52       53 </v>
   <v type="int" >        4        4       46       47       52 </v>
   <v type="int" >        4        5       10       11       53 </v>
   <v type="int" >        4        4        5       10       53 </v>
   <v type="int" >        4        4        5       47       53 </v>
   <v type="int" >        4        5       11       53       54 </v>
   <v type="int" >        4        5       48       53       54 </v>
   <v type="int" >        4        5       47       48       53 </v>
   <v type="int" >        4        6       11       12       54 </v>
   <v type="int" >        4        5        6       11       54 </v>
   <v type="int" >        4        5        6       48       54 </v>
   <v type="int" >        4        6       12       54       55 </v>
   <v type="int" >        4        6       49       54       55 </v>
   <v type="int" >        4        6       48       49       54 </v>
   <v type="int" >        4        7       12       13       55 </v>
   <v type="int" >        4        6        7       12       55 </v>
   <v type="int" >        4        6        7       49       55 </v>
   <v type="int" >        4        7       13       55       56 </v>
   <v type="int" >        4        7       50       55       56 </v>
   <v type="int" >        4        7       49       50       55 </v>
   <v type="int" >        4        6       13       14       56 </v>
   <v type="int" >        4        6        7       13       56 </v>
   <v type="int" >        4        6        7       50       56 </v>
   <v type="int" >        4        6       14       56       57 </v>
   <v type="int" >        4        6       49       56       57 </v>
   <v type="int" >        4        6       49       50       56 </v>
   <v type="int" >        4        5       14       15       57 </v>
   <v type="int" >        4        5        6       14       57 </v>
   <v type="int" >        4        5        6       49       57 </v>
   <v type="int" >        4        5       15       57       58 </v>
   <v type="int" >        4        5       48       57       58 </v>
   <v type="int" >        4        5       48       49       57 </v>
   <v type="int" >        4        4       15       16       58 </v>
   <v type="int" >        4        4        5       15       58 </v>
   <v type="int" >        4        4        5       48       58 </v>
   <v type="int" >        4        4       16       58       59 </v>
   <v type="int" >        4        4       47       58       59 </v>
   <v type="int" >        4        4       47       48       58 </v>
   <v type="int" >        4        3       16       17       59 </v>
   <v type="int" >        4        3        4       16       59 </v>
   <v type="int" >        4        3        4       47       59 </v>
   <v type="int" >        4        3       17       59       60 </v>
   <v type="int" >        4        3       46       59       60 </v>
   <v type="int" >        4        3       46       47       59 </v>
   <v type="int" >        4        2       17       18       60 </v>
   <v type="int" >        4        2        3       17       60 </v>
   <v type="int" >        4        2        3       46       60 </v>
   <v type="int" >        4        2       18       60       61 </v>
   <v type="int" >        4        2       45       60       61 </v>
   <v type="int" >        4        2       45       46       60 </v>
   <v type="int" >        4        1        2       18       61 </v>
   <v type="int" >        4        1        2       45       61 </v>
   <v type="int" >        4        1       44       45       61 </v>
   <v type="int" >        4        3        8        9       46 </v>
   <v type="int" >        4        2        3        8       46 </v>
   <v type="int" >        4        2        8       45       46 </v>
   <v type="int" >        4        8        9       46       52 </v>
   <v type="int" >        4        8       46       51       52 </v>
   <v type="int" >        4        8       45       46       51 </v>
   <v type="int" >        4        9        9       19       52 </v>
   <v type="int" >        4        8        9        9       52 </v>
   <v type="int" >        4        8        9       51       52 </v>
   <v type="int" >        4        9       19       52       62 </v>
   <v type="int" >        4        9       52       52       62 </v>
   <v type="int" >        4        9       51       52       52 </v>
   <v type="int" >        4       10       19       20       62 </v>
   <v type="int" >        4        9       10       19       62 </v>
   <v type="int" >        4        9       10       52       62 </v>
   <v type="int" >        4       10       20       62       63 </v>
   <v type="int" >        4       10       53       62       63 </v>
   <v type="int" >        4       10       52       53       62 </v>
   <v type="int" >        4       11       20       21       63 </v>
   <v type="int" >        4       10       11       20       63 </v>
   <v type="int" >        4       10       11       53       63 </v>
   <v type="int" >        4       11       21       63       64 </v>
   <v type="int" >        4       11       54       63       64 </v>
   <v type="int" >        4       11       53       54       63 </v>
   <v type="int" >        4       12       21       22       64 </v>
   <v type="int" >        4       11       12       21       64 </v>
   <v type="int" >        4       11       12       54       64 </v>
   <v type="int" >        4       12       22       64       65 </v>
   <v type="int" >        4       12       55       64       65 </v>
   <v type="int" >        4       12       54       55       64 </v>
   <v type="int" >        4       13       22       23       65 </v>
   <v type="int" >        4       12       13       22       65 </v>
   <v type="int" >        4       12       13       55       65 </v>
   <v type="int" >        4       13       23       65       66 </v>
   <v type="int" >        4       13       56       65       66 </v>
   <v type="int" >        4       13       55       56       65 </v>
   <v type="int" >        4       14       23       24       66 </v>
   <v type="int" >        4       13       14       23       66 </v>
   <v type="int" >        4       13       14       56       66 </v>
   <v type="int" >        4       14       24       66       67 </v>
   <v type="int" >        4       14       57       66       67 </v>
   <v type="int" >        4       14       56       57       66 </v>
   <v type="int" >        4       15       24       25       67 </v>
   <v type="int" >        4       14       15       24       67 </v>
   <v type="int" >        4       14       15       57       67 </v>
   <v type="int" >        4       15       25       67       68 </v>
   <v type="int" >        4       15       58       67       68 </v>
   <v type="int" >        4       15       57       58       67 </v>
   <v type="int" >        4       16       25       26       68 </v>
   <v type="int" >        4       15       16       25       68 </v>
   <v type="int" >        4       15       16       58       68 </v>
   <v type="int" >        4       16       26       68       69 </v>
   <v type="int" >        4       16       59       68       69 </v>
   <v type="int" >        4       16       58       59       68 </v>
   <v type="int" >        4       17       26       27       69 </v>
   <v type="int" >        4       16       17       26       69 </v>
   <v type="int" >        4       16       17       59       69 </v>
   <v type="int" >        4       17       27       69       70 </v>
   <v type="int" >        4       17       60       69       70 </v>
   <v type="int" >        4       17       59       60       69 </v>
   <v type="int" >        4       17       18       27       70 </v>
   <v type="int" >        4       17       18       60       70 </v>
   <v type="int" >        4       18       60       61       70 </v>
   <v type="int" >        4        4        9       10       47 </v>
   <v type="int" >        4        3        4        9       47 </v>
   <v type="int" >        4        3        9       46       47 </v>
   <v type="int" >        4        9       10       47       53 </v>
   <v type="int" >        4        9       47       52       53 </v>
   <v type="int" >        4        9       46       47       52 </v>
   <v type="int" >        4       10       19       20       53 </v>
   <v type="int" >        4        9       10       19       53 </v>
   <v type="int" >        4        9       19       52       53 </v>
   <v type="int" >        4       19       20       53       63 </v>
   <v type="int" >        4       19       53       62       63 </v>
   <v type="int" >        4       19       52       53       62 </v>
   <v type="int" >        4       20       20       28       63 </v>
   <v type="int" >        4       19       20       20       63 </v>
   <v type="int" >        4       19       20       62       63 </v>
   <v type="int" >        4       20       28       63       71 </v>
   <v type="int" >        4       20       63       63       71 </v>
   <v type="int" >        4       20       62       63       63 </v>
   <v type="int" >        4       21       28       29       71 </v>
   <v type="int" >        4       20       21       28       71 </v>
   <v type="int" >        4       20       21       63       71 </v>
   <v type="int" >        4       21       29       71       72 </v>
   <v type="int" >        4       21       64       71       72 </v>
   <v type="int" >        4       21       63       64       71 </v>
   <v type="int" >        4       22       29       30       72 </v>
   <v type="int" >        4       21       22       29       72 </v>
   <v type="int" >        4       21       22       64       72 </v>
   <v type="int" >        4       22       30       72       73 </v>
   <v type="int" >        4       22       65       72       73 </v>
   <v type="int" >        4       22       64       65       72 </v>
   <v type="int" >        4       23       30       31       73 </v>
   <v type="int" >        4       22       23       30       73 </v>
   <v type="int" >        4       22       23       65       73 </v>
   <v type="int" >        4       23       31       73       74 </v>
   <v type="int" >        4       23       66       73       74 </v>
   <v type="int" >        4       23       65       66       73 </v>
   <v type="int" >        4       24       31       32       74 </v>
   <v type="int" >        4       23       24       31       74 </v>
   <v type="int" >        4       23       24       66       74 </v>
   <v type="int" >        4       24       32       74       75 </v>
   <v type="int" >        4       24       67       74       75 </v>
   <v type="int" >        4       24       66       67       74 </v>
   <v type="int" >        4       25       32       33       75 </v>
   <v type="int" >        4       24       25       32       75 </v>
   <v type="int" >        4       24       25       67       75 </v>
   <v type="int" >        4       25       33       75       76 </v>
   <v type="int" >        4       25       68       75       76 </v>
   <v type="int" >        4       25       67       68       75 </v>
   <v type="int" >        4       26       33       34       76 </v>
   <v type="int" >        4       25       26       33       76 </v>
   <v type="int" >        4       25       26       68       76 </v>
   <v type="int" >        4       26       34       76       77 </v>
   <v type="int" >        4       26       69       76       77 </v>
   <v type="int" >        4       26       68       69       76 </v>
   <v type="int" >        4       26       27       34       77 </v>
   <v type="int" >        4       26       27       69       77 </v>
   <v type="int" >        4       27       69       70       77 </v>
   <v type="int" >        4        5       10       11       48 </v>
   <v type="int" >        4        4        5       10       48 </v>
   <v type="int" >        4        4       10       47       48 </v>
   <v type="int" >        4       10       11       48       54 </v>
   <v type="int" >        4       10       48       53       54 </v>
   <v type="int" >        4       10       47       48       53 </v>
   <v type="int" >        4       11       20       21       54 </v>
   <v type="int" >        4       10       11       20       54 </v>
   <v type="int" >        4       10       20       53       54 </v>
   <v type="int" >        4       20       21       54       64 </v>
   <v type="int" >        4       20       54       63       64 </v>
   <v type="int" >        4       20       53       54       63 </v>
   <v type="int" >        4       21       28       29       64 </v>
   <v type="int" >        4       20       21       28       64 </v>
   <v type="int" >        4       20       28       63       64 </v>
   <v type="int" >        4       28       29       64       72 </v>
   <v type="int" >        4       28       64       71       72 </v>
   <v type="int" >        4       28       63       64       71 </v>
   <v type="int" >        4       29       29       35       72 </v>
   <v type="int" >        4       28       29       29       72 </v>
   <v type="int" >        4       28       29       71       72 </v>
   <v type="int" >        4       29       35       72       78 </v>
   <v type="int" >        4       29       72       72       78 </v>
   <v type="int" >        4       29       71       72       72 </v>
   <v type="int" >        4       30       35       36       78 </v>
   <v type="int" >        4       29       30       35       78 </v>
   <v type="int" >        4       29       30       72       78 </v>
   <v type="int" >        4       30       36       78       79 </v>
   <v type="int" >        4       30       73       78       79 </v>
   <v type="int" >        4       30       72       73       78 </v>
   <v type="int" >        4       31       36       37       79 </v>
   <v type="int" >        4       30       31       36       79 </v>
   <v type="int" >        4       30       31       73       79 </v>
   <v type="int" >        4       31       37       79       80 </v>
   <v type="int" >        4       31       74       79       80 </v>
   <v type="int" >        4       31       73       74       79 </v>
   <v type="int" >        4       32       37       38       80 </v>
   <v type="int" >        4       31       32       37       80 </v>
   <v type="int" >        4       31       32       74       80 </v>
   <v type="int" >        4       32       38       80       81 </v>
   <v type="int" >        4       32       75       80       81 </v>
   <v type="int" >        4       32       74       75       80 </v>
   <v type="int" >        4       33       38       39       81 </v>
   <v type="int" >        4       32       33       38       81 </v>
   <v type="int" >        4       32       33       75       81 </v>
   <v type="int" >        4       33       39       81       82 </v>
   <v type="int" >        4       33       76       81       82 </v>
   <v type="int" >        4       33       75       76       81 </v>
   <v type="int" >        4       33       34       39       82 </v>
   <v type="int" >        4       33       34       76       82 </v>
   <v type="int" >        4       34       76       77       82 </v>
   <v type="int" >        4        6       11       12       49 </v>
   <v type="int" >        4        5        6       11       49 </v>
   <v type="int" >        4        5       11       48       49 </v>
   <v type="int" >        4       11       12       49       55 </v>
   <v type="int" >        4       11       49       54       55 </v>
   <v type="int" >        4       11       48       49       54 </v>
   <v type="int" >        4       12       21       22       55 </v>
   <v type="int" >        4       11       12       21       55 </v>
   <v type="int" >        4       11       21       54       55 </v>
   <v type="int" >        4       21       22       55       65 </v>
   <v type="int" >        4       21       55       64       65 </v>
   <v type="int" >        4       21       54       55       64 </v>
   <v type="int" >        4       22       29       30       65 </v>
   <v type="int" >        4       21       22       29       65 </v>
   <v type="int" >        4       21       29       64       65 </v>
   <v type="int" >        4       29       30       65       73 </v>
   <v type="int" >        4       29       65       72       73 </v>
   <v type="int" >        4       29       64       65       72 </v>
   <v type="int" >        4       30       35       36       73 </v>
   <v type="int" >        4       29       30       35       73 </v>
   <v type="int" >        4       29       35       72       73 </v>
   <v type="int" >        4       35       36       73       79 </v>
   <v type="int" >        4       35       73       78       79 </v>
   <v type="int" >        4       35       72       73       78 </v>
   <v type="int" >        4       36       36       40       79 </v>
   <v type="int" >        4       35       36       36       79 </v>
   <v type="int" >        4       35       36       78       79 </v>
   <v type="int" >        4       36       40       79       83 </v>
   <v type="int" >        4       36       79       79       83 </v>
   <v type="int" >        4       36       78       79       79 </v>
   <v type="int" >        4       37       40       41       83 </v>
   <v type="int" >        4       36       37       40       83 </v>
   <v type="int" >        4       36       37       79       83 </v>
   <v type="int" >        4       37       41       83       84 </v>
   <v type="int" >        4       37       80       83       84 </v>
   <v type="int" >        4       37       79       80       83 </v>
   <v type="int" >        4       38       41       42       84 </v>
   <v type="int" >        4       37       38       41       84 </v>
   <v type="int" >        4       37       38       80       84 </v>
   <v type="int" >        4       38       42       84       85 </v>
   <v type="int" >        4       38       81       84       85 </v>
   <v type="int" >        4       38       80       81       84 </v>
   <v type="int" >        4       38       39       42       85 </v>
   <v type="int" >        4       38       39       81       85 </v>
   <v type="int" >        4       39       81       82       85 </v>
   <v type="int" >        4        7       12       13       50 </v>
   <v type="int" >        4        6        7       12       50 </v>
   <v type="int" >        4        6       12       49       50 </v>
   <v type="int" >        4       12       13       50       56 </v>
   <v type="int" >        4       12       50       55       56 </v>
   <v type="int" >        4       12       49       50       55 </v>
   <v type="int" >        4       13       22       23       56 </v>
   <v type="int" >        4       12       13       22       56 </v>
   <v type="int" >        4       12       22       55       56 </v>
   <v type="int" >        4       22       23       56       66 </v>
   <v type="int" >        4       22       56       65       66 </v>
   <v type="int" >        4       22       55       56       65 </v>
   <v type="int" >        4       23       30       31       66 </v>
   <v type="int" >        4       22       23       30       66 </v>
   <v type="int" >        4       22       30       65       66 </v>
   <v type="int" >        4       30       31       66       74 </v>
   <v type="int" >        4       30       66       73       74 </v>
   <v type="int" >        4       30       65       66       73 </v>
   <v type="int" >        4       31       36       37       74 </v>
   <v type="int" >        4       30       31       36       74 </v>
   <v type="int" >        4       30       36       73       74 </v>
   <v type="int" >        4       36       37       74       80 </v>
   <v type="int" >        4       36       74       79       80 </v>
   <v type="int" >        4       36       73       74       79 </v>
   <v type="int" >        4       37       40       41       80 </v>
   <v type="int" >        4       36       37       40       80 </v>
   <v type="int" >        4       36       40       79       80 </v>
   <v type="int" >        4       40       41       80       84 </v>
   <v type="int" >        4       40       80       83       84 </v>
   <v type="int" >        4       40       79       80       83 </v>
   <v type="int" >        4       41       41       43       84 </v>
   <v type="int" >        4       40       41       41       84 </v>
   <v type="int" >        4       40       41       83       84 </v>
   <v type="int" >        4       41       43       84       86 </v>
   <v type="int" >        4       41       84       84       86 </v>
   <v type="int" >        4       41       83       84       84 </v>
   <v type="int" >        4       41       42       43       86 </v>
   <v type="int" >        4       41       42       84       86 </v>
   <v type="int" >        4       42       84       85       86 </v>
   <v type="int" >        4        6       13       14       49 </v>
   <v type="int" >        4        6        7       13       49 </v>
   <v type="int" >        4        7       13       49       50 </v>
   <v type="int" >        4       13       14       49       57 </v>
   <v type="int" >        4       13       49       56       57 </v>
   <v type="int" >        4       13       49       50       56 </v>
   <v type="int" >        4       14       23       24       57 </v>
   <v type="int" >        4       13       14       23       57 </v>
   <v type="int" >        4       13       23       56       57 </v>
   <v type="int" >        4       23       24       57       67 </v>
   <v type="int" >        4       23       57       66       67 </v>
   <v type="int" >        4       23       56       57       66 </v>
   <v type="int" >        4       24       31       32       67 </v>
   <v type="int" >        4       23       24       31       67 </v>
   <v type="int" >        4       23       31       66       67 </v>
   <v type="int" >        4       31       32       67       75 </v>
   <v type="int" >        4       31       67       74       75 </v>
   <v type="int" >        4       31       66       67       74 </v>
   <v type="int" >        4       32       37       38       75 </v>
   <v type="int" >        4       31       32       37       75 </v>
   <v type="int" >        4       31       37       74       75 </v>
   <v type="int" >        4       37       38       75       81 </v>
   <v type="int" >        4       37       75       80       81 </v>
   <v type="int" >        4       37       74       75       80 </v>
   <v type="int" >        4       38       41       42       81 </v>
   <v type="int" >        4       37       38       41       81 </v>
   <v type="int" >        4       37       41       80       81 </v>
   <v type="int" >        4       41       42       81       85 </v>
   <v type="int" >        4       41       81       84       85 </v>
   <v type="int" >        4       41       80       81       84 </v>
   <v type="int" >        4       41       42       43       85 </v>
   <v type="int" >        4       41       43       84       85 </v>
   <v type="int" >        4       43       84       85       86 </v>
   <v type="int" >        4        5       14       15       48 </v>
   <v type="int" >        4        5        6       14       48 </v>
   <v type="int" >        4        6       14       48       49 </v>
   <v type="int" >        4       14       15       48       58 </v>
   <v type="int" >        4       14       48       57       58 </v>
   <v type="int" >        4       14       48       49       57 </v>
   <v type="int" >        4       15       24       25       58 </v>
   <v type="int" >        4       14       15       24       58 </v>
   <v type="int" >        4       14       24       57       58 </v>
   <v type="int" >        4       24       25       58       68 </v>
   <v type="int" >        4       24       58       67       68 </v>
   <v type="int" >        4       24       57       58       67 </v>
   <v type="int" >        4       25       32       33       68 </v>
   <v type="int" >        4       24       25       32       68 </v>
   <v type="int" >        4       24       32       67       68 </v>
   <v type="int" >        4       32       33       68       76 </v>
   <v type="int" >        4       32       68       75       76 </v>
   <v type="int" >        4       32       67       68       75 </v>
   <v type="int" >        4       33       38       39       76 </v>
   <v type="int" >        4       32       33       38       76 </v>
   <v type="int" >        4       32       38       75       76 </v>
   <v type="int" >        4       38       39       76       82 </v>
   <v type="int" >        4       38       76       81       82 </v>
   <v type="int" >        4       38       75       76       81 </v>
   <v type="int" >        4       38       39       42       82 </v>
   <v type="int" >        4       38       42       81       82 </v>
   <v type="int" >        4       42       81       82       85 </v>
   <v type="int" >        4        4       15       16       47 </v>
   <v type="int" >        4        4        5       15       47 </v>
   <v type="int" >        4        5       15       47       48 </v>
   <v type="int" >        4       15       16       47       59 </v>
   <v type="int" >        4       15       47       58       59 </v>
   <v type="int" >        4       15       47       48       58 </v>
   <v type="int" >        4       16       25       26       59 </v>
   <v type="int" >        4       15       16       25       59 </v>
   <v type="int" >        4       15       25       58       59 </v>
   <v type="int" >        4       25       26       59       69 </v>
   <v type="int" >        4       25       59       68       69 </v>
   <v type="int" >        4       25       58       59       68 </v>
   <v type="int" >        4       26       33       34       69 </v>
   <v type="int" >        4       25       26       33       69 </v>
   <v type="int" >        4       25       33       68       69 </v>
   <v type="int" >        4       33       34       69       77 </v>
   <v type="int" >        4       33       69       76       77 </v>
   <v type="int" >        4       33       68       69       76 </v>
   <v type="int" >        4       33       34       39       77 </v>
   <v type="int" >        4       33       39       76       77 </v>
   <v type="int" >        4       39       76       77       82 </v>
   <v type="int" >        4        3       16       17       46 </v>
   <v type="int" >        4        3        4       16       46 </v>
   <v type="int" >        4        4       16       46       47 </v>
   <v type="int" >        4       16       17       46       60 </v>
   <v type="int" >        4       16       46       59       60 </v>
   <v type="int" >        4       16       46       47       59 </v>
   <v type="int" >        4       17       26       27       60 </v>
   <v type="int" >        4       16       17       26       60 </v>
   <v type="int" >        4       16       26       59       60 </v>
   <v type="int" >        4       26       27       60       70 </v>
   <v type="int" >        4       26       60       69       70 </v>
   <v type="int" >        4       26       59       60       69 </v>
   <v type="int" >        4       26       27       34       70 </v>
   <v type="int" >        4       26       34       69       70 </v>
   <v type="int" >        4       34       69       70       77 </v>
   <v type="int" >        4        2       17       18       45 </v>
   <v type="int" >        4        2        3       17       45 </v>
   <v type="int" >        4        3       17       45       46 </v>
   <v type="int" >        4       17       18       45       61 </v>
   <v type="int" >        4       17       45       60       61 </v>
   <v type="int" >        4       17       45       46       60 </v>
   <v type="int" >        4       17       18       27       61 </v>
   <v type="int" >        4       17       27       60       61 </v>
   <v type="int" >        4       27       60       61       70 </v>
   <v type="int" >        4        1        2       18       44 </v>
   <v type="int" >        4        2       18       44       45 </v>
   <v type="int" >        4       18       44       45       61 </v>
   <v type="int" >        4       45       45       51       88 </v>
   <v type="int" >        4       44       45       45       88 </v>
   <v type="int" >        4       44       45       87       88 </v>
   <v type="int" >        4       45       51       88       94 </v>
   <v type="int" >        4       45       88       88       94 </v>
   <v type="int" >        4       45       87       88       88 </v>
   <v type="int" >        4       46       51       52       94 </v>
   <v type="int" >        4       45       46       51       94 </v>
   <v type="int" >        4       45       46       88       94 </v>
   <v type="int" >        4       46       52       94       95 </v>
   <v type="int" >        4       46       89       94       95 </v>
   <v type="int" >        4       46       88       89       94 </v>
   <v type="int" >        4       47       52       53       95 </v>
   <v type="int" >        4       46       47       52       95 </v>
   <v type="int" >        4       46       47       89       95 </v>
   <v type="int" >        4       47       53       95       96 </v>
   <v type="int" >        4       47       90       95       96 </v>
   <v type="int" >        4       47       89       90       95 </v>
   <v type="int" >        4       48       53       54       96 </v>
   <v type="int" >        4       47       48       53       96 </v>
   <v type="int" >        4       47       48       90       96 </v>
   <v type="int" >        4       48       54       96       97 </v>
   <v type="int" >        4       48       91       96       97 </v>
   <v type="int" >        4       48       90       91       96 </v>
   <v type="int" >        4       49       54       55       97 </v>
   <v type="int" >        4       48       49       54       97 </v>
   <v type="int" >        4       48       49       91       97 </v>
   <v type="int" >        4       49       55       97       98 </v>
   <v type="int" >        4       49       92       97       98 </v>
   <v type="int" >        4       49       91       92       97 </v>
   <v type="int" >        4       50       55       56       98 </v>
   <v type="int" >        4       49       50       55       98 </v>
   <v type="int" >        4       49       50       92       98 </v>
   <v type="int" >        4       50       56       98       99 </v>
   <v type="int" >        4       50       93       98       99 </v>
   <v type="int" >        4       50       92       93       98 </v>
   <v type="int" >        4       49       56       57       99 </v>
   <v type="int" >        4       49       50       56       99 </v>
   <v type="int" >        4       49       50       93       99 </v>
   <v type="int" >        4       49       57       99      100 </v>
   <v type="int" >        4       49       92       99      100 </v>
   <v type="int" >        4       49       92       93       99 </v>
   <v type="int" >        4       48       57       58      100 </v>
   <v type="int" >        4       48       49       57      100 </v>
   <v type="int" >        4       48       49       92      100 </v>
   <v type="int" >        4       48       58      100      101 </v>
   <v type="int" >        4       48       91      100      101 </v>
   <v type="int" >        4       48       91       92      100 </v>
   <v type="int" >        4       47       58       59      101 </v>
   <v type="int" >        4       47       48       58      101 </v>
   <v type="int" >        4       47       48       91      101 </v>
   <v type="int" >        4       47       59      101      102 </v>
   <v type="int" >        4       47       90      101      102 </v>
   <v type="int" >        4       47       90       91      101 </v>
   <v type="int" >        4       46       59       60      102 </v>
   <v type="int" >        4       46       47       59      102 </v>
   <v type="int" >        4       46       47       90      102 </v>
   <v type="int" >        4       46       60      102      103 </v>
   <v type="int" >        4       46       89      102      103 </v>
   <v type="int" >        4       46       89       90      102 </v>
   <v type="int" >        4       45       60       61      103 </v>
   <v type="int" >        4       45       46       60      103 </v>
   <v type="int" >        4       45       46       89      103 </v>
   <v type="int" >        4       45       61      103      104 </v>
   <v type="int" >        4       45       88      103      104 </v>
   <v type="int" >        4       45       88       89      103 </v>
   <v type="int" >        4       44       45       61      104 </v>
   <v type="int" >        4       44       45       88      104 </v>
   <v type="int" >        4       44       87       88      104 </v>
   <v type="int" >        4       46       51       52       89 </v>
   <v type="int" >        4       45       46       51       89 </v>
   <v type="int" >        4       45       51       88       89 </v>
   <v type="int" >        4       51       52       89       95 </v>
   <v type="int" >        4       51       89       94       95 </v>
   <v type="int" >        4       51       88       89       94 </v>
   <v type="int" >        4       52       52       62       95 </v>
   <v type="int" >        4       51       52       52       95 </v>
   <v type="int" >        4       51       52       94       95 </v>
   <v type="int" >        4       52       62       95      105 </v>
   <v type="int" >        4       52       95       95      105 </v>
   <v type="int" >        4       52       94       95       95 </v>
   <v type="int" >        4       53       62       63      105 </v>
   <v type="int" >        4       52       53       62      105 </v>
   <v type="int" >        4       52       53       95      105 </v>
   <v type="int" >        4       53       63      105      106 </v>
   <v type="int" >        4       53       96      105      106 </v>
   <v type="int" >        4       53       95       96      105 </v>
   <v type="int" >        4       54       63       64      106 </v>
   <v type="int" >        4       53       54       63      106 </v>
   <v type="int" >        4       53       54       96      106 </v>
   <v type="int" >        4       54       64      106      107 </v>
   <v type="int" >        4       54       97      106      107 </v>
   <v type="int" >        4       54       96       97      106 </v>
   <v type="int" >        4       55       64       65      107 </v>
   <v type="int" >        4       54       55       64      107 </v>
   <v type="int" >        4       54       55       97      107 </v>
   <v type="int" >        4       55       65      107      108 </v>
   <v type="int" >        4       55       98      107      108 </v>
   <v type="int" >        4       55       97       98      107 </v>
   <v type="int" >        4       56       65       66      108 </v>
   <v type="int" >        4       55       56       65      108 </v>
   <v type="int" >        4       55       56       98      108 </v>
   <v type="int" >        4       56       66      108      109 </v>
   <v type="int" >        4       56       99      108      109 </v>
   <v type="int" >        4       56       98       99      108 </v>
   <v type="int" >        4       57       66       67      109 </v>
   <v type="int" >        4       56       57       66      109 </v>
   <v type="int" >        4       56       57       99      109 </v>
   <v type="int" >        4       57       67      109      110 </v>
   <v type="int" >        4       57      100      109      110 </v>
   <v type="int" >        4       57       99      100      109 </v>
   <v type="int" >        4       58       67       68      110 </v>
   <v type="int" >        4       57       58       67      110 </v>
   <v type="int" >        4       57       58      100      110 </v>
   <v type="int" >        4       58       68      110      111 </v>
   <v type="int" >        4       58      101      110      111 </v>
   <v type="int" >        4       58      100      101      110 </v>
   <v type="int" >        4       59       68       69      111 </v>
   <v type="int" >        4       58       59       68      111 </v>
   <v type="int" >        4       58       59      101      111 </v>
   <v type="int" >        4       59       69      111      112 </v>
   <v type="int" >        4       59      102      111      112 </v>
   <v type="int" >        4       59      101      102      111 </v>
   <v type="int" >        4       60       69       70      112 </v>
   <v type="int" >        4       59       60       69      112 </v>
   <v type="int" >        4       59       60      102      112 </v>
   <v type="int" >        4       60       70      112      113 </v>
   <v type="int" >        4       60      103      112      113 </v>
   <v type="int" >        4       60      102      103      112 </v>
   <v type="int" >        4       60       61       70      113 </v>
   <v type="int" >        4       60       61      103      113 </v>
   <v type="int" >        4       61      103      104      113 </v>
   <v type="int" >        4       47       52       53       90 </v>
   <v type="int" >        4       46       47       52       90 </v>
   <v type="int" >        4       46       52       89       90 </v>
   <v type="int" >        4       52       53       90       96 </v>
   <v type="int" >        4       52       90       95       96 </v>
   <v type="int" >        4       52       89       90       95 </v>
   <v type="int" >        4       53       62       63       96 </v>
   <v type="int" >        4       52       53       62       96 </v>
   <v type="int" >        4       52       62       95       96 </v>
   <v type="int" >        4       62       63       96      106 </v>
   <v type="int" >        4       62       96      105      106 </v>
   <v type="int" >        4       62       95       96      105 </v>
   <v type="int" >        4       63       63       71      106 </v>
   <v type="int" >        4       62       63       63      106 </v>
   <v type="int" >        4       62       63      105      106 </v>
   <v type="int" >        4       63       71      106      114 </v>
   <v type="int" >        4       63      106      106      114 </v>
   <v type="int" >        4       63      105      106      106 </v>
   <v type="int" >        4       64       71       72      114 </v>
   <v type="int" >        4       63       64       71      114 </v>
   <v type="int" >        4       63       64      106      114 </v>
   <v type="int" >        4       64       72      114      115 </v>
   <v type="int" >        4       64      107      114      115 </v>
   <v type="int" >        4       64      106      107      114 </v>
   <v type="int" >        4       65       72       73      115 </v>
   <v type="int" >        4       64       65       72      115 </v>
   <v type="int" >        4       64       65      107      115 </v>
   <v type="int" >        4       65       73      115      116 </v>
   <v type="int" >        4       65      108      115      116 </v>
   <v type="int" >        4       65      107      108      115 </v>
   <v type="int" >        4       66       73       74      116 </v>
   <v type="int" >        4       65       66       73      116 </v>
   <v type="int" >        4       65       66      108      116 </v>
   <v type="int" >        4       66       74      116      117 </v>
   <v type="int" >        4       66      109      116      117 </v>
   <v type="int" >        4       66      108      109      116 </v>
   <v type="int" >        4       67       74       75      117 </v>
   <v type="int" >        4       66       67       74      117 </v>
   <v type="int" >        4       66       67      109      117 </v>
   <v type="int" >        4       67       75      117      118 </v>
   <v type="int" >        4       67      110      117      118 </v>
   <v type="int" >        4       67      109      110      117 </v>
   <v type="int" >        4       68       75       76      118 </v>
   <v type="int" >        4       67       68       75      118 </v>
   <v type="int" >        4       67       68      110      118 </v>
   <v type="int" >        4       68       76      118      119 </v>
   <v type="int" >        4       68      111      118      119 </v>
   <v type="int" >        4       68      110      111      118 </v>
   <v type="int" >        4       69       76       77      119 </v>
   <v type="int" >        4       68       69       76      119 </v>
   <v type="int" >        4       68       69      111      119 </v>
   <v type="int" >        4       69       77      119      120 </v>
   <v type="int" >        4       69      112      119      120 </v>
   <v type="int" >        4       69      111      112      119 </v>
   <v type="int" >        4       69       70       77      120 </v>
   <v type="int" >        4       69       70      112      120 </v>
   <v type="int" >        4       70      112      113      120 </v>
   <v type="int" >        4       48       53       54       91 </v>
   <v type="int" >        4       47       48       53       91 </v>
   <v type="int" >        4       47       53       90       91 </v>
   <v type="int" >        4       53       54       91       97 </v>
   <v type="int" >        4       53       91       96       97 </v>
   <v type="int" >        4       53       90       91       96 </v>
   <v type="int" >        4       54       63       64       97 </v>
   <v type="int" >        4       53       54       63       97 </v>
   <v type="int" >        4       53       63       96       97 </v>
   <v type="int" >        4       63       64       97      107 </v>
   <v type="int" >        4       63       97      106      107 </v>
   <v type="int" >        4       63       96       97      106 </v>
   <v type="int" >        4       64       71       72      107 </v>
   <v type="int" >        4       63       64       71      107 </v>
   <v type="int" >        4       63       71      106      107 </v>
   <v type="int" >        4       71       72      107      115 </v>
   <v type="int" >        4       71      107      114      115 </v>
   <v type="int" >        4       71      106      107      114 </v>
   <v type="int" >        4       72       72       78      115 </v>
   <v type="int" >        4       71       72       72      115 </v>
   <v type="int" >        4       71       72      114      115 </v>
   <v type="int" >        4       72       78      115      121 </v>
   <v type="int" >        4       72      115      115      121 </v>
   <v type="int" >        4       72      114      115      115 </v>
   <v type="int" >        4       73       78       79      121 </v>
   <v type="int" >        4       72       73       78      121 </v>
   <v type="int" >        4       72       73      115      121 </v>
   <v type="int" >        4       73       79      121      122 </v>
   <v type="int" >        4       73      116      121      122 </v>
   <v type="int" >        4       73      115      116      121 </v>
   <v type="int" >        4       74       79       80      122 </v>
   <v type="int" >        4       73       74       79      122 </v>
   <v type="int" >        4       73       74      116      122 </v>
   <v type="int" >        4       74       80      122      123 </v>
   <v type="int" >        4       74      117      122      123 </v>
   <v type="int" >        4       74      116      117      122 </v>
   <v type="int" >        4       75       80       81      123 </v>
   <v type="int" >        4       74       75       80      123 </v>
   <v type="int" >        4       74       75      117      123 </v>
   <v type="int" >        4       75       81      123      124 </v>
   <v type="int" >        4       75      118      123      124 </v>
   <v type="int" >        4       75      117      118      123 </v>
   <v type="int" >        4       76       81       82      124 </v>
   <v type="int" >        4       75       76       81      124 </v>
   <v type="int" >        4       75       76      118      124 </v>
   <v type="int" >        4       76       82      124      125 </v>
   <v type="int" >        4       76      119      124      125 </v>
   <v type="int" >        4       76      118      119      124 </v>
   <v type="int" >        4       76       77       82      125 </v>
   <v type="int" >        4       76       77      119      125 </v>
   <v type="int" >        4       77      119      120      125 </v>
   <v type="int" >        4       49       54       55       92 </v>
   <v type="int" >        4       48       49       54       92 </v>
   <v type="int" >        4       48       54       91       92 </v>
   <v type="int" >        4       54       55       92       98 </v>
   <v type="int" >        4       54       92       97       98 </v>
   <v type="int" >        4       54       91       92       97 </v>
   <v type="int" >        4       55       64       65       98 </v>
   <v type="int" >        4       54       55       64       98 </v>
   <v type="int" >        4       54       64       97       98 </v>
   <v type="int" >        4       64       65       98      108 </v>
   <v type="int" >        4       64       98      107      108 </v>
   <v type="int" >        4       64       97       98      107 </v>
   <v type="int" >        4       65       72       73      108 </v>
   <v type="int" >        4       64       65       72      108 </v>
   <v type="int" >        4       64       72      107      108 </v>
   <v type="int" >        4       72       73      108      116 </v>
   <v type="int" >        4       72      108      115      116 </v>
   <v type="int" >        4       72      107      108      115 </v>
   <v type="int" >        4       73       78       79      116 </v>
   <v type="int" >        4       72       73       78      116 </v>
   <v type="int" >        4       72       78      115      116 </v>
   <v type="int" >        4       78       79      116      122 </v>
   <v type="int" >        4       78      116      121      122 </v>
   <v type="int" >        4       78      115      116      121 </v>
   <v type="int" >        4       79       79       83      122 </v>
   <v type="int" >        4       78       79       79      122 </v>
   <v type="int" >        4       78       79      121      122 </v>
   <v type="int" >        4       79       83      122      126 </v>
   <v type="int" >        4       79      122      122      126 </v>
   <v type="int" >        4       79      121      122      122 </v>
   <v type="int" >        4       80       83       84      126 </v>
   <v type="int" >        4       79       80       83      126 </v>
   <v type="int" >        4       79       80      122      126 </v>
   <v type="int" >        4       80       84      126      127 </v>
   <v type="int" >        4       80      123      126      127 </v>
   <v type="int" >        4       80      122      123      126 </v>
   <v type="int" >        4       81       84       85      127 </v>
   <v type="int" >        4       80       81       84      127 </v>
   <v type="int" >        4       80       81      123      127 </v>
   <v type="int" >        4       81       85      127      128 </v>
   <v type="int" >        4       81      124      127      128 </v>
   <v type="int" >        4       81      123      124      127 </v>
   <v type="int" >        4       81       82       85      128 </v>
   <v type="int" >        4       81       82      124      128 </v>
   <v type="int" >        4       82      124      125      128 </v>
   <v type="int" >        4       50       55       56       93 </v>
   <v type="int" >        4       49       50       55       93 </v>
   <v type="int" >        4       49       55       92       93 </v>
   <v type="int" >        4       55       56       93       99 </v>
   <v type="int" >        4       55       93       98       99 </v>
   <v type="int" >        4       55       92       93       98 </v>
   <v type="int" >        4       56       65       66       99 </v>
   <v type="int" >        4       55       56       65       99 </v>
   <v type="int" >        4       55       65       98       99 </v>
   <v type="int" >        4       65       66       99      109 </v>
   <v type="int" >        4       65       99      108      109 </v>
   <v type="int" >        4       65       98       99      108 </v>
   <v type="int" >        4       66       73       74      109 </v>
   <v type="int" >        4       65       66       73      109 </v>
   <v type="int" >        4       65       73      108      109 </v>
   <v type="int" >        4       73       74      109      117 </v>
   <v type="int" >        4       73      109      116      117 </v>
   <v type="int" >        4       73      108      109      116 </v>
   <v type="int" >        4       74       79       80      117 </v>
   <v type="int" >        4       73       74       79      117 </v>
   <v type="int" >        4       73       79      116      117 </v>
   <v type="int" >        4       79       80      117      123 </v>
   <v type="int" >        4       79      117      122      123 </v>
   <v type="int" >        4       79      116      117      122 </v>
   <v type="int" >        4       80       83       84      123 </v>
   <v type="int" >        4       79       80       83      123 </v>
   <v type="int" >        4       79       83      122      123 </v>
   <v type="int" >        4       83       84      123      127 </v>
   <v type="int" >        4       83      123      126      127 </v>
   <v type="int" >        4       83      122      123      126 </v>
   <v type="int" >        4       84       84       86      127 </v>
   <v type="int" >        4       83       84       84      127 </v>
   <v type="int" >        4       83       84      126      127 </v>
   <v type="int" >        4       84       86      127      129 </v>
   <v type="int" >        4       84      127      127      129 </v>
   <v type="int" >        4       84      126      127      127 </v>
   <v type="int" >        4       84       85       86      129 </v>
   <v type="int" >        4       84       85      127      129 </v>
   <v type="int" >        4       85      127      128      129 </v>
   <v type="int" >        4       49       56       57       92 </v>
   <v type="int" >        4       49       50       56       92 </v>
   <v type="int" >        4       50       56       92       93 </v>
   <v type="int" >        4       56       57       92      100 </v>
   <v type="int" >        4       56       92       99      100 </v>
   <v type="int" >        4       56       92       93       99 </v>
   <v type="int" >        4       57       66       67      100 </v>
   <v type="int" >        4       56       57       66      100 </v>
   <v type="int" >        4       56       66       99      100 </v>
   <v type="int" >        4       66       67      100      110 </v>
   <v type="int" >        4       66      100      109      110 </v>
   <v type="int" >        4       66       99      100      109 </v>
   <v type="int" >        4       67       74       75      110 </v>
   <v type="int" >        4       66       67       74      110 </v>
   <v type="int" >        4       66       74      109      110 </v>
   <v type="int" >        4       74       75      110      118 </v>
   <v type="int" >        4       74      110      117      118 </v>
   <v type="int" >        4       74      109      110      117 </v>
   <v type="int" >        4       75       80       81      118 </v>
   <v type="int" >        4       74       75       80      118 </v>
   <v type="int" >        4       74       80      117      118 </v>
   <v type="int" >        4       80       81      118      124 </v>
   <v type="int" >        4       80      118      123      124 </v>
   <v type="int" >        4       80      117      118      123 </v>
   <v type="int" >        4       81       84       85      124 </v>
   <v type="int" >        4       80       81       84      124 </v>
   <v type="int" >        4       80       84      123      124 </v>
   <v type="int" >        4       84       85      124      128 </v>
   <v type="int" >        4       84      124      127      128 </v>
   <v type="int" >        4       84      123      124      127 </v>
   <v type="int" >        4       84       85       86      128 </v>
   <v type="int" >        4       84       86      127      128 </v>
   <v type="int" >        4       86      127      128      129 </v>
   <v type="int" >        4       48       57       58       91 </v>
   <v type="int" >        4       48       49       57       91 </v>
   <v type="int" >        4       49       57       91       92 </v>
   <v type="int" >        4       57       58       91      101 </v>
   <v type="int" >        4       57       91      100      101 </v>
   <v type="int" >        4       57       91       92      100 </v>
   <v type="int" >        4       58       67       68      101 </v>
   <v type="int" >        4       57       58       67      101 </v>
   <v type="int" >        4       57       67      100      101 </v>
   <v type="int" >        4       67       68      101      111 </v>
   <v type="int" >        4       67      101      110      111 </v>
   <v type="int" >        4       67      100      101      110 </v>
   <v type="int" >        4       68       75       76      111 </v>
   <v type="int" >        4       67       68       75      111 </v>
   <v type="int" >        4       67       75      110      111 </v>
   <v type="int" >        4       75       76      111      119 </v>
   <v type="int" >        4       75      111      118      119 </v>
   <v type="int" >        4       75      110      111      118 </v>
   <v type="int" >        4       76       81       82      119 </v>
   <v type="int" >        4       75       76       81      119 </v>
   <v type="int" >        4       75       81      118      119 </v>
   <v type="int" >        4       81       82      119      125 </v>
   <v type="int" >        4       81      119      124      125 </v>
   <v type="int" >        4       81      118      119      124 </v>
   <v type="int" >        4       81       82       85      125 </v>
   <v type="int" >        4       81       85      124      125 </v>
   <v type="int" >        4       85      124      125      128 </v>
   <v type="int" >        4       47       58       59       90 </v>
   <v type="int" >        4       47       48       58       90 </v>
   <v type="int" >        4       48       58       90       91 </v>
   <v type="int" >        4       58       59       90      102 </v>
   <v type="int" >        4       58       90      101      102 </v>
   <v type="int" >        4       58       90       91      101 </v>
   <v type="int" >        4       59       68       69      102 </v>
   <v type="int" >        4       58       59       68      102 </v>
   <v type="int" >        4       58       68      101      102 </v>
   <v type="int" >        4       68       69      102      112 </v>
   <v type="int" >        4       68      102      111      112 </v>
   <v type="int" >        4       68      101      102      111 </v>
   <v type="int" >        4       69       76       77      112 </v>
   <v type="int" >        4       68       69       76      112 </v>
   <v type="int" >        4       68       76      111      112 </v>
   <v type="int" >        4       76       77      112      120 </v>
   <v type="int" >        4       76      112      119      120 </v>
   <v type="int" >        4       76      111      112      119 </v>
   <v type="int" >        4       76       77       82      120 </v>
   <v type="int" >        4       76       82      119      120 </v>
   <v type="int" >        4       82      119      120      125 </v>
   <v type="int" >        4       46       59       60       89 </v>
   <v type="int" >        4       46       47       59       89 </v>
   <v type="int" >        4       47       59       89       90 </v>
   <v type="int" >        4       59       60       89      103 </v>
   <v type="int" >        4       59       89      102      103 </v>
   <v type="int" >        4       59       89       90      102 </v>
   <v type="int" >        4       60       69       70      103 </v>
   <v type="int" >        4       59       60       69      103 </v>
   <v type="int" >        4       59       69      102      103 </v>
   <v type="int" >        4       69       70      103      113 </v>
   <v type="int" >        4       69      103      112      113 </v>
[...]
       <r>   -8.7205    1.0000 </r>
       <r>   -8.7205    1.0000 </r>
       <r>   -6.8522    1.0000 </r>
       <r>   -6.8522    1.0000 </r>
       <r>   -4.5531    1.0000 </r>
       <r>   -4.5531    1.0000 </r>
       <r>    3.6994    1.0000 </r>
       <r>    3.6994    1.0010 </r>
       <r>    6.3486    0.0000 </r>
       <r>    6.3486    0.0000 </r>
       <r>   15.5491    0.0000 </r>
       <r>   15.5491    0.0000 </r>
      </set>
      <set comment="kpoint 209">
       <r>   -9.9961    1.0000 </r>
       <r>   -9.9961    1.0000 </r>
       <r>   -6.3084    1.0000 </r>
       <r>   -6.3084    1.0000 </r>
       <r>   -2.9324    1.0000 </r>
       <r>   -2.9324    1.0000 </r>
       <r>    2.3990    1.0000 </r>
       <r>    2.3990    1.0000 </r>
       <r>    7.5597    0.0000 </r>
       <r>    7.5597    0.0000 </r>
       <r>   15.0430    0.0000 </r>
       <r>   15.0430    0.0000 </r>
      </set>
      <set comment="kpoint 210">
       <r>  -11.0602    1.0000 </r>
       <r>  -11.0602    1.0000 </r>
       <r>   -5.5368    1.0000 </r>
       <r>   -5.5368    1.0000 </r>
       <r>   -1.4539    1.0000 </r>
       <r>   -1.4539    1.0000 </r>
       <r>    1.2794    1.0000 </r>
       <r>    1.2794    1.0000 </r>
       <r>    8.7537    0.0000 </r>
       <r>    8.7537    0.0000 </r>
       <r>   13.3819    0.0000 </r>
       <r>   13.3819    0.0000 </r>
      </set>
      <set comment="kpoint 211">
       <r>  -11.8440    1.0000 </r>
       <r>  -11.8440    1.0000 </r>
       <r>   -4.5368    1.0000 </r>
       <r>   -4.5368    1.0000 </r>
       <r>   -0.6607    1.0000 </r>
       <r>   -0.6607    1.0000 </r>
       <r>    0.4302    1.0000 </r>
       <r>    0.4302    1.0000 </r>
       <r>    9.9402    0.0000 </r>
       <r>    9.9402    0.0000 </r>
       <r>   12.8038    0.0000 </r>
       <r>   12.8038    0.0000 </r>
      </set>
      <set comment="kpoint 212">
       <r>   -8.7656    1.0000 </r>
       <r>   -8.7656    1.0000 </r>
       <r>   -7.7398    1.0000 </r>
       <r>   -7.7398    1.0000 </r>
       <r>   -3.1169    1.0000 </r>
       <r>   -3.1169    1.0000 </r>
       <r>    3.2922    1.0000 </r>
       <r>    3.2922    1.0000 </r>
       <r>    6.4894    0.0000 </r>
       <r>    6.4894    0.0000 </r>
       <r>   14.9603    0.0000 </r>
       <r>   14.9603    0.0000 </r>
      </set>
      <set comment="kpoint 213">
       <r>   -9.5817    1.0000 </r>
       <r>   -9.5817    1.0000 </r>
       <r>   -7.4777    1.0000 </r>
       <r>   -7.4777    1.0000 </r>
       <r>   -1.7818    1.0000 </r>
       <r>   -1.7818    1.0000 </r>
       <r>    2.5878    1.0000 </r>
       <r>    2.5878    1.0000 </r>
       <r>    6.9822    0.0000 </r>
       <r>    6.9822    0.0000 </r>
       <r>   13.2189    0.0000 </r>
       <r>   13.2189    0.0000 </r>
      </set>
      <set comment="kpoint 214">
       <r>  -10.4479    1.0000 </r>
       <r>  -10.4479    1.0000 </r>
       <r>   -6.6376    1.0000 </r>
       <r>   -6.6376    1.0000 </r>
       <r>   -1.1328    1.0000 </r>
       <r>   -1.1328    1.0000 </r>
       <r>    1.8500    1.0000 </r>
       <r>    1.8500    1.0000 </r>
       <r>    7.8013    0.0000 </r>
       <r>    7.8013    0.0000 </r>
       <r>   12.5677    0.0000 </r>
       <r>   12.5677    0.0000 </r>
      </set>
      <set comment="kpoint 215">
       <r>   -9.1886    1.0000 </r>
       <r>   -9.1886    1.0000 </r>
       <r>   -8.1396    1.0000 </r>
       <r>   -8.1396    1.0000 </r>
       <r>   -1.2949    1.0000 </r>
       <r>   -1.2949    1.0000 </r>
       <r>    2.6956    1.0000 </r>
       <r>    2.6956    1.0000 </r>
       <r>    6.7010    0.0000 </r>
       <r>    6.7010    0.0000 </r>
       <r>   12.4826    0.0000 </r>
       <r>   12.4826    0.0000 </r>
      </set>
     </set>
    </set>
   </array>
  </eigenvalues>
  <separator name="orbital magnetization" >
   <v name="MAGDIPOLOUT">      0.00000000      0.00000000      0.00000000</v>
  </separator>
  <dos>
   <i name="efermi">      5.03920347 </i>
   <total>
    <array>
     <dimension dim="1">gridpoints</dimension>
     <dimension dim="2">spin</dimension>
     <field>energy</field>
     <field>total</field>
     <field>integrated</field>
     <set>
      <set comment="spin 1">
       <r>   -16.6266     0.0000     0.0000 </r>
       <r>   -16.5078     0.0000     0.0000 </r>
       <r>   -16.3890     0.0000     0.0000 </r>
       <r>   -16.2702     0.0000     0.0000 </r>
       <r>   -16.1514     0.0000     0.0000 </r>
       <r>   -16.0326     0.0000     0.0000 </r>
       <r>   -15.9138     0.0000     0.0000 </r>
       <r>   -15.7950     0.0000     0.0000 </r>
       <r>   -15.6762     0.0000     0.0000 </r>
       <r>   -15.5574     0.0000     0.0000 </r>
       <r>   -15.4386     0.0000     0.0000 </r>
       <r>   -15.3198     0.0000     0.0000 </r>
       <r>   -15.2010     0.0000     0.0000 </r>
       <r>   -15.0822     0.0000     0.0000 </r>
       <r>   -14.9634     0.0000     0.0000 </r>
       <r>   -14.8446     0.0000     0.0000 </r>
       <r>   -14.7258     0.0000     0.0000 </r>
       <r>   -14.6070     0.0096     0.0001 </r>
       <r>   -14.4882     0.2174     0.0117 </r>
       <r>   -14.3694     0.3147     0.0446 </r>
       <r>   -14.2506     0.4393     0.0888 </r>
       <r>   -14.1318     0.6353     0.1530 </r>
       <r>   -14.0130     0.6052     0.2282 </r>
       <r>   -13.8942     0.6134     0.3006 </r>
       <r>   -13.7754     0.6217     0.3740 </r>
       <r>   -13.6566     0.6110     0.4474 </r>
       <r>   -13.5378     0.6188     0.5200 </r>
       <r>   -13.4190     0.6272     0.5944 </r>
       <r>   -13.3002     0.6288     0.6691 </r>
       <r>   -13.1814     0.6260     0.7437 </r>
       <r>   -13.0626     0.6129     0.8173 </r>
       <r>   -12.9438     0.6156     0.8903 </r>
       <r>   -12.8250     0.6215     0.9637 </r>
       <r>   -12.7062     0.6319     1.0381 </r>
       <r>   -12.5874     0.6396     1.1138 </r>
       <r>   -12.4687     0.6368     1.1896 </r>
       <r>   -12.3499     0.6343     1.2652 </r>
       <r>   -12.2311     0.6274     1.3402 </r>
       <r>   -12.1123     0.6253     1.4145 </r>
       <r>   -11.9935     0.6286     1.4889 </r>
       <r>   -11.8747     0.6332     1.5639 </r>
       <r>   -11.7559     0.6388     1.6394 </r>
       <r>   -11.6371     0.6457     1.7157 </r>
       <r>   -11.5183     0.6513     1.7929 </r>
       <r>   -11.3995     0.6515     1.8702 </r>
       <r>   -11.2807     0.6504     1.9476 </r>
       <r>   -11.1619     0.6457     2.0246 </r>
       <r>   -11.0431     0.6468     2.1013 </r>
       <r>   -10.9243     0.6498     2.1783 </r>
       <r>   -10.8055     0.6553     2.2558 </r>
       <r>   -10.6867     0.6611     2.3340 </r>
       <r>   -10.5679     0.6672     2.4129 </r>
       <r>   -10.4491     0.6755     2.4926 </r>
       <r>   -10.3303     0.6859     2.5735 </r>
       <r>   -10.2115     0.6982     2.6557 </r>
       <r>   -10.0927     0.7102     2.7393 </r>
       <r>    -9.9739     0.7279     2.8247 </r>
       <r>    -9.8551     0.7510     2.9125 </r>
       <r>    -9.7363     0.7830     3.0036 </r>
       <r>    -9.6175     0.9979     3.1105 </r>
       <r>    -9.4987     1.0719     3.2339 </r>
       <r>    -9.3799     1.0583     3.3659 </r>
       <r>    -9.2611     0.7839     3.4753 </r>
       <r>    -9.1423     0.5831     3.5555 </r>
       <r>    -9.0235     0.5114     3.6198 </r>
       <r>    -8.9047     0.4543     3.6771 </r>
       <r>    -8.7859     0.6367     3.7539 </r>
       <r>    -8.6671     0.6065     3.8238 </r>
       <r>    -8.5483     0.2454     3.8758 </r>
       <r>    -8.4295     0.2165     3.9032 </r>
       <r>    -8.3107     0.1877     3.9272 </r>
       <r>    -8.1919     0.1588     3.9478 </r>
       <r>    -8.0731     0.1742     3.9669 </r>
       <r>    -7.9543     0.2314     3.9909 </r>
       <r>    -7.8355     0.2893     4.0218 </r>
       <r>    -7.7167     0.4747     4.0627 </r>
       <r>    -7.5979     0.9926     4.1485 </r>
       <r>    -7.4791     0.8696     4.2578 </r>
       <r>    -7.3603     0.7526     4.3590 </r>
       <r>    -7.2415     0.8617     4.4524 </r>
       <r>    -7.1227     1.0146     4.5639 </r>
       <r>    -7.0039     1.1676     4.6935 </r>
       <r>    -6.8851     1.0583     4.8331 </r>
       <r>    -6.7663     0.7543     4.9451 </r>
       <r>    -6.6475     0.6969     5.0292 </r>
       <r>    -6.5287     0.6777     5.1108 </r>
       <r>    -6.4099     0.6603     5.1903 </r>
       <r>    -6.2911     0.6435     5.2677 </r>
       <r>    -6.1723     0.6257     5.3432 </r>
       <r>    -6.0535     0.6066     5.4163 </r>
       <r>    -5.9347     0.5876     5.4873 </r>
       <r>    -5.8159     0.5685     5.5560 </r>
       <r>    -5.6971     0.5495     5.6224 </r>
       <r>    -5.5783     0.5304     5.6865 </r>
       <r>    -5.4595     0.5116     5.7484 </r>
       <r>    -5.3407     0.5489     5.8110 </r>
       <r>    -5.2219     0.5954     5.8790 </r>
       <r>    -5.1031     0.6419     5.9525 </r>
       <r>    -4.9843     0.6884     6.0315 </r>
       <r>    -4.8655     0.7349     6.1160 </r>
       <r>    -4.7467     0.7814     6.2061 </r>
       <r>    -4.6279     0.8279     6.3017 </r>
       <r>    -4.5091     0.8271     6.3995 </r>
       <r>    -4.3903     0.7957     6.4965 </r>
       <r>    -4.2715     0.7648     6.5888 </r>
       <r>    -4.1527     0.7645     6.6796 </r>
       <r>    -4.0339     0.7642     6.7704 </r>
       <r>    -3.9151     0.7639     6.8612 </r>
       <r>    -3.7963     0.7704     6.9522 </r>
       <r>    -3.6776     0.7864     7.0446 </r>
       <r>    -3.5588     0.8231     7.1395 </r>
       <r>    -3.4400     0.9183     7.2426 </r>
       <r>    -3.3212     0.9501     7.3535 </r>
       <r>    -3.2024     0.9946     7.4691 </r>
       <r>    -3.0836     1.0478     7.5901 </r>
       <r>    -2.9648     1.1192     7.7190 </r>
       <r>    -2.8460     1.1593     7.8546 </r>
       <r>    -2.7272     1.1961     7.9943 </r>
       <r>    -2.6084     1.2534     8.1395 </r>
       <r>    -2.4896     1.3296     8.2928 </r>
       <r>    -2.3708     1.4346     8.4571 </r>
       <r>    -2.2520     1.4043     8.6264 </r>
       <r>    -2.1332     1.2810     8.7848 </r>
       <r>    -2.0144     1.2370     8.9342 </r>
       <r>    -1.8956     1.2170     9.0796 </r>
       <r>    -1.7768     1.3793     9.2302 </r>
       <r>    -1.6580     1.6231     9.4111 </r>
       <r>    -1.5392     1.8098     9.6147 </r>
       <r>    -1.4204     2.0596     9.8432 </r>
       <r>    -1.3016     3.4766    10.1235 </r>
       <r>    -1.1828     2.2104    10.4311 </r>
       <r>    -1.0640     1.8712    10.6714 </r>
       <r>    -0.9452     1.6735    10.8809 </r>
       <r>    -0.8264     1.5668    11.0697 </r>
       <r>    -0.7076     1.1714    11.2350 </r>
       <r>    -0.5888     1.0028    11.3606 </r>
       <r>    -0.4700     1.0044    11.4787 </r>
       <r>    -0.3512     1.0564    11.6008 </r>
       <r>    -0.2324     1.1553    11.7316 </r>
       <r>    -0.1136     1.3956    11.8808 </r>
       <r>     0.0052     1.5538    12.0604 </r>
       <r>     0.1240     1.6602    12.2457 </r>
       <r>     0.2428     1.5026    12.4322 </r>
       <r>     0.3616     1.3957    12.6041 </r>
       <r>     0.4804     1.3160    12.7645 </r>
       <r>     0.5992     1.2617    12.9175 </r>
       <r>     0.7180     1.2153    13.0646 </r>
       <r>     0.8368     1.1755    13.2065 </r>
       <r>     0.9556     1.1522    13.3442 </r>
       <r>     1.0744     1.2013    13.4844 </r>
       <r>     1.1932     1.1759    13.6256 </r>
       <r>     1.3120     1.1524    13.7639 </r>
       <r>     1.4308     1.1876    13.9008 </r>
       <r>     1.5496     1.1619    14.0422 </r>
       <r>     1.6684     1.1010    14.1766 </r>
       <r>     1.7872     1.2190    14.3147 </r>
       <r>     1.9060     1.0366    14.4486 </r>
       <r>     2.0248     0.9576    14.5680 </r>
       <r>     2.1436     0.8615    14.6738 </r>
       <r>     2.2624     0.8238    14.7734 </r>
       <r>     2.3812     0.8205    14.8710 </r>
       <r>     2.5000     0.8140    14.9680 </r>
       <r>     2.6188     0.8160    15.0648 </r>
       <r>     2.7376     0.8188    15.1618 </r>
       <r>     2.8564     0.8577    15.2603 </r>
       <r>     2.9752     0.8804    15.3632 </r>
       <r>     3.0940     0.8209    15.4682 </r>
       <r>     3.2128     0.6600    15.5538 </r>
       <r>     3.3316     0.5719    15.6274 </r>
       <r>     3.4504     0.4716    15.6894 </r>
       <r>     3.5692     0.3870    15.7402 </r>
       <r>     3.6880     0.3464    15.7835 </r>
       <r>     3.8068     0.3113    15.8226 </r>
       <r>     3.9256     0.2753    15.8574 </r>
       <r>     4.0444     0.2401    15.8880 </r>
       <r>     4.1632     0.2057    15.9145 </r>
       <r>     4.2820     0.1774    15.9371 </r>
       <r>     4.4008     0.1450    15.9562 </r>
       <r>     4.5196     0.1147    15.9716 </r>
       <r>     4.6384     0.0860    15.9835 </r>
       <r>     4.7572     0.0587    15.9921 </r>
       <r>     4.8760     0.0325    15.9975 </r>
       <r>     4.9948     0.0073    15.9998 </r>
       <r>     5.1135     0.0094    16.0003 </r>
       <r>     5.2323     0.0263    16.0024 </r>
       <r>     5.3511     0.0445    16.0066 </r>
       <r>     5.4699     0.0642    16.0131 </r>
       <r>     5.5887     0.0856    16.0220 </r>
       <r>     5.7075     0.1089    16.0335 </r>
       <r>     5.8263     0.1351    16.0479 </r>
       <r>     5.9451     0.1656    16.0657 </r>
       <r>     6.0639     0.2028    16.0876 </r>
       <r>     6.1827     0.3091    16.1181 </r>
       <r>     6.3015     0.3918    16.1600 </r>
       <r>     6.4203     0.4438    16.2102 </r>
       <r>     6.5391     0.5254    16.2656 </r>
       <r>     6.6579     1.0539    16.3530 </r>
       <r>     6.7767     1.1168    16.4974 </r>
       <r>     6.8955     0.8869    16.6102 </r>
       <r>     7.0143     0.8552    16.7137 </r>
       <r>     7.1331     0.8278    16.8138 </r>
       <r>     7.2519     0.8026    16.9104 </r>
       <r>     7.3707     0.7979    17.0051 </r>
       <r>     7.4895     0.7959    17.1003 </r>
       <r>     7.6083     0.7279    17.1924 </r>
       <r>     7.7271     0.6355    17.2711 </r>
       <r>     7.8459     0.6037    17.3447 </r>
       <r>     7.9647     0.5752    17.4147 </r>
       <r>     8.0835     0.5500    17.4815 </r>
       <r>     8.2023     0.5282    17.5455 </r>
       <r>     8.3211     0.5128    17.6073 </r>
       <r>     8.4399     0.5003    17.6674 </r>
       <r>     8.5587     0.4892    17.7262 </r>
       <r>     8.6775     0.4791    17.7837 </r>
       <r>     8.7963     0.4691    17.8400 </r>
       <r>     8.9151     0.4591    17.8952 </r>
       <r>     9.0339     0.4492    17.9491 </r>
       <r>     9.1527     0.4357    18.0017 </r>
       <r>     9.2715     0.4243    18.0528 </r>
       <r>     9.3903     0.4142    18.1026 </r>
       <r>     9.5091     0.4049    18.1512 </r>
       <r>     9.6279     0.3967    18.1988 </r>
       <r>     9.7467     0.3891    18.2455 </r>
       <r>     9.8655     0.3979    18.2919 </r>
       <r>     9.9843     0.4333    18.3414 </r>
       <r>    10.1031     0.4469    18.3938 </r>
       <r>    10.2219     0.4516    18.4470 </r>
       <r>    10.3407     0.4647    18.5014 </r>
       <r>    10.4595     0.4754    18.5573 </r>
       <r>    10.5783     0.4816    18.6142 </r>
       <r>    10.6971     0.5077    18.6728 </r>
       <r>    10.8159     0.5394    18.7350 </r>
       <r>    10.9347     0.5731    18.8011 </r>
       <r>    11.0535     0.6063    18.8711 </r>
       <r>    11.1723     0.6551    18.9477 </r>
       <r>    11.2911     0.5793    19.0216 </r>
       <r>    11.4099     0.5180    19.0857 </r>
       <r>    11.5287     0.4808    19.1451 </r>
       <r>    11.6475     0.4513    19.2003 </r>
       <r>    11.7663     0.4255    19.2525 </r>
       <r>    11.8851     0.3930    19.3012 </r>
       <r>    12.0039     0.3717    19.3464 </r>
       <r>    12.1227     0.3597    19.3897 </r>
       <r>    12.2415     0.3983    19.4334 </r>
       <r>    12.3603     0.5837    19.4909 </r>
       <r>    12.4791     0.8491    19.5751 </r>
       <r>    12.5979     1.2331    19.7033 </r>
       <r>    12.7167     1.3580    19.8561 </r>
       <r>    12.8355     1.6525    20.0345 </r>
       <r>    12.9543     1.8908    20.2457 </r>
       <r>    13.0731     2.0959    20.4801 </r>
       <r>    13.1919     2.0310    20.7256 </r>
       <r>    13.3107     1.9949    20.9644 </r>
       <r>    13.4295     3.4774    21.2363 </r>
       <r>    13.5483     2.5340    21.5540 </r>
       <r>    13.6671     1.8707    21.8202 </r>
       <r>    13.7858     1.3798    22.0090 </r>
       <r>    13.9046     1.1520    22.1548 </r>
       <r>    14.0234     1.1127    22.2893 </r>
       <r>    14.1422     1.1432    22.4209 </r>
       <r>    14.2610     1.1424    22.5591 </r>
       <r>    14.3798     0.9957    22.6868 </r>
       <r>    14.4986     0.8469    22.7960 </r>
       <r>    14.6174     0.7230    22.8890 </r>
       <r>    14.7362     0.6300    22.9689 </r>
       <r>    14.8550     0.6314    23.0430 </r>
       <r>    14.9738     0.7115    23.1206 </r>
       <r>    15.0926     0.8423    23.2260 </r>
       <r>    15.2114     0.7275    23.3157 </r>
       <r>    15.3302     0.7553    23.4031 </r>
       <r>    15.4490     0.8378    23.4973 </r>
       <r>    15.5678     0.8602    23.6069 </r>
       <r>    15.6866     0.6318    23.6946 </r>
       <r>    15.8054     0.4594    23.7581 </r>
       <r>    15.9242     0.3878    23.8084 </r>
       <r>    16.0430     0.3246    23.8506 </r>
       <r>    16.1618     0.2895    23.8867 </r>
       <r>    16.2806     0.2618    23.9197 </r>
       <r>    16.3994     0.2346    23.9492 </r>
       <r>    16.5182     0.1425    23.9726 </r>
       <r>    16.6370     0.1038    23.9874 </r>
       <r>    16.7558     0.0555    23.9967 </r>
       <r>    16.8746     0.0045    23.9998 </r>
       <r>    16.9934     0.0001    24.0000 </r>
       <r>    17.1122     0.0000    24.0000 </r>
       <r>    17.2310     0.0000    24.0000 </r>
       <r>    17.3498     0.0000    24.0000 </r>
       <r>    17.4686     0.0000    24.0000 </r>
       <r>    17.5874     0.0000    24.0000 </r>
       <r>    17.7062     0.0000    24.0000 </r>
       <r>    17.8250     0.0000    24.0000 </r>
       <r>    17.9438     0.0000    24.0000 </r>
       <r>    18.0626     0.0000    24.0000 </r>
       <r>    18.1814     0.0000    24.0000 </r>
       <r>    18.3002     0.0000    24.0000 </r>
       <r>    18.4190     0.0000    24.0000 </r>
       <r>    18.5378     0.0000    24.0000 </r>
       <r>    18.6566     0.0000    24.0000 </r>
       <r>    18.7754     0.0000    24.0000 </r>
       <r>    18.8942     0.0000    24.0000 </r>
       <r>    19.0130     0.0000    24.0000 </r>
      </set>
     </set>
    </array>
   </total>
  </dos>
 </calculation>
 <structure name="finalpos" >
  <crystal>
   <varray name="basis" >
    <v>       2.46643725      -0.00095964       0.00000000 </v>
    <v>      -1.23404970       2.13551749       0.00000000 </v>
    <v>       0.00000000       0.00000000       6.43279821 </v>
   </varray>
   <i name="volume">     33.87470136 </i>
   <varray name="rec_basis" >
    <v>       0.40553429       0.23434576       0.00000000 </v>
    <v>       0.00018224       0.46837588       0.00000000 </v>
    <v>       0.00000000       0.00000000       0.15545335 </v>
   </varray>
  </crystal>
  <varray name="positions" >
   <v>       0.99934661       0.00065344       0.25000000 </v>
   <v>       0.00065344       0.99934661       0.75000000 </v>
   <v>       0.33258492       0.66741506       0.25000000 </v>
   <v>       0.66741506       0.33258492       0.75000000 </v>
  </varray>
 </structure>
</modeling>
