   2   2   0   0
  0.5265935E+02  0.2466437E-09  0.2466437E-09  0.2000000E-08  0.5000000E-15
  1.000000000000000E-004
  CAR 
 graphite                                
     12.14940204    -24.26126803  301     -2.74531178      1.00000000
    -24.261  0.0000E+00  0.0000E+00
    -24.140  0.0000E+00  0.0000E+00
    -24.019  0.0000E+00  0.0000E+00
    -23.897  0.0000E+00  0.0000E+00
    -23.776  0.0000E+00  0.0000E+00
    -23.654  0.0000E+00  0.0000E+00
    -23.533  0.0000E+00  0.0000E+00
    -23.412  0.0000E+00  0.0000E+00
    -23.290  0.0000E+00  0.0000E+00
    -23.169  0.0000E+00  0.0000E+00
    -23.048  0.0000E+00  0.0000E+00
    -22.926  0.0000E+00  0.0000E+00
    -22.805  0.0000E+00  0.0000E+00
    -22.683  0.0000E+00  0.0000E+00
    -22.562  0.0000E+00  0.0000E+00
    -22.441  0.0000E+00  0.0000E+00
    -22.319  0.0000E+00  0.0000E+00
    -22.198  0.4399E+00  0.1391E-01
    -22.077  0.3190E+00  0.5051E-01
    -21.955  0.2896E+00  0.8867E-01
    -21.834  0.3145E+00  0.1253E+00
    -21.713  0.3046E+00  0.1638E+00
    -21.591  0.3018E+00  0.2005E+00
    -21.470  0.3146E+00  0.2379E+00
    -21.348  0.3122E+00  0.2766E+00
    -21.227  0.3059E+00  0.3137E+00
    -21.106  0.3085E+00  0.3509E+00
    -20.984  0.3161E+00  0.3888E+00
    -20.863  0.3129E+00  0.4275E+00
    -20.742  0.3075E+00  0.4651E+00
    -20.620  0.3109E+00  0.5026E+00
    -20.499  0.3142E+00  0.5406E+00
    -20.377  0.3189E+00  0.5790E+00
    -20.256  0.3151E+00  0.6177E+00
    -20.135  0.3134E+00  0.6558E+00
    -20.013  0.3137E+00  0.6938E+00
    -19.892  0.3168E+00  0.7321E+00
    -19.771  0.3199E+00  0.7707E+00
    -19.649  0.3233E+00  0.8097E+00
    -19.528  0.3192E+00  0.8487E+00
    -19.407  0.3187E+00  0.8874E+00
    -19.285  0.3201E+00  0.9262E+00
    -19.164  0.3218E+00  0.9651E+00
    -19.042  0.3248E+00  0.1004E+01
    -18.921  0.3277E+00  0.1044E+01
    -18.800  0.3275E+00  0.1084E+01
    -18.678  0.3269E+00  0.1123E+01
    -18.557  0.3280E+00  0.1163E+01
    -18.436  0.3307E+00  0.1203E+01
    -18.314  0.3334E+00  0.1243E+01
    -18.193  0.3366E+00  0.1284E+01
    -18.071  0.3412E+00  0.1325E+01
    -17.950  0.3442E+00  0.1367E+01
    -17.829  0.3470E+00  0.1409E+01
    -17.707  0.3555E+00  0.1451E+01
    -17.586  0.3663E+00  0.1495E+01
    -17.465  0.3882E+00  0.1541E+01
    -17.343  0.4110E+00  0.1589E+01
    -17.222  0.6582E+00  0.1645E+01
    -17.101  0.4649E+00  0.1713E+01
    -16.979  0.3261E+00  0.1759E+01
    -16.858  0.8832E+00  0.1800E+01
    -16.736  0.2301E+00  0.1847E+01
    -16.615  0.2044E+00  0.1873E+01
    -16.494  0.1787E+00  0.1897E+01
    -16.372  0.1530E+00  0.1917E+01
    -16.251  0.1495E+00  0.1934E+01
    -16.130  0.2670E+00  0.1959E+01
    -16.008  0.8234E-01  0.1973E+01
    -15.887  0.1180E+00  0.1984E+01
    -15.765  0.2373E+00  0.2002E+01
    -15.644  0.5756E+00  0.2052E+01
    -15.523  0.2738E+00  0.2087E+01
    -15.401  0.2878E+00  0.2121E+01
    -15.280  0.3546E+00  0.2178E+01
    -15.159  0.4182E+00  0.2225E+01
    -15.037  0.4847E+00  0.2279E+01
    -14.916  0.5556E+00  0.2342E+01
    -14.794  0.3932E+00  0.2401E+01
    -14.673  0.3774E+00  0.2448E+01
    -14.552  0.3617E+00  0.2492E+01
    -14.430  0.3463E+00  0.2535E+01
    -14.309  0.3320E+00  0.2577E+01
    -14.188  0.3177E+00  0.2616E+01
    -14.066  0.3029E+00  0.2654E+01
    -13.945  0.2972E+00  0.2690E+01
    -13.824  0.2935E+00  0.2726E+01
    -13.702  0.2899E+00  0.2761E+01
    -13.581  0.2861E+00  0.2796E+01
    -13.459  0.2822E+00  0.2831E+01
    -13.338  0.2577E+00  0.2863E+01
    -13.217  0.2849E+00  0.2895E+01
    -13.095  0.3287E+00  0.2933E+01
    -12.974  0.3724E+00  0.2975E+01
    -12.853  0.3885E+00  0.3023E+01
    -12.731  0.3720E+00  0.3068E+01
    -12.610  0.3662E+00  0.3113E+01
    -12.488  0.3603E+00  0.3157E+01
    -12.367  0.3616E+00  0.3201E+01
    -12.246  0.3721E+00  0.3245E+01
    -12.124  0.3817E+00  0.3291E+01
    -12.003  0.3912E+00  0.3338E+01
    -11.882  0.3950E+00  0.3386E+01
    -11.760  0.3957E+00  0.3434E+01
    -11.639  0.3964E+00  0.3482E+01
    -11.518  0.3996E+00  0.3529E+01
    -11.396  0.4037E+00  0.3578E+01
    -11.275  0.4078E+00  0.3627E+01
    -11.153  0.4119E+00  0.3677E+01
    -11.032  0.4160E+00  0.3727E+01
    -10.911  0.4281E+00  0.3778E+01
    -10.789  0.4398E+00  0.3831E+01
    -10.668  0.4467E+00  0.3885E+01
    -10.547  0.4535E+00  0.3939E+01
    -10.425  0.4622E+00  0.3995E+01
    -10.304  0.7545E+00  0.4060E+01
    -10.182  0.7247E+00  0.4148E+01
    -10.061  0.7512E+00  0.4239E+01
     -9.940  0.7963E+00  0.4333E+01
     -9.818  0.8581E+00  0.4433E+01
     -9.697  0.8747E+00  0.4539E+01
     -9.576  0.1012E+01  0.4648E+01
     -9.454  0.1190E+01  0.4781E+01
     -9.333  0.1203E+01  0.4924E+01
     -9.212  0.8081E+00  0.5039E+01
     -9.090  0.6603E+00  0.5134E+01
     -8.969  0.6754E+00  0.5212E+01
     -8.847  0.8377E+00  0.5303E+01
     -8.726  0.1568E+01  0.5439E+01
     -8.605  0.9452E+00  0.5592E+01
     -8.483  0.6524E+00  0.5684E+01
     -8.362  0.3653E+00  0.5744E+01
     -8.241  0.1207E+00  0.5773E+01
     -8.119  0.6646E+00  0.5835E+01
     -7.998  0.1056E+01  0.5936E+01
     -7.876  0.8572E+00  0.6052E+01
     -7.755  0.6645E+00  0.6144E+01
     -7.634  0.6447E+00  0.6223E+01
     -7.512  0.6228E+00  0.6300E+01
     -7.391  0.6233E+00  0.6376E+01
     -7.270  0.6094E+00  0.6451E+01
     -7.148  0.5939E+00  0.6524E+01
     -7.027  0.5817E+00  0.6595E+01
     -6.906  0.5705E+00  0.6665E+01
     -6.784  0.5844E+00  0.6734E+01
     -6.663  0.5820E+00  0.6806E+01
     -6.541  0.5704E+00  0.6876E+01
     -6.420  0.5565E+00  0.6944E+01
     -6.299  0.5603E+00  0.7011E+01
     -6.177  0.5634E+00  0.7080E+01
     -6.056  0.5957E+00  0.7148E+01
     -5.935  0.5695E+00  0.7216E+01
     -5.813  0.4313E+00  0.7281E+01
     -5.692  0.3708E+00  0.7326E+01
     -5.570  0.3864E+00  0.7372E+01
     -5.449  0.4144E+00  0.7421E+01
     -5.328  0.4590E+00  0.7474E+01
     -5.206  0.5462E+00  0.7534E+01
     -5.085  0.4819E+00  0.7621E+01
     -4.964  0.3936E+00  0.7674E+01
     -4.842  0.3062E+00  0.7717E+01
     -4.721  0.3327E+00  0.7755E+01
     -4.600  0.2433E+00  0.7793E+01
     -4.478  0.2460E+00  0.7824E+01
     -4.357  0.2170E+00  0.7852E+01
     -4.235  0.1880E+00  0.7876E+01
     -4.114  0.1590E+00  0.7897E+01
     -3.993  0.1420E+00  0.7915E+01
     -3.871  0.1396E+00  0.7932E+01
     -3.750  0.1372E+00  0.7949E+01
     -3.629  0.8052E-01  0.7965E+01
     -3.507  0.6941E-01  0.7974E+01
     -3.386  0.5830E-01  0.7981E+01
     -3.264  0.4719E-01  0.7988E+01
     -3.143  0.3608E-01  0.7993E+01
     -3.022  0.2497E-01  0.7997E+01
     -2.900  0.1385E-01  0.7999E+01
     -2.779  0.2743E-02  0.8000E+01
     -2.658  0.8421E-02  0.8000E+01
     -2.536  0.2025E-01  0.8002E+01
     -2.415  0.3208E-01  0.8005E+01
     -2.293  0.4391E-01  0.8010E+01
     -2.172  0.5575E-01  0.8016E+01
     -2.051  0.6758E-01  0.8023E+01
     -1.929  0.7941E-01  0.8032E+01
     -1.808  0.1643E+00  0.8048E+01
     -1.687  0.1539E+00  0.8067E+01
     -1.565  0.1526E+00  0.8085E+01
     -1.444  0.2003E+00  0.8107E+01
     -1.323  0.2481E+00  0.8134E+01
     -1.201  0.2959E+00  0.8167E+01
     -1.080  0.4252E+00  0.8229E+01
     -0.958  0.9138E+00  0.8307E+01
     -0.837  0.4904E+00  0.8378E+01
     -0.716  0.4317E+00  0.8434E+01
     -0.594  0.3768E+00  0.8483E+01
     -0.473  0.3512E+00  0.8527E+01
     -0.352  0.3328E+00  0.8569E+01
     -0.230  0.3145E+00  0.8608E+01
     -0.109  0.2983E+00  0.8645E+01
      0.013  0.2824E+00  0.8680E+01
      0.134  0.2702E+00  0.8714E+01
      0.255  0.2639E+00  0.8746E+01
      0.377  0.2576E+00  0.8778E+01
      0.498  0.2513E+00  0.8808E+01
      0.619  0.6102E+00  0.8856E+01
      0.741  0.4640E+00  0.8911E+01
      0.862  0.4669E+00  0.8969E+01
      0.983  0.4462E+00  0.9023E+01
      1.105  0.4518E+00  0.9078E+01
      1.226  0.4376E+00  0.9133E+01
      1.348  0.6647E+00  0.9193E+01
      1.469  0.6402E+00  0.9273E+01
      1.590  0.6736E+00  0.9353E+01
      1.712  0.6955E+00  0.9434E+01
      1.833  0.8052E+00  0.9526E+01
      1.954  0.8706E+00  0.9630E+01
      2.076  0.8610E+00  0.9735E+01
      2.197  0.8554E+00  0.9840E+01
      2.319  0.9416E+00  0.9947E+01
      2.440  0.1016E+01  0.1007E+02
      2.561  0.1068E+01  0.1019E+02
      2.683  0.1171E+01  0.1033E+02
      2.804  0.1287E+01  0.1048E+02
      2.925  0.1193E+01  0.1064E+02
      3.047  0.9689E+00  0.1076E+02
      3.168  0.9234E+00  0.1088E+02
      3.289  0.9117E+00  0.1099E+02
      3.411  0.1158E+01  0.1111E+02
      3.532  0.1073E+01  0.1125E+02
      3.654  0.8501E+00  0.1136E+02
      3.775  0.9417E+00  0.1147E+02
      3.896  0.9950E+00  0.1159E+02
      4.018  0.9537E+00  0.1171E+02
      4.139  0.8917E+00  0.1182E+02
      4.260  0.9554E+00  0.1193E+02
      4.382  0.9766E+00  0.1205E+02
      4.503  0.1019E+01  0.1219E+02
      4.625  0.8885E+00  0.1230E+02
      4.746  0.1331E+01  0.1244E+02
      4.867  0.1304E+01  0.1260E+02
      4.989  0.1095E+01  0.1275E+02
      5.110  0.9490E+00  0.1287E+02
      5.231  0.9537E+00  0.1299E+02
      5.353  0.8887E+00  0.1310E+02
      5.474  0.8619E+00  0.1320E+02
      5.595  0.8450E+00  0.1331E+02
      5.717  0.8214E+00  0.1341E+02
      5.838  0.8042E+00  0.1351E+02
      5.960  0.7682E+00  0.1360E+02
      6.081  0.7504E+00  0.1369E+02
      6.202  0.7228E+00  0.1378E+02
      6.324  0.7160E+00  0.1387E+02
      6.445  0.7091E+00  0.1396E+02
      6.566  0.7007E+00  0.1404E+02
      6.688  0.6897E+00  0.1413E+02
      6.809  0.6846E+00  0.1421E+02
      6.931  0.6808E+00  0.1429E+02
      7.052  0.6771E+00  0.1438E+02
      7.173  0.6763E+00  0.1446E+02
      7.295  0.7111E+00  0.1454E+02
      7.416  0.7080E+00  0.1463E+02
      7.537  0.7061E+00  0.1471E+02
      7.659  0.7047E+00  0.1480E+02
      7.780  0.7782E+00  0.1489E+02
      7.901  0.1194E+01  0.1500E+02
      8.023  0.9153E+00  0.1517E+02
      8.144  0.7983E+00  0.1527E+02
      8.266  0.8944E+00  0.1537E+02
      8.387  0.6901E+00  0.1547E+02
      8.508  0.9687E+00  0.1555E+02
      8.630  0.5824E+00  0.1563E+02
      8.751  0.4423E+00  0.1570E+02
      8.872  0.2997E+00  0.1575E+02
      8.994  0.2755E+00  0.1578E+02
      9.115  0.2512E+00  0.1581E+02
      9.237  0.2127E+00  0.1584E+02
      9.358  0.1848E+00  0.1587E+02
      9.479  0.1713E+00  0.1589E+02
      9.601  0.1579E+00  0.1591E+02
      9.722  0.1445E+00  0.1593E+02
      9.843  0.1311E+00  0.1594E+02
      9.965  0.1176E+00  0.1596E+02
     10.086  0.2549E+00  0.1599E+02
     10.207  0.0000E+00  0.1600E+02
     10.329  0.0000E+00  0.1600E+02
     10.450  0.0000E+00  0.1600E+02
     10.572  0.0000E+00  0.1600E+02
     10.693  0.0000E+00  0.1600E+02
     10.814  0.0000E+00  0.1600E+02
     10.936  0.0000E+00  0.1600E+02
     11.057  0.0000E+00  0.1600E+02
     11.178  0.0000E+00  0.1600E+02
     11.300  0.0000E+00  0.1600E+02
     11.421  0.0000E+00  0.1600E+02
     11.543  0.0000E+00  0.1600E+02
     11.664  0.0000E+00  0.1600E+02
     11.785  0.0000E+00  0.1600E+02
     11.907  0.0000E+00  0.1600E+02
     12.028  0.0000E+00  0.1600E+02
     12.149  0.0000E+00  0.1600E+02
