    2    2    1    1
  0.5265935E+02  0.2466437E-09  0.2466437E-09  0.2000000E-08  0.5000000E-15
  1.000000000000000E-004
  CAR 
 graphite                                
      8    455      8
 
  0.0000000E+00  0.0000000E+00  0.0000000E+00  0.3858025E-03
    1      -22.261260
    2      -10.362609
    3       -5.785595
    4       -5.765902
    5        0.521587
    6        1.314404
    7        1.655260
    8        2.588017
 
  0.5555556E-01  0.3469447E-17  0.0000000E+00  0.1543210E-02
    1      -22.188236
    2      -10.275425
    3       -6.069239
    4       -5.936690
    5        0.620616
    6        1.414741
    7        1.756786
    8        2.688617
 
  0.1111111E+00  0.6938894E-17  0.0000000E+00  0.1543210E-02
    1      -21.969547
    2      -10.014937
    3       -6.887053
    4       -6.352776
    5        0.917757
    6        1.715532
    7        2.061383
    8        2.990234
 
  0.1666667E+00  0.1387779E-16  0.0000000E+00  0.1543210E-02
    1      -21.606317
    2       -9.584377
    3       -8.061986
    4       -6.912271
    5        1.412852
    6        2.215895
    7        2.569047
    8        3.492063
 
  0.2222222E+00  0.2775558E-16  0.0000000E+00  0.1543210E-02
    1      -21.100375
    2       -9.437008
    3       -8.990010
    4       -7.506796
    5        2.105121
    6        2.912292
    7        3.279663
    8        4.188271
 
  0.2777778E+00  0.2775558E-16  0.0000000E+00  0.1543210E-02
    1      -20.454839
    2      -10.897835
    3       -8.243574
    4       -8.060397
    5        2.992597
    6        3.598210
    7        3.942185
    8        4.192644
 
  0.3333333E+00  0.8326673E-16  0.0000000E+00  0.1543210E-02
    1      -19.674901
    2      -12.367346
    3       -8.525572
    4       -7.368073
    5        2.162622
    6        4.067078
    7        4.930967
    8        4.958140
 
  0.3888889E+00  0.2775558E-16  0.0000000E+00  0.1543210E-02
    1      -18.770258
    2      -13.790627
    3       -8.873647
    4       -6.415434
    5        0.690212
    6        4.749044
    7        5.382999
    8        6.215175
 
  0.4444444E+00  0.5551115E-16  0.0000000E+00  0.1543210E-02
    1      -17.771269
    2      -15.110190
    3       -9.088161
    4       -5.528448
    5       -0.527619
    6        4.654720
    7        6.825367
    8        7.685464
 
  0.5000000E+00  0.5551115E-16  0.0000000E+00  0.7716049E-03
    1      -17.016530
    2      -15.973207
    3       -9.160475
    4       -5.104071
    5       -1.065228
    6        4.618276
    7        8.377998
    8        8.530194
 
  0.5555556E-01  0.5555556E-01  0.0000000E+00  0.7716049E-03
    1      -22.042272
    2      -10.101495
    3       -6.596571
    4       -6.253571
    5        0.818869
    6        1.615446
    7        1.959991
    8        2.889871
 
  0.1111111E+00  0.5555556E-01  0.0000000E+00  0.1543210E-02
    1      -21.751219
    2       -9.755792
    3       -7.542611
    4       -6.792671
    5        1.215266
    6        2.016252
    7        2.366285
    8        3.291854
 
  0.1666667E+00  0.5555556E-01  0.0000000E+00  0.1543210E-02
    1      -21.316522
    2       -9.242874
    3       -8.777044
    4       -7.411441
    5        1.809370
    6        2.615608
    7        2.975629
    8        3.892931
 
  0.2222222E+00  0.5555556E-01  0.0000000E+00  0.1543210E-02
    1      -20.740672
    2      -10.169333
    3       -8.571342
    4       -8.012064
    5        2.599973
    6        3.401848
    7        3.787847
    8        4.394914
 
  0.2777778E+00  0.5555556E-01  0.0000000E+00  0.1543210E-02
    1      -20.027660
    2      -11.619520
    3       -8.536908
    4       -7.757283
    5        2.874338
    6        3.584197
    7        4.434149
    8        4.801343
 
  0.3333333E+00  0.5555556E-01  0.0000000E+00  0.1543210E-02
    1      -19.184624
    2      -13.058097
    3       -8.952117
    4       -6.834030
    5        1.376429
    6        4.740903
    7        5.208653
    8        5.616856
 
  0.3888889E+00  0.5555556E-01  0.0000000E+00  0.1543210E-02
    1      -18.227110
    2      -14.430436
    3       -9.238018
    4       -5.884632
    5        0.010297
    6        5.023775
    7        6.151694
    8        6.991847
 
  0.4444444E+00  0.5555556E-01  0.0000000E+00  0.1543210E-02
    1      -17.237540
    2      -15.632434
    3       -9.383628
    4       -5.154955
    5       -0.936835
    6        4.955075
    7        7.687491
    8        8.529956
 
  0.5000000E+00  0.5555556E-01  0.0000000E+00  0.1543210E-02
    1      -17.238880
    2      -15.630889
    3       -9.383982
    4       -5.155457
    5       -0.936364
    6        4.955542
    7        7.685002
    8        8.527906
 
 -0.4444444E+00  0.5555556E-01  0.0000000E+00  0.1543210E-02
    1      -18.228640
    2      -14.428432
    3       -9.239025
    4       -5.885665
    5        0.011187
    6        5.025127
    7        6.149614
    8        6.989903
 
 -0.3888889E+00  0.5555556E-01  0.0000000E+00  0.1543210E-02
    1      -19.185990
    2      -13.056024
    3       -8.953661
    4       -6.835154
    5        1.377214
    6        4.739331
    7        5.210691
    8        5.615124
 
 -0.3333333E+00  0.5555556E-01  0.0000000E+00  0.1543210E-02
    1      -20.028835
    2      -11.617611
    3       -8.538701
    4       -7.758342
    5        2.874726
    6        3.582687
    7        4.432650
    8        4.799851
 
 -0.2777778E+00  0.5555556E-01  0.0000000E+00  0.1543210E-02
    1      -20.741631
    2      -10.168093
    3       -8.572252
    4       -8.013502
    5        2.598736
    6        3.400720
    7        3.786612
    8        4.394618
 
 -0.2222222E+00  0.5555556E-01  0.0000000E+00  0.1543210E-02
    1      -21.317269
    2       -9.243605
    3       -8.777602
    4       -7.411231
    5        1.808409
    6        2.614680
    7        2.974669
    8        3.892000
 
 -0.1666667E+00  0.5555556E-01  0.0000000E+00  0.1543210E-02
    1      -21.751750
    2       -9.756329
    3       -7.547455
    4       -6.788102
    5        1.214579
    6        2.015583
    7        2.365598
    8        3.291182
 
 -0.1111111E+00  0.5555556E-01  0.0000000E+00  0.1543210E-02
    1      -22.042601
    2      -10.101827
    3       -6.609398
    4       -6.240872
    5        0.818455
    6        1.615043
    7        1.959579
    8        2.889464
 
 -0.5555556E-01  0.5555556E-01  0.0000000E+00  0.7716049E-03
    1      -22.188343
    2      -10.275538
    3       -6.083776
    4       -5.922138
    5        0.620478
    6        1.414606
    7        1.756648
    8        2.688481
 
  0.1111111E+00  0.1111111E+00  0.0000000E+00  0.7716049E-03
    1      -21.388698
    2       -9.327506
    3       -8.443656
    4       -7.496844
    5        1.710900
    6        2.516447
    7        2.874305
    8        3.793728
 
  0.1666667E+00  0.1111111E+00  0.0000000E+00  0.1543210E-02
    1      -20.884114
    2       -9.581962
    3       -8.736458
    4       -8.236790
    5        2.403804
    6        3.213504
    7        3.585365
    8        4.490851
 
  0.2222222E+00  0.1111111E+00  0.0000000E+00  0.1543210E-02
    1      -20.240694
    2      -10.895963
    3       -8.877370
    4       -7.993984
    5        3.292276
    6        3.409656
    7        4.124772
    8        4.499241
 
  0.2777778E+00  0.1111111E+00  0.0000000E+00  0.1543210E-02
    1      -19.464017
    2      -12.281273
    3       -9.387108
    4       -7.122168
    5        1.974949
    6        4.372791
    7        5.205479
    8        5.614398
 
  0.3333333E+00  0.1111111E+00  0.0000000E+00  0.1543210E-02
    1      -18.564379
    2      -13.655496
    3       -9.757313
    4       -6.170102
    5        0.573370
    6        5.622321
    7        6.035346
    8        6.476345
 
  0.3888889E+00  0.1111111E+00  0.0000000E+00  0.1543210E-02
    1      -17.573152
    2      -14.945314
    3       -9.982144
    4       -5.274358
    5       -0.609968
    6        5.888192
    7        7.112659
    8        7.902294
 
  0.4444444E+00  0.1111111E+00  0.0000000E+00  0.1543210E-02
    1      -16.829077
    2      -15.790847
    3      -10.057896
    4       -4.838158
    5       -1.145116
    6        5.854403
    7        8.631780
    8        8.802205
 
  0.5000000E+00  0.1111111E+00  0.0000000E+00  0.1543210E-02
    1      -17.576249
    2      -14.941609
    3       -9.983279
    4       -5.276072
    5       -0.608524
    6        5.889776
    7        7.108104
    8        7.898425
 
 -0.4444444E+00  0.1111111E+00  0.0000000E+00  0.1543210E-02
    1      -18.567298
    2      -13.651464
    3       -9.759378
    4       -6.172318
    5        0.574914
    6        5.618826
    7        6.038163
    8        6.472714
 
 -0.3888889E+00  0.1111111E+00  0.0000000E+00  0.1543210E-02
    1      -19.466549
    2      -12.277590
    3       -9.389645
    4       -7.124362
    5        1.975827
    6        4.369474
    7        5.202280
    8        5.611130
 
 -0.3333333E+00  0.1111111E+00  0.0000000E+00  0.1543210E-02
    1      -20.242813
    2      -10.893635
    3       -8.879145
    4       -7.995951
    5        3.289521
    6        3.409466
    7        4.122014
    8        4.496496
 
 -0.2777778E+00  0.1111111E+00  0.0000000E+00  0.1543210E-02
    1      -20.885809
    2       -9.583394
    3       -8.738099
    4       -8.235217
    5        2.401607
    6        3.211400
    7        3.583170
    8        4.488786
 
 -0.2222222E+00  0.1111111E+00  0.0000000E+00  0.1543210E-02
    1      -21.389976
    2       -9.328776
    3       -8.452043
    4       -7.488402
    5        1.709255
    6        2.514844
    7        2.872659
    8        3.792119
 
 -0.1666667E+00  0.1111111E+00  0.0000000E+00  0.1543210E-02
    1      -21.752071
    2       -9.756655
    3       -7.557219
    4       -6.777843
    5        1.214169
    6        2.015177
    7        2.365187
    8        3.290774
 
 -0.1111111E+00  0.1111111E+00  0.0000000E+00  0.7716049E-03
    1      -21.969977
    2      -10.015385
    3       -6.902406
    4       -6.337115
    5        0.917208
    6        1.714993
    7        2.060834
    8        2.989697
 
  0.1666667E+00  0.1666667E+00  0.0000000E+00  0.7716049E-03
    1      -20.311900
    2      -10.502494
    3       -9.156661
    4       -8.073412
    5        3.194654
    6        3.627036
    7        4.007438
    8        4.398106
 
  0.2222222E+00  0.1666667E+00  0.0000000E+00  0.1543210E-02
    1      -19.604568
    2      -11.615034
    3       -9.919636
    4       -7.268788
    5        2.342475
    6        4.179339
    7        4.991235
    8        5.413562
 
  0.2777778E+00  0.1666667E+00  0.0000000E+00  0.1543210E-02
    1      -18.770035
    2      -12.869772
    3      -10.452521
    4       -6.352379
    5        1.021465
    6        5.353028
    7        6.152171
    8        6.630689
 
  0.3333333E+00  0.1666667E+00  0.0000000E+00  0.1543210E-02
    1      -17.825489
    2      -14.144615
    3      -10.789799
    4       -5.396870
    5       -0.228404
    6        6.698240
    7        7.275468
    8        7.445451
 
  0.3888889E+00  0.1666667E+00  0.0000000E+00  0.1543210E-02
    1      -16.854729
    2      -15.292860
    3      -10.954963
    4       -4.634655
    5       -1.146122
    6        7.174780
    7        8.237483
    8        8.632767
 
  0.4444444E+00  0.1666667E+00  0.0000000E+00  0.1543210E-02
    1      -16.858689
    2      -15.288520
    3      -10.955593
    4       -4.636245
    5       -1.144849
    6        7.175688
    7        8.229983
    8        8.629443
 
  0.5000000E+00  0.1666667E+00  0.0000000E+00  0.1543210E-02
    1      -17.830022
    2      -14.139041
    3      -10.791491
    4       -5.399986
    5       -0.226361
    6        6.692029
    7        7.278261
    8        7.440202
 
 -0.4444444E+00  0.1666667E+00  0.0000000E+00  0.1543210E-02
    1      -18.774092
    2      -12.864806
    3      -10.454427
    4       -6.355718
    5        1.022699
    6        5.347590
    7        6.147190
    8        6.625341
 
 -0.3888889E+00  0.1666667E+00  0.0000000E+00  0.1543210E-02
    1      -19.608047
    2      -11.612901
    3       -9.919518
    4       -7.271907
    5        2.342128
    6        4.174779
    7        4.986901
    8        5.409030
 
 -0.3333333E+00  0.1666667E+00  0.0000000E+00  0.1543210E-02
    1      -20.314757
    2      -10.506622
    3       -9.150906
    4       -8.076108
    5        3.190945
    6        3.624732
    7        4.003882
    8        4.394401
 
 -0.2777778E+00  0.1666667E+00  0.0000000E+00  0.1543210E-02
    1      -20.886340
    2       -9.592438
    3       -8.738640
    4       -8.224963
    5        2.400931
    6        3.210682
    7        3.582486
    8        4.487889
 
 -0.2222222E+00  0.1666667E+00  0.0000000E+00  0.1543210E-02
    1      -21.318115
    2       -9.244469
    3       -8.791287
    4       -7.395898
    5        1.807323
    6        2.613587
    7        2.973574
    8        3.890888
 
 -0.1666667E+00  0.1666667E+00  0.0000000E+00  0.7716049E-03
    1      -21.607273
    2       -9.585347
    3       -8.077450
    4       -6.895625
    5        1.411624
    6        2.214680
    7        2.567814
    8        3.490843
 
  0.2222222E+00  0.2222222E+00  0.0000000E+00  0.7716049E-03
    1      -18.839064
    2      -12.415938
    3      -10.887546
    4       -6.414853
    5        1.196980
    6        5.256651
    7        6.039513
    8        6.530269
 
  0.2777778E+00  0.2222222E+00  0.0000000E+00  0.1543210E-02
    1      -17.956286
    2      -13.416663
    3      -11.545850
    4       -5.470708
    5        0.031063
    6        6.515341
    7        7.193129
    8        7.848253
 
  0.3333333E+00  0.2222222E+00  0.0000000E+00  0.1543210E-02
    1      -16.989914
    2      -14.528769
    3      -11.887115
    4       -4.543089
    5       -1.037514
    6        7.928561
    7        8.134492
    8        8.731861
 
  0.3888889E+00  0.2222222E+00  0.0000000E+00  0.1543210E-02
    1      -16.267512
    2      -15.311690
    3      -11.992339
    4       -4.045847
    5       -1.583790
    6        8.391017
    7        8.658616
    8        9.337710
 
  0.4444444E+00  0.2222222E+00  0.0000000E+00  0.1543210E-02
    1      -16.995943
    2      -14.522336
    3      -11.887707
    4       -4.546678
    5       -1.035292
    6        7.919270
    7        8.131160
    8        8.733595
 
  0.5000000E+00  0.2222222E+00  0.0000000E+00  0.1543210E-02
    1      -17.961995
    2      -13.411716
    3      -11.545397
    4       -5.475101
    5        0.032507
    6        6.507442
    7        7.187066
    8        7.840553
 
 -0.4444444E+00  0.2222222E+00  0.0000000E+00  0.1543210E-02
    1      -18.844079
    2      -12.416306
    3      -10.882640
    4       -6.419160
    5        1.196477
    6        5.249993
    7        6.033571
    8        6.523677
 
 -0.3888889E+00  0.2222222E+00  0.0000000E+00  0.1543210E-02
    1      -19.608772
    2      -11.621519
    3       -9.909297
    4       -7.272652
    5        2.339608
    6        4.173845
    7        4.986131
    8        5.408077
 
 -0.3333333E+00  0.2222222E+00  0.0000000E+00  0.1543210E-02
    1      -20.244067
    2      -10.906512
    3       -8.863465
    4       -7.997227
    5        3.287914
    6        3.404452
    7        4.120807
    8        4.494860
 
 -0.2777778E+00  0.2222222E+00  0.0000000E+00  0.1543210E-02
    1      -20.743209
    2      -10.182655
    3       -8.573852
    4       -7.995712
    5        2.596719
    6        3.398461
    7        3.784566
    8        4.388755
 
 -0.2222222E+00  0.2222222E+00  0.0000000E+00  0.7716049E-03
    1      -21.102070
    2       -9.451982
    3       -8.991715
    4       -7.489180
    5        2.102953
    6        2.910097
    7        3.277475
    8        4.185991
 
  0.2777778E+00  0.2777778E+00  0.0000000E+00  0.7716049E-03
    1      -17.044099
    2      -14.047222
    3      -12.423379
    4       -4.520258
    5       -0.975460
    6        7.837813
    7        7.938460
    8        9.264349
 
  0.3333333E+00  0.2777778E+00  0.0000000E+00  0.1543210E-02
    1      -16.110842
    2      -14.860521
    3      -12.853623
    4       -3.645531
    5       -1.873768
    6        8.016880
    7        9.235484
    8        9.999426
 
  0.3888889E+00  0.2777778E+00  0.0000000E+00  0.1543210E-02
    1      -16.117398
    2      -14.854851
    3      -12.852691
    4       -3.648884
    5       -1.871570
    6        8.016908
    7        9.222308
    8       10.003104
 
  0.4444444E+00  0.2777778E+00  0.0000000E+00  0.1543210E-02
    1      -17.051467
    2      -14.044491
    3      -12.418565
    4       -4.525492
    5       -0.973742
    6        7.827011
    7        7.936047
    8        9.254061
 
  0.5000000E+00  0.2777778E+00  0.0000000E+00  0.1543210E-02
    1      -17.962955
    2      -13.419501
    3      -11.535952
    4       -5.476121
    5        0.030554
    6        6.506278
    7        7.186555
    8        7.839357
 
 -0.4444444E+00  0.2777778E+00  0.0000000E+00  0.1543210E-02
    1      -18.775778
    2      -12.876527
    3      -10.439444
    4       -6.357437
    5        1.018355
    6        5.345501
    7        6.145513
    8        6.623216
 
 -0.3888889E+00  0.2777778E+00  0.0000000E+00  0.1543210E-02
    1      -19.468729
    2      -12.290933
    3       -9.371740
    4       -7.126575
    5        1.969430
    6        4.366736
    7        5.199816
    8        5.608395
 
 -0.3333333E+00  0.2777778E+00  0.0000000E+00  0.1543210E-02
    1      -20.031337
    2      -11.631572
    3       -8.519642
    4       -7.760852
    5        2.867088
    6        3.579544
    7        4.429750
    8        4.796713
 
 -0.2777778E+00  0.2777778E+00  0.0000000E+00  0.7716049E-03
    1      -20.457467
    2      -10.911776
    3       -8.246191
    4       -8.041891
    5        2.989264
    6        3.591403
    7        3.938183
    8        4.189265
 
  0.3333333E+00  0.3333333E+00  0.0000000E+00  0.7716049E-03
    1      -15.341186
    2      -15.334328
    3      -13.293790
    4       -2.749003
    5       -2.743983
    6        7.873622
    7       10.132665
    8       10.149372
 
  0.3888889E+00  0.3333333E+00  0.0000000E+00  0.1543210E-02
    1      -16.119275
    2      -14.859882
    3      -12.845334
    4       -3.651195
    5       -1.871491
    6        8.018591
    7        9.221472
    8       10.030203
 
  0.4444444E+00  0.3333333E+00  0.0000000E+00  0.1543210E-02
    1      -16.998200
    2      -14.531923
    3      -11.874702
    4       -4.549300
    5       -1.037822
    6        7.917195
    7        8.132835
    8        8.772076
 
  0.5000000E+00  0.3333333E+00  0.0000000E+00  0.1543210E-02
    1      -17.832850
    2      -14.150535
    3      -10.775049
    4       -5.402995
    5       -0.231414
    6        6.689485
    7        7.314819
    8        7.438112
 
 -0.4444444E+00  0.3333333E+00  0.0000000E+00  0.1543210E-02
    1      -18.570591
    2      -13.663821
    3       -9.740702
    4       -6.175685
    5        0.567907
    6        5.617019
    7        6.071149
    8        6.469078
 
 -0.3888889E+00  0.3333333E+00  0.0000000E+00  0.1543210E-02
    1      -19.189624
    2      -13.068677
    3       -8.933967
    4       -6.838765
    5        1.369100
    6        4.736900
    7        5.242320
    8        5.610825
 
 -0.3333333E+00  0.3333333E+00  0.0000000E+00  0.7716049E-03
    1      -19.678657
    2      -12.379918
    3       -8.506353
    4       -7.371761
    5        2.154397
    6        4.062822
    7        4.926444
    8        4.990623
 
  0.3888889E+00  0.3888889E+00  0.0000000E+00  0.7716049E-03
    1      -16.274363
    2      -15.317026
    3      -11.978851
    4       -4.051197
    5       -1.584751
    6        8.394796
    7        8.697729
    8        9.326662
 
  0.4444444E+00  0.3888889E+00  0.0000000E+00  0.1543210E-02
    1      -16.863475
    2      -15.297961
    3      -10.939089
    4       -4.641150
    5       -1.149130
    6        7.214646
    7        8.224931
    8        8.630577
 
  0.5000000E+00  0.3888889E+00  0.0000000E+00  0.1543210E-02
    1      -17.581011
    2      -14.952261
    3       -9.964576
    4       -5.280884
    5       -0.615121
    6        5.926775
    7        7.102344
    8        7.894054
 
 -0.4444444E+00  0.3888889E+00  0.0000000E+00  0.1543210E-02
    1      -18.233612
    2      -14.439441
    3       -9.219109
    4       -5.890527
    5        0.003336
    6        5.060453
    7        6.143552
    8        6.984189
 
 -0.3888889E+00  0.3888889E+00  0.0000000E+00  0.7716049E-03
    1      -18.775331
    2      -13.801609
    3       -8.853894
    4       -6.420295
    5        0.682118
    6        4.782788
    7        5.378006
    8        6.209082
 
  0.4444444E+00  0.4444444E+00  0.0000000E+00  0.7716049E-03
    1      -16.836975
    2      -15.798020
    3      -10.039616
    4       -4.844515
    5       -1.150574
    6        5.892729
    7        8.619981
    8        8.792841
 
  0.5000000E+00  0.4444444E+00  0.0000000E+00  0.1543210E-02
    1      -17.245674
    2      -15.639869
    3       -9.364145
    4       -5.161631
    5       -0.943380
    6        4.992284
    7        7.676495
    8        8.521246
 
 -0.4444444E+00  0.4444444E+00  0.0000000E+00  0.7716049E-03
    1      -17.777889
    2      -15.119433
    3       -9.068070
    4       -5.534500
    5       -0.535108
    6        4.690932
    7        6.816754
    8        7.677833
 
  0.5000000E+00  0.5000000E+00  0.0000000E+00  0.3858025E-03
    1      -17.024780
    2      -15.980780
    3       -9.140293
    4       -5.110773
    5       -1.072255
    6        4.654841
    7        8.365834
    8        8.520499
 
  0.0000000E+00  0.0000000E+00  0.1250000E+00  0.7716049E-03
    1      -22.261263
    2      -10.362616
    3       -5.785610
    4       -5.765902
    5        0.521946
    6        1.304002
    7        1.679630
    8        2.521602
 
  0.5555556E-01  0.3469447E-17  0.1250000E+00  0.3086420E-02
    1      -22.188243
    2      -10.275442
    3       -6.069239
    4       -5.936681
    5        0.620972
    6        1.404418
    7        1.781063
    8        2.622252
 
  0.1111111E+00  0.6938894E-17  0.1250000E+00  0.3086420E-02
    1      -21.969558
    2      -10.014961
    3       -6.887050
    4       -6.352779
    5        0.918102
    6        1.705454
    7        2.085367
    8        2.924076
 
  0.1666667E+00  0.1387779E-16  0.1250000E+00  0.3086420E-02
    1      -21.606305
    2       -9.584362
    3       -8.061980
    4       -6.912274
    5        1.413179
    6        2.206261
    7        2.592483
    8        3.426438
 
  0.2222222E+00  0.2775558E-16  0.1250000E+00  0.3086420E-02
    1      -21.100377
    2       -9.437018
    3       -8.990017
    4       -7.506807
    5        2.105424
    6        2.903449
    7        3.302047
    8        4.124900
 
  0.2777778E+00  0.2775558E-16  0.1250000E+00  0.3086420E-02
    1      -20.454834
    2      -10.897829
    3       -8.243574
    4       -8.060392
    5        2.992870
    6        3.597069
    7        3.931506
    8        4.218416
 
  0.3333333E+00  0.8326673E-16  0.1250000E+00  0.3086420E-02
    1      -19.674896
    2      -12.367342
    3       -8.525560
    4       -7.368080
    5        2.162621
    6        4.067306
    7        4.922609
    8        4.958889
 
  0.3888889E+00  0.2775558E-16  0.1250000E+00  0.3086420E-02
    1      -18.770243
    2      -13.790612
    3       -8.873639
    4       -6.415429
    5        0.690217
    6        4.749057
    7        5.383219
    8        6.208593
 
  0.4444444E+00  0.5551115E-16  0.1250000E+00  0.3086420E-02
    1      -17.771269
    2      -15.110189
    3       -9.088166
    4       -5.528446
    5       -0.527613
    6        4.654724
    7        6.825534
    8        7.680502
 
  0.5000000E+00  0.5551115E-16  0.1250000E+00  0.1543210E-02
    1      -17.016537
    2      -15.973193
    3       -9.160473
    4       -5.104079
    5       -1.065223
    6        4.618280
    7        8.378091
    8        8.530343
 
  0.5555556E-01  0.5555556E-01  0.1250000E+00  0.1543210E-02
    1      -22.042280
    2      -10.101507
    3       -6.596580
    4       -6.253588
    5        0.819217
    6        1.605285
    7        1.984075
    8        2.823637
 
  0.1111111E+00  0.5555556E-01  0.1250000E+00  0.3086420E-02
    1      -21.751216
    2       -9.755784
    3       -7.542623
    4       -6.792667
    5        1.215600
    6        2.006431
    7        2.389953
    8        3.225992
 
  0.1666667E+00  0.5555556E-01  0.1250000E+00  0.3086420E-02
    1      -21.316513
    2       -9.242866
    3       -8.777034
    4       -7.411457
    5        1.809684
    6        2.606365
    7        2.998566
    8        3.828035
 
  0.2222222E+00  0.5555556E-01  0.1250000E+00  0.3086420E-02
    1      -20.740668
    2      -10.169336
    3       -8.571338
    4       -8.012073
    5        2.600261
    6        3.393955
    7        3.808516
    8        4.394017
 
  0.2777778E+00  0.5555556E-01  0.1250000E+00  0.3086420E-02
    1      -20.027665
    2      -11.619521
    3       -8.536904
    4       -7.757285
    5        2.874339
    6        3.584450
    7        4.425679
    8        4.823377
 
  0.3333333E+00  0.5555556E-01  0.1250000E+00  0.3086420E-02
    1      -19.184622
    2      -13.058109
    3       -8.952130
    4       -6.834030
    5        1.376425
    6        4.741088
    7        5.208729
    8        5.609884
 
  0.3888889E+00  0.5555556E-01  0.1250000E+00  0.3086420E-02
    1      -18.227103
    2      -14.430447
    3       -9.238018
    4       -5.884630
    5        0.010298
    6        5.023782
    7        6.151884
    8        6.986422
 
  0.4444444E+00  0.5555556E-01  0.1250000E+00  0.3086420E-02
    1      -17.237537
    2      -15.632434
    3       -9.383629
    4       -5.154952
    5       -0.936830
    6        4.955084
    7        7.687629
    8        8.526512
 
  0.5000000E+00  0.5555556E-01  0.1250000E+00  0.3086420E-02
    1      -17.238885
    2      -15.630920
    3       -9.383979
    4       -5.155457
    5       -0.936362
    6        4.955547
    7        7.685140
    8        8.524458
 
 -0.4444444E+00  0.5555556E-01  0.1250000E+00  0.3086420E-02
    1      -18.228630
    2      -14.428444
    3       -9.239022
    4       -5.885665
    5        0.011190
    6        5.025136
    7        6.149804
    8        6.984475
 
 -0.3888889E+00  0.5555556E-01  0.1250000E+00  0.3086420E-02
    1      -19.185994
    2      -13.055996
    3       -8.953661
    4       -6.835152
    5        1.377211
    6        4.739516
    7        5.210769
    8        5.608150
 
 -0.3333333E+00  0.5555556E-01  0.1250000E+00  0.3086420E-02
    1      -20.028833
    2      -11.617618
    3       -8.538698
    4       -7.758336
    5        2.874727
    6        3.582940
    7        4.424180
    8        4.821886
 
 -0.2777778E+00  0.5555556E-01  0.1250000E+00  0.3086420E-02
    1      -20.741627
    2      -10.168096
    3       -8.572250
    4       -8.013511
    5        2.599024
    6        3.392821
    7        3.807292
    8        4.393702
 
 -0.2222222E+00  0.5555556E-01  0.1250000E+00  0.3086420E-02
    1      -21.317257
    2       -9.243599
    3       -8.777593
    4       -7.411230
    5        1.808723
    6        2.605435
    7        2.997608
    8        3.827097
 
 -0.1666667E+00  0.5555556E-01  0.1250000E+00  0.3086420E-02
    1      -21.751748
    2       -9.756314
    3       -7.547472
    4       -6.788096
    5        1.214913
    6        2.005761
    7        2.389268
    8        3.225317
 
 -0.1111111E+00  0.5555556E-01  0.1250000E+00  0.3086420E-02
    1      -22.042606
    2      -10.101832
    3       -6.609406
    4       -6.240873
    5        0.818804
    6        1.604882
    7        1.983663
    8        2.823230
 
 -0.5555556E-01  0.5555556E-01  0.1250000E+00  0.1543210E-02
    1      -22.188350
    2      -10.275552
    3       -6.083773
    4       -5.922122
    5        0.620834
    6        1.404283
    7        1.780926
    8        2.622117
 
  0.1111111E+00  0.1111111E+00  0.1250000E+00  0.1543210E-02
    1      -21.388698
    2       -9.327503
    3       -8.443646
    4       -7.496847
    5        1.711217
    6        2.507081
    7        2.897404
    8        3.728563
 
  0.1666667E+00  0.1111111E+00  0.1250000E+00  0.3086420E-02
    1      -20.884109
    2       -9.581950
    3       -8.736445
    4       -8.236800
    5        2.404099
    6        3.204879
    7        3.607473
    8        4.428283
 
  0.2222222E+00  0.1111111E+00  0.1250000E+00  0.3086420E-02
    1      -20.240693
    2      -10.895932
    3       -8.877372
    4       -7.993987
    5        3.292543
    6        3.409645
    7        4.116563
    8        4.520806
 
  0.2777778E+00  0.1111111E+00  0.1250000E+00  0.3086420E-02
    1      -19.464019
    2      -12.281301
    3       -9.387124
    4       -7.122185
    5        1.974947
    6        4.373022
    7        5.198641
    8        5.634121
 
  0.3333333E+00  0.1111111E+00  0.1250000E+00  0.3086420E-02
    1      -18.564379
    2      -13.655477
    3       -9.757296
    4       -6.170102
    5        0.573367
    6        5.622484
    7        6.035407
    8        6.471129
 
  0.3888889E+00  0.1111111E+00  0.1250000E+00  0.3086420E-02
    1      -17.573160
    2      -14.945340
    3       -9.982150
    4       -5.274360
    5       -0.609974
    6        5.888182
    7        7.112814
    8        7.899133
 
  0.4444444E+00  0.1111111E+00  0.1250000E+00  0.3086420E-02
    1      -16.829076
    2      -15.790847
    3      -10.057912
    4       -4.838153