  32  32   0   0
  0.9254429E+01  0.4932875E-09  0.4932875E-09  0.1405931E-08  0.5000000E-15
  1.000000000000000E-004
  CAR 
 graphite                                
     14.70226180    -17.31513033  301      4.27649426      1.00000000
    -17.315  0.0000E+00  0.0000E+00
    -17.208  0.0000E+00  0.0000E+00
    -17.102  0.0000E+00  0.0000E+00
    -16.995  0.0000E+00  0.0000E+00
    -16.888  0.0000E+00  0.0000E+00
    -16.782  0.0000E+00  0.0000E+00
    -16.675  0.0000E+00  0.0000E+00
    -16.568  0.0000E+00  0.0000E+00
    -16.461  0.0000E+00  0.0000E+00
    -16.355  0.0000E+00  0.0000E+00
    -16.248  0.0000E+00  0.0000E+00
    -16.141  0.0000E+00  0.0000E+00
    -16.034  0.0000E+00  0.0000E+00
    -15.928  0.0000E+00  0.0000E+00
    -15.821  0.0000E+00  0.0000E+00
    -15.714  0.0000E+00  0.0000E+00
    -15.608  0.0000E+00  0.0000E+00
    -15.501  0.0000E+00  0.0000E+00
    -15.394  0.0000E+00  0.0000E+00
    -15.287  0.2051E+00  0.2170E-02
    -15.181  0.2471E+01  0.1284E+00
    -15.074  0.4216E+01  0.4925E+00
    -14.967  0.5104E+01  0.1011E+01
    -14.860  0.4855E+01  0.1516E+01
    -14.754  0.5145E+01  0.2054E+01
    -14.647  0.5032E+01  0.2600E+01
    -14.540  0.4794E+01  0.3123E+01
    -14.434  0.4836E+01  0.3633E+01
    -14.327  0.5056E+01  0.4161E+01
    -14.220  0.5275E+01  0.4712E+01
    -14.113  0.7098E+01  0.5344E+01
    -14.007  0.8069E+01  0.6160E+01
    -13.900  0.6303E+01  0.7013E+01
    -13.793  0.2576E+01  0.7466E+01
    -13.686  0.1885E+01  0.7689E+01
    -13.580  0.2151E+01  0.7901E+01
    -13.473  0.2508E+01  0.8150E+01
    -13.366  0.2866E+01  0.8436E+01
    -13.260  0.6468E+01  0.8839E+01
    -13.153  0.9939E+01  0.9940E+01
    -13.046  0.7328E+01  0.1090E+02
    -12.939  0.3984E+01  0.1139E+02
    -12.833  0.4082E+01  0.1182E+02
    -12.726  0.4181E+01  0.1226E+02
    -12.619  0.4302E+01  0.1271E+02
    -12.513  0.4433E+01  0.1318E+02
    -12.406  0.4556E+01  0.1366E+02
    -12.299  0.4680E+01  0.1415E+02
    -12.192  0.5345E+01  0.1468E+02
    -12.086  0.6274E+01  0.1529E+02
    -11.979  0.6211E+01  0.1598E+02
    -11.872  0.5672E+01  0.1661E+02
    -11.765  0.5381E+01  0.1720E+02
    -11.659  0.5540E+01  0.1778E+02
    -11.552  0.5702E+01  0.1838E+02
    -11.445  0.5865E+01  0.1900E+02
    -11.339  0.6027E+01  0.1963E+02
    -11.232  0.5637E+01  0.2026E+02
    -11.125  0.5307E+01  0.2084E+02
    -11.018  0.5357E+01  0.2141E+02
    -10.912  0.4518E+01  0.2195E+02
    -10.805  0.4304E+01  0.2240E+02
    -10.698  0.4987E+01  0.2290E+02
    -10.591  0.5163E+01  0.2344E+02
    -10.485  0.5339E+01  0.2401E+02
    -10.378  0.7283E+01  0.2464E+02
    -10.271  0.1159E+02  0.2568E+02
    -10.165  0.9313E+01  0.2679E+02
    -10.058  0.7040E+01  0.2766E+02
     -9.951  0.4960E+01  0.2830E+02
     -9.844  0.4412E+01  0.2879E+02
     -9.738  0.3965E+01  0.2924E+02
     -9.631  0.3518E+01  0.2964E+02
     -9.524  0.6674E+01  0.3029E+02
     -9.418  0.2067E+01  0.3085E+02
     -9.311  0.1868E+01  0.3106E+02
     -9.204  0.1669E+01  0.3125E+02
     -9.097  0.1470E+01  0.3142E+02
     -8.991  0.1271E+01  0.3157E+02
     -8.884  0.1404E+01  0.3170E+02
     -8.777  0.1901E+01  0.3188E+02
     -8.670  0.2397E+01  0.3211E+02
     -8.564  0.2894E+01  0.3239E+02
     -8.457  0.6022E+01  0.3282E+02
     -8.350  0.1055E+02  0.3371E+02
     -8.244  0.5048E+01  0.3458E+02
     -8.137  0.5301E+01  0.3511E+02
     -8.030  0.6425E+01  0.3573E+02
     -7.923  0.7548E+01  0.3648E+02
     -7.817  0.8671E+01  0.3734E+02
     -7.710  0.9794E+01  0.3833E+02
     -7.603  0.5916E+01  0.3923E+02
     -7.496  0.5539E+01  0.3982E+02
     -7.390  0.5609E+01  0.4042E+02
     -7.283  0.5558E+01  0.4102E+02
     -7.176  0.5409E+01  0.4160E+02
     -7.070  0.5236E+01  0.4217E+02
     -6.963  0.5110E+01  0.4272E+02
     -6.856  0.4992E+01  0.4326E+02
     -6.749  0.4874E+01  0.4379E+02
     -6.643  0.4755E+01  0.4430E+02
     -6.536  0.4637E+01  0.4480E+02
     -6.429  0.4519E+01  0.4529E+02
     -6.322  0.4399E+01  0.4577E+02
     -6.216  0.4599E+01  0.4624E+02
     -6.109  0.5194E+01  0.4676E+02
     -6.002  0.5770E+01  0.4735E+02
     -5.896  0.6345E+01  0.4800E+02
     -5.789  0.6920E+01  0.4870E+02
     -5.682  0.7496E+01  0.4947E+02
     -5.575  0.8071E+01  0.5030E+02
     -5.469  0.8647E+01  0.5120E+02
     -5.362  0.6885E+01  0.5212E+02
     -5.255  0.4256E+01  0.5261E+02
     -5.149  0.7573E+01  0.5321E+02
     -5.042  0.6212E+01  0.5395E+02
     -4.935  0.4797E+01  0.5454E+02
     -4.828  0.3382E+01  0.5498E+02
     -4.722  0.1967E+01  0.5526E+02
     -4.615  0.1269E+01  0.5541E+02
     -4.508  0.2696E+01  0.5562E+02
     -4.401  0.4123E+01  0.5598E+02
     -4.295  0.5550E+01  0.5650E+02
     -4.188  0.9615E+01  0.5725E+02
     -4.081  0.1112E+02  0.5844E+02
     -3.975  0.1044E+02  0.5959E+02
     -3.868  0.1204E+02  0.6077E+02
     -3.761  0.6642E+01  0.6188E+02
     -3.654  0.5125E+01  0.6246E+02
     -3.548  0.5953E+01  0.6305E+02
     -3.441  0.7056E+01  0.6373E+02
     -3.334  0.1214E+02  0.6476E+02
     -3.227  0.1747E+02  0.6633E+02
     -3.121  0.8038E+01  0.6860E+02
     -3.014  0.6598E+01  0.6931E+02
     -2.907  0.6845E+01  0.7002E+02
     -2.801  0.7205E+01  0.7077E+02
     -2.694  0.8065E+01  0.7157E+02
     -2.587  0.1218E+02  0.7264E+02
     -2.480  0.1571E+02  0.7441E+02
     -2.374  0.1309E+02  0.7594E+02
     -2.267  0.1060E+02  0.7723E+02
     -2.160  0.2109E+02  0.7885E+02
     -2.054  0.1593E+02  0.8190E+02
     -1.947  0.2049E+02  0.8398E+02
     -1.840  0.1313E+02  0.8549E+02
     -1.733  0.1488E+02  0.8698E+02
     -1.627  0.1465E+02  0.8858E+02
     -1.520  0.8005E+01  0.8965E+02
     -1.413  0.7025E+01  0.9039E+02
     -1.306  0.8369E+01  0.9123E+02
     -1.200  0.8686E+01  0.9213E+02
     -1.093  0.9751E+01  0.9311E+02
     -0.986  0.1001E+02  0.9418E+02
     -0.880  0.9994E+01  0.9524E+02
     -0.773  0.1142E+02  0.9639E+02
     -0.666  0.1172E+02  0.9820E+02
     -0.559  0.1131E+02  0.9941E+02
     -0.453  0.1182E+02  0.1006E+03
     -0.346  0.1002E+02  0.1019E+03
     -0.239  0.1059E+02  0.1030E+03
     -0.132  0.9954E+01  0.1041E+03
     -0.026  0.9660E+01  0.1051E+03
      0.081  0.9547E+01  0.1062E+03
      0.188  0.9578E+01  0.1072E+03
      0.294  0.9316E+01  0.1082E+03
      0.401  0.9073E+01  0.1092E+03
      0.508  0.8994E+01  0.1101E+03
      0.615  0.9327E+01  0.1111E+03
      0.721  0.9729E+01  0.1121E+03
      0.828  0.9857E+01  0.1132E+03
      0.935  0.1097E+02  0.1143E+03
      1.042  0.1030E+02  0.1154E+03
      1.148  0.8898E+01  0.1164E+03
      1.255  0.7341E+01  0.1173E+03
      1.362  0.6152E+01  0.1180E+03
      1.468  0.5770E+01  0.1186E+03
      1.575  0.4468E+01  0.1192E+03
      1.682  0.3219E+01  0.1196E+03
      1.789  0.2866E+01  0.1199E+03
      1.895  0.4397E+01  0.1203E+03
      2.002  0.6462E+01  0.1208E+03
      2.109  0.9623E+01  0.1217E+03
      2.215  0.8559E+01  0.1228E+03
      2.322  0.7082E+01  0.1236E+03
      2.429  0.6194E+01  0.1244E+03
      2.536  0.5418E+01  0.1250E+03
      2.642  0.4083E+01  0.1255E+03
      2.749  0.3458E+01  0.1259E+03
      2.856  0.3098E+01  0.1262E+03
      2.963  0.2748E+01  0.1265E+03
      3.069  0.2396E+01  0.1268E+03
      3.176  0.2080E+01  0.1270E+03
      3.283  0.1751E+01  0.1273E+03
      3.389  0.1457E+01  0.1274E+03
      3.496  0.1252E+01  0.1276E+03
      3.603  0.1046E+01  0.1277E+03
      3.710  0.8411E+00  0.1278E+03
      3.816  0.6368E+00  0.1279E+03
      3.923  0.4612E+00  0.1279E+03
      4.030  0.3054E+00  0.1280E+03
      4.137  0.1638E+00  0.1280E+03
      4.243  0.3449E-01  0.1280E+03
      4.350  0.6665E-01  0.1280E+03
      4.457  0.1839E+00  0.1280E+03
      4.563  0.3156E+00  0.1280E+03
      4.670  0.4642E+00  0.1281E+03
      4.777  0.6372E+00  0.1281E+03
      4.884  0.8522E+00  0.1282E+03
      4.990  0.1073E+01  0.1283E+03
      5.097  0.1293E+01  0.1285E+03
      5.204  0.1514E+01  0.1286E+03
      5.310  0.1735E+01  0.1288E+03
      5.417  0.2453E+01  0.1290E+03
      5.524  0.3574E+01  0.1293E+03
      5.631  0.3979E+01  0.1297E+03
      5.737  0.4674E+01  0.1302E+03
      5.844  0.7545E+01  0.1308E+03
      5.951  0.1112E+02  0.1318E+03
      6.058  0.9930E+01  0.1330E+03
      6.164  0.7755E+01  0.1339E+03
      6.271  0.6510E+01  0.1347E+03
      6.378  0.6005E+01  0.1353E+03
      6.484  0.5698E+01  0.1360E+03
      6.591  0.4951E+01  0.1365E+03
      6.698  0.4536E+01  0.1370E+03
      6.805  0.4093E+01  0.1375E+03
      6.911  0.3770E+01  0.1379E+03
      7.018  0.3878E+01  0.1383E+03
      7.125  0.4304E+01  0.1387E+03
      7.232  0.4707E+01  0.1392E+03
      7.338  0.4807E+01  0.1397E+03
      7.445  0.4684E+01  0.1402E+03
      7.552  0.4552E+01  0.1407E+03
      7.658  0.4372E+01  0.1412E+03
      7.765  0.4222E+01  0.1417E+03
      7.872  0.4124E+01  0.1421E+03
      7.979  0.4059E+01  0.1426E+03
      8.085  0.4016E+01  0.1430E+03
      8.192  0.3985E+01  0.1434E+03
      8.299  0.4025E+01  0.1438E+03
      8.406  0.4343E+01  0.1443E+03
      8.512  0.4335E+01  0.1448E+03
      8.619  0.4072E+01  0.1452E+03
      8.726  0.4018E+01  0.1456E+03
      8.832  0.3950E+01  0.1461E+03
      8.939  0.3880E+01  0.1465E+03
      9.046  0.3856E+01  0.1469E+03
      9.153  0.3901E+01  0.1473E+03
      9.259  0.3944E+01  0.1477E+03
      9.366  0.3985E+01  0.1481E+03
      9.473  0.4028E+01  0.1486E+03
      9.579  0.4046E+01  0.1490E+03
      9.686  0.4200E+01  0.1494E+03
      9.793  0.4604E+01  0.1499E+03
      9.900  0.4799E+01  0.1504E+03
     10.006  0.6602E+01  0.1510E+03
     10.113  0.5376E+01  0.1516E+03
     10.220  0.5534E+01  0.1522E+03
     10.327  0.6248E+01  0.1528E+03
     10.433  0.5494E+01  0.1534E+03
     10.540  0.5812E+01  0.1541E+03
     10.647  0.3795E+01  0.1546E+03
     10.753  0.2933E+01  0.1549E+03
     10.860  0.4303E+01  0.1553E+03
     10.967  0.3193E+01  0.1557E+03
     11.074  0.2961E+01  0.1561E+03
     11.180  0.3048E+01  0.1564E+03
     11.287  0.3219E+01  0.1567E+03
     11.394  0.3379E+01  0.1571E+03
     11.501  0.4393E+01  0.1575E+03
     11.607  0.7267E+01  0.1580E+03
     11.714  0.8336E+01  0.1589E+03
     11.821  0.9668E+01  0.1599E+03
     11.927  0.1157E+02  0.1610E+03
     12.034  0.1255E+02  0.1623E+03
     12.141  0.1299E+02  0.1637E+03
     12.248  0.1359E+02  0.1651E+03
     12.354  0.1226E+02  0.1665E+03
     12.461  0.7169E+01  0.1676E+03
     12.568  0.7050E+00  0.1680E+03
     12.674  0.5500E-02  0.1680E+03
     12.781  0.0000E+00  0.1680E+03
     12.888  0.0000E+00  0.1680E+03
     12.995  0.0000E+00  0.1680E+03
     13.101  0.0000E+00  0.1680E+03
     13.208  0.0000E+00  0.1680E+03
     13.315  0.0000E+00  0.1680E+03
     13.422  0.0000E+00  0.1680E+03
     13.528  0.0000E+00  0.1680E+03
     13.635  0.0000E+00  0.1680E+03
     13.742  0.0000E+00  0.1680E+03
     13.848  0.0000E+00  0.1680E+03
     13.955  0.0000E+00  0.1680E+03
     14.062  0.0000E+00  0.1680E+03
     14.169  0.0000E+00  0.1680E+03
     14.275  0.0000E+00  0.1680E+03
     14.382  0.0000E+00  0.1680E+03
     14.489  0.0000E+00  0.1680E+03
     14.596  0.0000E+00  0.1680E+03
     14.702  0.0000E+00  0.1680E+03
