    4    4  200    1
  0.8643287E+01  0.2466437E-09  0.2466437E-09  0.6565433E-09  0.5000000E-15
  1.000000000000000E-004
  CAR 
 graphite                                
     16    215     12
 
  0.0000000E+00  0.0000000E+00  0.0000000E+00  0.8680556E-03
    1      -14.784690
    2      -14.430388
    3       -3.725121
    4       -1.532753
    5        1.866735
    6        1.883268
    7        1.890227
    8        1.906092
    9        9.367254
   10       13.200316
   11       13.217691
   12       13.262940
 
  0.8333333E-01  0.6938894E-17  0.0000000E+00  0.3472222E-02
    1      -14.618723
    2      -14.267834
    3       -3.523712
    4       -1.345842
    5        1.217724
    6        1.259398
    7        1.526099
    8        1.561509
    9        9.565014
   10       13.249882
   11       13.348991
   12       13.898813
 
  0.1666667E+00  0.1387779E-16  0.0000000E+00  0.3472222E-02
    1      -14.122702
    2      -13.781988
    3       -2.923554
    4       -0.791490
    5       -0.441350
    6       -0.362711
    7        0.725273
    8        0.775408
    9       10.159943
   10       13.136244
   11       13.349643
   12       14.011092
 
  0.2500000E+00  0.2775558E-16  0.0000000E+00  0.3472222E-02
    1      -13.302429
    2      -12.978581
    3       -2.563524
    4       -2.443592
    5       -1.940167
    6       -0.159803
    7       -0.100145
    8        0.105088
    9       11.143405
   10       11.774792
   11       12.497830
   12       12.793522
 
  0.3333333E+00  0.2775558E-16  0.0000000E+00  0.3472222E-02
    1      -12.170349
    2      -11.869729
    3       -4.790269
    4       -4.629282
    5       -0.895790
    6       -0.831175
    7       -0.612115
    8        1.273910
    9        9.331386
   10       10.343068
   11       12.305901
   12       12.529583
 
  0.4166667E+00  0.2775558E-16  0.0000000E+00  0.3472222E-02
    1      -10.757003
    2      -10.488531
    3       -6.909712
    4       -6.714801
    5       -1.370158
    6       -1.302633
    7        0.943060
    8        2.460392
    9        7.200877
   10        8.300503
   11       12.131269
   12       12.570141
 
  0.5000000E+00  0.5551115E-16  0.0000000E+00  0.1736111E-02
    1       -9.436659
    2       -9.302620
    3       -8.358294
    4       -8.258075
    5       -1.533034
    6       -1.464355
    7        2.051440
    8        2.824579
    9        6.398782
   10        7.125564
   11       12.039243
   12       12.501808
 
  0.8333333E-01  0.8333333E-01  0.0000000E+00  0.1736111E-02
    1      -14.287488
    2      -13.943378
    3       -3.122509
    4       -0.974799
    5        0.183156
    6        0.222499
    7        0.850930
    8        0.880499
    9        9.963287
   10       13.527054
   11       13.659798
   12       14.559349
 
  0.1666667E+00  0.8333333E-01  0.0000000E+00  0.3472222E-02
    1      -13.629077
    2      -13.298529
    3       -2.329721
    4       -1.552760
    5       -1.469782
    6       -0.247245
    7       -0.158956
    8       -0.104596
    9       10.759937
   10       12.713165
   11       13.226409
   12       13.600799
 
  0.2500000E+00  0.8333333E-01  0.0000000E+00  0.3472222E-02
    1      -12.652464
    2      -12.341979
    3       -3.653935
    4       -3.521085
    5       -1.169468
    6       -1.055072
    7       -0.982368
    8        0.796111
    9       10.438259
   10       11.221503
   11       11.936860
   12       13.295540
 
  0.3333333E+00  0.8333333E-01  0.0000000E+00  0.3472222E-02
    1      -11.376758
    2      -11.093253
    3       -5.800448
    4       -5.625279
    5       -1.694814
    6       -1.613961
    7        0.295274
    8        2.032592
    9        8.138990
   10        9.157080
   11       12.935065
   12       13.287234
 
  0.4166667E+00  0.8333333E-01  0.0000000E+00  0.3472222E-02
    1       -9.872991
    2       -9.637844
    3       -7.750670
    4       -7.558739
    5       -2.025871
    6       -1.941516
    7        1.819474
    8        2.937925
    9        6.552122
   10        7.399624
   11       12.770505
   12       13.248630
 
  0.5000000E+00  0.8333333E-01  0.0000000E+00  0.3472222E-02
    1       -9.875386
    2       -9.640121
    3       -7.747945
    4       -7.555815
    5       -2.026728
    6       -1.942347
    7        1.817943
    8        2.937642
    9        6.551690
   10        7.401814
   11       12.771497
   12       13.249630
 
 -0.4166667E+00  0.8333333E-01  0.0000000E+00  0.3472222E-02
    1      -11.378933
    2      -11.095422
    3       -5.796964
    4       -5.621703
    5       -1.697226
    6       -1.616289
    7        0.293379
    8        2.031078
    9        8.139114
   10        9.159854
   11       12.937829
   12       13.287875
 
 -0.3333333E+00  0.8333333E-01  0.0000000E+00  0.3472222E-02
    1      -12.654166
    2      -12.343671
    3       -3.650621
    4       -3.517664
    5       -1.171107
    6       -1.058247
    7       -0.985468
    8        0.794585
    9       10.437065
   10       11.223984
   11       11.934575
   12       13.300077
 
 -0.2500000E+00  0.8333333E-01  0.0000000E+00  0.3472222E-02
    1      -13.630289
    2      -13.299733
    3       -2.330953
    4       -1.551840
    5       -1.468816
    6       -0.248435
    7       -0.160075
    8       -0.105893
    9       10.758239
   10       12.709620
   11       13.228351
   12       13.606647
 
 -0.1666667E+00  0.8333333E-01  0.0000000E+00  0.3472222E-02
    1      -14.288223
    2      -13.944125
    3       -3.123269
    4       -0.975543
    5        0.174959
    6        0.215324
    7        0.858410
    8        0.887974
    9        9.962223
   10       13.534064
   11       13.668340
   12       14.564247
 
 -0.8333333E-01  0.8333333E-01  0.0000000E+00  0.1736111E-02
    1      -14.618965
    2      -14.268072
    3       -3.523968
    4       -1.346094
    5        1.204891
    6        1.247002
    7        1.538996
    8        1.574101
    9        9.564645
   10       13.254147
   11       13.353589
   12       13.935398
 
  0.1666667E+00  0.1666667E+00  0.0000000E+00  0.1736111E-02
    1      -12.814377
    2      -12.500484
    3       -2.879616
    4       -2.814138
    5       -1.516582
    6       -1.468697
    7       -1.357301
    8        0.633226
    9       10.975250
   10       11.519707
   11       11.757411
   12       14.773737
 
  0.2500000E+00  0.1666667E+00  0.0000000E+00  0.3472222E-02
    1      -11.692718
    2      -11.402226
    3       -4.639126
    4       -4.513966
    5       -2.594464
    6       -2.507069
    7       -0.043129
    8        1.788169
    9        8.954478
   10        9.658196
   11       13.122957
   12       14.877308
 
  0.3333333E+00  0.1666667E+00  0.0000000E+00  0.3472222E-02
    1      -10.299022
    2      -10.040867
    3       -6.576750
    4       -6.400480
    5       -3.184142
    6       -3.074187
    7        1.506797
    8        3.000711
    9        7.024426
   10        7.850722
   11       14.576705
   12       14.829420
 
  0.4166667E+00  0.1666667E+00  0.0000000E+00  0.3472222E-02
    1       -9.011622
    2       -8.882478
    3       -7.955037
    4       -7.866691
    5       -3.373141
    6       -3.257865
    7        2.648903
    8        3.405294
    9        6.334061
   10        6.645081
   11       14.514200
   12       15.126400
 
  0.5000000E+00  0.1666667E+00  0.0000000E+00  0.3472222E-02
    1      -10.303772
    2      -10.045589
    3       -6.570411
    4       -6.393853
    5       -3.186638
    6       -3.076558
    7        1.503108
    8        2.998297
    9        7.022927
   10        7.857018
   11       14.578532
   12       14.823614
 
 -0.4166667E+00  0.1666667E+00  0.0000000E+00  0.3472222E-02
    1      -11.696605
    2      -11.406103
    3       -4.633474
    4       -4.507913
    5       -2.597747
    6       -2.510267
    7       -0.046655
    8        1.784888
    9        8.951131
   10        9.664392
   11       13.117644
   12       14.883444
 
 -0.3333333E+00  0.1666667E+00  0.0000000E+00  0.3472222E-02
    1      -12.817273
    2      -12.503379
    3       -2.881226
    4       -2.814237
    5       -1.514531
    6       -1.465753
    7       -1.360152
    8        0.630422
    9       10.968094
   10       11.524426
   11       11.753471
   12       14.793489
 
 -0.2500000E+00  0.1666667E+00  0.0000000E+00  0.3472222E-02
    1      -13.631015
    2      -13.300468
    3       -2.331708
    4       -1.563084
    5       -1.479007
    6       -0.249222
    7       -0.148095
    8       -0.093463
    9       10.757298
   10       12.704805
   11       13.227303
   12       13.626325
 
 -0.1666667E+00  0.1666667E+00  0.0000000E+00  0.1736111E-02
    1      -14.123665
    2      -13.782948
    3       -2.924563
    4       -0.792502
    5       -0.454831
    6       -0.375795
    7        0.739885
    8        0.789845
    9       10.158597
   10       13.154786
   11       13.367376
   12       14.004754
 
  0.2500000E+00  0.2500000E+00  0.0000000E+00  0.1736111E-02
    1      -10.448752
    2      -10.185570
    3       -5.663875
    4       -5.573368
    5       -4.065681
    6       -3.998676
    7        1.384185
    8        2.997394
    9        7.347016
   10        8.023971
   11       14.625722
   12       16.687991
 
  0.3333333E+00  0.2500000E+00  0.0000000E+00  0.3472222E-02
    1       -9.001877
    2       -8.786455
    3       -7.111009
    4       -6.966001
    5       -4.800307
    6       -4.686034
    7        2.934271
    8        4.058532
    9        5.928356
   10        6.532590
   11       16.261106
   12       16.586930
 
  0.4166667E+00  0.2500000E+00  0.0000000E+00  0.3472222E-02
    1       -9.009153
    2       -8.793513
    3       -7.103623
    4       -6.957382
    5       -4.801299
    6       -4.686848
    7        2.929748
    8        4.057211
    9        5.921924
   10        6.542996
   11       16.250374
   12       16.582058
 
  0.5000000E+00  0.2500000E+00  0.0000000E+00  0.3472222E-02
    1      -10.455250
    2      -10.192154
    3       -5.660223
    4       -5.567564
    5       -4.064617
    6       -3.996286
    7        1.378931
    8        2.992096
    9        7.341362
   10        8.033729
   11       14.616568
   12       16.706255
 
 -0.4166667E+00  0.2500000E+00  0.0000000E+00  0.3472222E-02
    1      -11.697828
    2      -11.407337
    3       -4.643482
    4       -4.517106
    5       -2.585886
    6       -2.497795
    7       -0.047769
    8        1.783240
    9        8.946709
   10        9.663314
   11       13.116260
   12       14.914555
 
 -0.3333333E+00  0.2500000E+00  0.0000000E+00  0.3472222E-02
    1      -12.656100
    2      -12.345621
    3       -3.663405
    4       -3.529981
    5       -1.173011
    6       -1.041570
    7       -0.968817
    8        0.792364
    9       10.429322
   10       11.220833
   11       11.932421
   12       13.328753
 
 -0.2500000E+00  0.2500000E+00  0.0000000E+00  0.1736111E-02
    1      -13.304601
    2      -12.980740
    3       -2.576286
    4       -2.456023
    5       -1.942372
    6       -0.143496
    7       -0.083969
    8        0.102766
    9       11.140729
   10       11.765862
   11       12.494750
   12       12.821008
 
  0.3333333E+00  0.3333333E+00  0.0000000E+00  0.1736111E-02
    1       -7.798108
    2       -7.683637
    3       -7.681370
    4       -7.569071
    5       -5.632570
    6       -5.631480
    7        4.155732
    8        4.837283
    9        4.847347
   10        5.686996
   11       16.097142
   12       16.122749
 
  0.4166667E+00  0.3333333E+00  0.0000000E+00  0.3472222E-02
    1       -9.011766
    2       -8.796851
    3       -7.108951
    4       -6.962855
    5       -4.792506
    6       -4.677392
    7        2.929571
    8        4.048206
    9        5.925112
   10        6.543052
   11       16.250748
   12       16.619568
 
  0.5000000E+00  0.3333333E+00  0.0000000E+00  0.3472222E-02
    1      -10.306951
    2      -10.048959
    3       -6.580103
    4       -6.403403
    5       -3.171650
    6       -3.061528
    7        1.501082
    8        2.992090
    9        7.019898
   10        7.854269
   11       14.604414
   12       14.833698
 
 -0.4166667E+00  0.3333333E+00  0.0000000E+00  0.3472222E-02
    1      -11.382635
    2      -11.099181
    3       -5.807935
    4       -5.632486
    5       -1.679266
    6       -1.598436
    7        0.290199
    8        2.026005
    9        8.132394
   10        9.154623
   11       12.967306
   12       13.309664
 
 -0.3333333E+00  0.3333333E+00  0.0000000E+00  0.1736111E-02
    1      -12.174230
    2      -11.873623
    3       -4.801174
    4       -4.639933
    5       -0.878151
    6       -0.813656
    7       -0.615783
    8        1.269471
    9        9.322923
   10       10.338019
   11       12.321159
   12       12.550172
 
  0.4166667E+00  0.4166667E+00  0.0000000E+00  0.1736111E-02
    1       -9.021175
    2       -8.894954
    3       -7.955400
    4       -7.868999
    5       -3.358608
    6       -3.243328
    7        2.649007
    8        3.387601
    9        6.340368
   10        6.640153
   11       14.551200
   12       15.164255
 
  0.5000000E+00  0.4166667E+00  0.0000000E+00  0.3472222E-02
    1       -9.882143
    2       -9.647695
    3       -7.754653
    4       -7.563001
    5       -2.008812
    6       -1.924533
    7        1.815422
    8        2.924403
    9        6.552898
   10        7.393825
   11       12.806040
   12       13.284287
 
 -0.4166667E+00  0.4166667E+00  0.0000000E+00  0.1736111E-02
    1      -10.763297
    2      -10.495012
    3       -6.917775
    4       -6.722793
    5       -1.351694
    6       -1.284279
    7        0.938482
    8        2.451488
    9        7.196875
   10        8.293655
   11       12.164658
   12       12.603366
 
  0.5000000E+00  0.5000000E+00  0.0000000E+00  0.8680556E-03
    1       -9.446946
    2       -9.315950
    3       -8.359722
    4       -8.261628
    5       -1.514289
    6       -1.445720
    7        2.051002
    8        2.805894
    9        6.404446
   10        7.113875
   11       12.073476
   12       12.536066
 
  0.0000000E+00  0.0000000E+00  0.1250000E+00  0.1736111E-02
    1      -14.772197
    2      -14.444937
    3       -3.655260
    4       -1.637306
    5        1.867665
    6        1.884126
    7        1.889434
    8        1.905201
    9        9.574859
   10       13.206040
   11       13.213181
   12       13.260706
 
  0.8333333E-01  0.6938894E-17  0.1250000E+00  0.6944444E-02
    1      -14.606339
    2      -14.282226
    3       -3.454221
    4       -1.449479
    5        1.219322
    6        1.257822
    7        1.527459
    8        1.560083
    9        9.770830
   10       13.251693
   11       13.345576
   12       13.923100
 
  0.1666667E+00  0.1387779E-16  0.1250000E+00  0.6944444E-02
    1      -14.110622
    2      -13.795918
    3       -2.855401
    4       -0.892549
    5       -0.438374
    6       -0.365750
    7        0.727162
    8        0.773477
    9       10.359732
   10       13.138551
   11       13.340293
   12       14.031452
 
  0.2500000E+00  0.2775558E-16  0.1250000E+00  0.6944444E-02
    1      -13.290882
    2      -12.991768
    3       -2.559058
    4       -2.448307
    5       -1.874302
    6       -0.157511
    7       -0.102476
    8        0.009244
    9       11.312389
   10       11.818034
   11       12.458459
   12       12.806483
 
  0.3333333E+00  0.2775558E-16  0.1250000E+00  0.6944444E-02
    1      -12.159598
    2      -11.881881
    3       -4.784266
    4       -4.635512
    5       -0.893346
    6       -0.833648
    7       -0.550340
    8        1.187728
    9        9.357742
   10       10.294816
   11       12.363773
   12       12.591176
 
  0.4166667E+00  0.2775558E-16  0.1250000E+00  0.6944444E-02
    1      -10.747328
    2      -10.499387
    3       -6.902618
    4       -6.722556
    5       -1.367726
    6       -1.305239
    7        0.996650
    8        2.398802
    9        7.222198
   10        8.241404
   11       12.147962
   12       12.553566
 
  0.5000000E+00  0.5551115E-16  0.1250000E+00  0.3472222E-02
    1       -9.430697
    2       -9.306467
    3       -8.356645
    4       -8.263697
    5       -1.530269
    6       -1.466980
    7        2.090094
    8        2.810395
    9        6.387968
   10        7.065583
   11       12.056000
   12       12.483599
 
  0.8333333E-01  0.8333333E-01  0.1250000E+00  0.3472222E-02
    1      -14.275311
    2      -13.957489
    3       -3.053988
    4       -1.076669
    5        0.184692
    6        0.221080
    7        0.851902
    8        0.879244
    9       10.165466
   10       13.525886
   11       13.654655
   12       14.636703
 
  0.1666667E+00  0.8333333E-01  0.1250000E+00  0.6944444E-02
    1      -13.617351
    2      -13.312026
    3       -2.263023
    4       -1.549723
    5       -1.472884
    6       -0.345251
    7       -0.157014
    8       -0.106726
    9       10.952959
   10       12.729239
   11       13.197511
   12       13.612010
 
  0.2500000E+00  0.8333333E-01  0.1250000E+00  0.6944444E-02
    1      -12.641409
    2      -12.354591
    3       -3.649003
    4       -3.526266
    5       -1.105760
    6       -1.052364
    7       -0.985215
    8        0.705022
    9       10.458919
   10       11.186450
   11       12.121831
   12       13.308849
 
  0.3333333E+00  0.8333333E-01  0.1250000E+00  0.6944444E-02
    1      -11.366592
    2      -11.104730
    3       -5.794038
    4       -5.632339
    5       -1.691846
    6       -1.617088
    7        0.353437
    8        1.955885
    9        8.166078
   10        9.108947
   11       12.957307
   12       13.303467
 
  0.4166667E+00  0.8333333E-01  0.1250000E+00  0.6944444E-02
    1       -9.864333
    2       -9.647068
    3       -7.744017
    4       -7.566585
    5       -2.022725
    6       -1.944794
    7        1.865121
    8        2.903312
    9        6.555105
   10        7.344958
   11       12.787525
   12       13.229363
 
  0.5000000E+00  0.8333333E-01  0.1250000E+00  0.6944444E-02
    1       -9.866720
    2       -9.649336
    3       -7.741271
    4       -7.563663
    5       -2.023532
    6       -1.945625
    7        1.863613
    8        2.902946
    9        6.554818
   10        7.347073
   11       12.788510
   12       13.230366
 
 -0.4166667E+00  0.8333333E-01  0.1250000E+00  0.6944444E-02
    1      -11.368764
    2      -11.106891
    3       -5.790521
    4       -5.628767
    5       -1.694253
    6       -1.619410
    7        0.351550
    8        1.954342
    9        8.166326
   10        9.111620
   11       12.960113
   12       13.304908
 
 -0.3333333E+00  0.8333333E-01  0.1250000E+00  0.6944444E-02
    1      -12.643106
    2      -12.356283
    3       -3.645684
    4       -3.522849
    5       -1.107408
    6       -1.055521
    7       -0.988260
    8        0.703489
    9       10.457922
   10       11.188786
   11       12.119455
   12       13.313353
 
 -0.2500000E+00  0.8333333E-01  0.1250000E+00  0.6944444E-02
    1      -13.618564
    2      -13.313237
    3       -2.264256
    4       -1.548807
    5       -1.471919
    6       -0.346442
    7       -0.158144
    8       -0.108021
    9       10.951284
   10       12.725922
   11       13.199357
   12       13.617777
 
 -0.1666667E+00  0.8333333E-01  0.1250000E+00  0.6944444E-02
    1      -14.276031
    2      -13.958208
    3       -3.054746
    4       -1.077374
    5        0.176660
    6        0.213911
    7        0.859404
    8        0.886726
    9       10.164403
   10       13.532895
   11       13.663155
   12       14.556728
 
 -0.8333333E-01  0.8333333E-01  0.1250000E+00  0.3472222E-02
    1      -14.606577
    2      -14.282465
    3       -3.454481
    4       -1.449732
    5        1.206496
    6        1.245409
    7        1.540343
    8        1.572725
    9        9.770461
   10       13.255948
   11       13.350169
   12       13.905249
 
  0.1666667E+00  0.1666667E+00  0.1250000E+00  0.3472222E-02
    1      -12.803127
    2      -12.513278
    3       -2.877039
    4       -2.816590
    5       -1.515096
    6       -1.470747
    7       -1.292964
    8        0.540604
    9       10.995245
   10       11.493499
   11       11.943946
   12       14.779284
 
  0.2500000E+00  0.1666667E+00  0.1250000E+00  0.6944444E-02
    1      -11.682255
    2      -11.414000
    3       -4.634392
    4       -4.518805
    5       -2.591379
    6       -2.510630
    7        0.017061
    8        1.705026
    9        8.979303
   10        9.629748
   11       13.281430
   12       14.889847
 
  0.3333333E+00  0.1666667E+00  0.1250000E+00  0.6944444E-02
    1      -10.289638
    2      -10.051101
    3       -6.570297
    4       -6.407445
    5       -3.180100
    6       -3.078483
    7        1.559298
    8        2.939602
    9        7.045574
   10        7.812208
   11       14.609080
   12       14.885665
 
  0.4166667E+00  0.1666667E+00  0.1250000E+00  0.6944444E-02
    1       -9.005814
    2       -8.886310
    3       -7.953772
    4       -7.871835
    5       -3.369030
    6       -3.262442
    7        2.687621
    8        3.393157
    9        6.314428
   10        6.611754
   11       14.530812
   12       15.094184
 
  0.5000000E+00  0.1666667E+00  0.1250000E+00  0.6944444E-02
    1      -10.294387
    2      -10.055826
    3       -6.563943
    4       -6.400818
    5       -3.182589
    6       -3.080862
    7        1.555615
    8        2.937084
    9        7.044431
   10        7.818190
   11       14.611361
   12       14.879643
 
 -0.4166667E+00  0.1666667E+00  0.1250000E+00  0.6944444E-02
    1      -11.686140
    2      -11.417871
    3       -4.628674
    4       -4.512743
    5       -2.594657
    6       -2.513766
    7        0.013565
    8        1.701730
    9        8.976308
   10        9.635524
   11       13.275983
   12       14.895884
 
 -0.3333333E+00  0.1666667E+00  0.1250000E+00  0.6944444E-02
    1      -12.806037
    2      -12.516177
    3       -2.878570
    4       -2.816674
    5       -1.513042
    6       -1.467926
    7       -1.295810
    8        0.537796
    9       10.988492
   10       11.497689
   11       11.940023
   12       14.798807
 
 -0.2500000E+00  0.1666667E+00  0.1250000E+00  0.6944444E-02
    1      -13.619284
    2      -13.313949
    3       -2.265000
    4       -1.559858
    5       -1.482182
    6       -0.347226
    7       -0.146133
    8       -0.095589
    9       10.950294
   10       12.721471
   11       13.198354
   12       13.637130
 
 -0.1666667E+00  0.1666667E+00  0.1250000E+00  0.3472222E-02
    1      -14.111585
    2      -13.796877
    3       -2.856410
    4       -0.893558
    5       -0.451846
    6       -0.378848
    7        0.741767
    8        0.787921
    9       10.358379
   10       13.156978
   11       13.358001
   12       14.025395
 
  0.2500000E+00  0.2500000E+00  0.1250000E+00  0.3472222E-02
    1      -10.439226
    2      -10.196097
    3       -5.660160
    4       -5.576422
    5       -4.063796
    6       -4.001832
    7        1.438841
    8        2.927145
    9        7.373168
   10        7.997279
   11       14.714333
   12       16.491165
 
  0.3333333E+00  0.2500000E+00  0.1250000E+00  0.6944444E-02
    1       -8.993922
    2       -8.794895
    3       -7.105796
    4       -6.971785
    5       -4.796458
    6       -4.690844
    7        2.979297
    8        4.023109
    9        5.940876
   10        6.499236
   11       15.963680
   12       16.211154
 
  0.4166667E+00  0.2500000E+00  0.1250000E+00  0.6944444E-02
    1       -9.001194
    2       -8.801966
    3       -7.098361
    4       -6.963210
    5       -4.797442
    6       -4.691664
    7        2.974789
    8        4.021470
    9        5.935190
   10        6.509125
   11       15.950775
   12       16.219451
 
  0.5000000E+00  0.2500000E+00  0.1250000E+00  0.6944444E-02
    1      -10.445733
    2      -10.202682
    3       -5.656433
    4       -5.570715
    5       -4.062680
    6       -3.999505
    7        1.433583
    8        2.921840
    9        7.367989
   10        8.006360
   11       14.704949
   12       16.504638
 
 -0.4166667E+00  0.2500000E+00  0.1250000E+00  0.6944444E-02
    1      -11.687365
    2      -11.419106
    3       -4.638700
    4       -4.521996
    5       -2.582772
    6       -2.501377
    7        0.012439
    8        1.700118
    9        8.971877
   10        9.634237
   11       13.274859
   12       14.926827
 
 -0.3333333E+00  0.2500000E+00  0.1250000E+00  0.6944444E-02
    1      -12.645037
    2      -12.358213
    3       -3.658390
    4       -3.535186
    5       -1.109303
    6       -1.038884
    7       -0.971614
    8        0.701282
    9       10.450104
   10       11.185363
   11       12.117788
   12       13.341944
 
 -0.2500000E+00  0.2500000E+00  0.1250000E+00  0.3472222E-02
    1      -13.293062
    2      -12.993932
    3       -2.571846
    4       -2.460760
    5       -1.876513
    6       -0.141208
    7       -0.086339
    8        0.006929
    9       11.309034
   10       11.810277
   11       12.455418
   12       12.833766
 
  0.3333333E+00  0.3333333E+00  0.1250000E+00  0.3472222E-02
    1       -7.789834
    2       -7.683126
    3       -7.680939
    4       -7.578131
    5       -5.633487
    6       -5.632480
    7        4.206740
    8        4.843894
    9        4.853219
   10        5.618926
   11       15.834603
   12       15.855661
 
  0.4166667E+00  0.3333333E+00  0.1250000E+00  0.6944444E-02
    1       -9.003828
    2       -8.805267
    3       -7.103696
    4       -6.968683
    5       -4.788617
    6       -4.682165
    7        2.974475
    8        4.013121
    9        5.937852
   10        6.509018
   11       15.949480
   12       16.233152
 
  0.5000000E+00  0.3333333E+00  0.1250000E+00  0.6944444E-02
    1      -10.297573
    2      -10.059186
    3       -6.573639
    4       -6.410386
    5       -3.167600
    6       -3.065829
    7        1.553530
    8        2.931191
    9        7.041104
   10        7.815203
   11       14.641592
   12       14.889491
 
 -0.4166667E+00  0.3333333E+00  0.1250000E+00  0.6944444E-02
    1      -11.372471
    2      -11.110655
    3       -5.801517
    4       -5.639557
    5       -1.676299
    6       -1.601561
    7        0.348336
    8        1.949411
    9        8.159427
   10        9.106150
   11       12.990651
   12       13.331112
 
 -0.3333333E+00  0.3333333E+00  0.1250000E+00  0.3472222E-02
    1      -12.163481
    2      -11.885911
    3       -4.795196
    4       -4.646187
    5       -0.875713
    6       -0.816126
    7       -0.554023
    8        1.183348
    9        9.349202
   10       10.289515
   11       12.386840
   12       12.610793
 
  0.4166667E+00  0.4166667E+00  0.1250000E+00  0.3472222E-02
    1       -9.015464
    2       -8.898670
    3       -7.954220
    4       -7.874083
    5       -3.354498
    6       -3.247903
    7        2.687342
    8        3.376353
    9        6.319937
   10        6.606781
   11       14.567837
   12       15.131561
 
  0.5000000E+00  0.4166667E+00  0.1250000E+00  0.6944444E-02
    1       -9.873507
    2       -9.656887
    3       -7.748018
    4       -7.570842
    5       -2.005668
    6       -1.927808
    7        1.860886
    8        2.890376
    9        6.555254
   10        7.339073
   11       12.823069
   12       13.264966
 
 -0.4166667E+00  0.4166667E+00  0.1250000E+00  0.3472222E-02
    1      -10.753628
    2      -10.505860
    3       -6.910681
    4       -6.730554
    5       -1.349266
    6       -1.286879
    7        0.991995
    8        2.390213
    9        7.217783
   10        8.234447
   11       12.181382
   12       12.586808
 
  0.5000000E+00  0.5000000E+00  0.1250000E+00  0.1736111E-02
    1       -9.441084
    2       -9.319673
    3       -8.358163
    4       -8.267187
    5       -1.511528
    6       -1.448341
    7        2.089252
    8        2.792636
    9        6.392599
   10        7.054124
   11       12.090233
   12       12.517826
 
  0.0000000E+00  0.0000000E+00  0.2500000E+00  0.1736111E-02
    1      -14.736100
    2      -14.485878
    3       -3.452446
    4       -1.920931
    5        1.870203
    6        1.886585
    7        1.886893
    8        1.902741
    9       10.166435
   10       13.210434
   11       13.214443
   12       13.253644
 
  0.8333333E-01  0.6938894E-17  0.2500000E+00  0.6944444E-02
    1      -14.570582
    2      -14.322710
    3       -3.252532
    4       -1.730992
    5        1.223868
    6        1.253313
    7        1.531296
    8        1.556267
    9       10.357101
   10       13.254841
   11       13.336276
   12       13.905817
 
  0.1666667E+00  0.1387779E-16  0.2500000E+00  0.6944444E-02
    1      -14.075785
    2      -13.835155
    3       -2.657560
    4       -1.167339
    5       -0.429766
    6       -0.374349
    7        0.732543
    8        0.768039
    9       10.927702
   10       13.144047
   11       13.316346
   12       14.086769
 
  0.2500000E+00  0.2775558E-16  0.2500000E+00  0.6944444E-02
    1      -13.257721
    2      -13.028934
    3       -2.546381
    4       -2.461655
    5       -1.683193
    6       -0.252284
    7       -0.151110
    8       -0.109022
    9       11.682398
   10       12.044447
   11       12.353925
   12       12.841347
 
  0.3333333E+00  0.2775558E-16  0.2500000E+00  0.6944444E-02
    1      -12.128694
    2      -11.916338
    3       -4.767357
    4       -4.653464
    5       -0.886391
    6       -0.840751
    7       -0.371391
    8        0.951176
    9        9.440900
   10       10.161892
   11       12.441863
   12       12.664720
 