# Thermal properties / unit cell (natom)

unit:
  temperature:   K
  free_energy:   kJ/mol
  entropy:       J/K/mol
  heat_capacity: J/K/mol

natom:     4
num_modes: 3888
num_integrated_modes: 3876

zero_point_energy:      66.3622514
high_T_entropy:        229.2994121

thermal_properties:
- temperature:         0.0000000
  free_energy:        66.3622514
  entropy:             0.0000000
  heat_capacity:       0.0000000
  energy:             66.3622514

- temperature:        10.0000000
  free_energy:        66.3619591
  entropy:             0.0658046
  heat_capacity:       0.0664138
  energy:             66.3626172

- temperature:        20.0000000
  free_energy:        66.3609858
  entropy:             0.1277437
  heat_capacity:       0.1195745
  energy:             66.3635407

- temperature:        30.0000000
  free_energy:        66.3593983
  entropy:             0.1918578
  heat_capacity:       0.2171079
  energy:             66.3651540

- temperature:        40.0000000
  free_energy:        66.3570685
  entropy:             0.2798367
  heat_capacity:       0.4264773
  energy:             66.3682619

- temperature:        50.0000000
  free_energy:        66.3536613
  entropy:             0.4095933
  heat_capacity:       0.7723491
  energy:             66.3741410

- temperature:        60.0000000
  free_energy:        66.3487038
  entropy:             0.5910564
  heat_capacity:       1.2557813
  energy:             66.3841672

- temperature:        70.0000000
  free_energy:        66.3416499
  entropy:             0.8295292
  heat_capacity:       1.8773622
  energy:             66.3997170

- temperature:        80.0000000
  free_energy:        66.3319119
  entropy:             1.1283423
  heat_capacity:       2.6382888
  energy:             66.4221793

- temperature:        90.0000000
  free_energy:        66.3188747
  entropy:             1.4896197
  heat_capacity:       3.5363780
  energy:             66.4529405

- temperature:       100.0000000
  free_energy:        66.3019079
  entropy:             1.9143327
  heat_capacity:       4.5646288
  energy:             66.4933412

- temperature:       110.0000000
  free_energy:        66.2803771
  entropy:             2.4022973
  heat_capacity:       5.7117999
  energy:             66.5446298

- temperature:       120.0000000
  free_energy:        66.2536552
  entropy:             2.9522594
  heat_capacity:       6.9636623
  energy:             66.6079264

- temperature:       130.0000000
  free_energy:        66.2211324
  entropy:             3.5620515
  heat_capacity:       8.3043250
  energy:             66.6841991

- temperature:       140.0000000
  free_energy:        66.1822243
  entropy:             4.2287854
  heat_capacity:       9.7174347
  energy:             66.7742543

- temperature:       150.0000000
  free_energy:        66.1363782
  entropy:             4.9490545
  heat_capacity:      11.1871649
  energy:             66.8787364

- temperature:       160.0000000
  free_energy:        66.0830772
  entropy:             5.7191271
  heat_capacity:      12.6989464
  energy:             66.9981376

- temperature:       170.0000000
  free_energy:        66.0218426
  entropy:             6.5351166
  heat_capacity:      14.2399274
  energy:             67.1328125

- temperature:       180.0000000
  free_energy:        65.9522349
  entropy:             7.3931220
  heat_capacity:      15.7991835
  energy:             67.2829968

- temperature:       190.0000000
  free_energy:        65.8738529
  entropy:             8.2893370
  heat_capacity:      17.3677271
  energy:             67.4488269

- temperature:       200.0000000
  free_energy:        65.7863329
  entropy:             9.2201265
  heat_capacity:      18.9383743
  energy:             67.6303582

- temperature:       210.0000000
  free_energy:        65.6893465
  entropy:            10.1820766
  heat_capacity:      20.5055249
  energy:             67.8275826

- temperature:       220.0000000
  free_energy:        65.5825981
  entropy:            11.1720209
  heat_capacity:      22.0649045
  energy:             68.0404427

- temperature:       230.0000000
  free_energy:        65.4658225
  entropy:            12.1870499
  heat_capacity:      23.6133022
  energy:             68.2688440

- temperature:       240.0000000
  free_energy:        65.3387823
  entropy:            13.2245073
  heat_capacity:      25.1483289
  energy:             68.5126641

- temperature:       250.0000000
  free_energy:        65.2012656
  entropy:            14.2819774
  heat_capacity:      26.6682062
  energy:             68.7717600

- temperature:       260.0000000
  free_energy:        65.0530834
  entropy:            15.3572685
  heat_capacity:      28.1715944
  energy:             69.0459732

- temperature:       270.0000000
  free_energy:        64.8940675
  entropy:            16.4483923
  heat_capacity:      29.6574560
  energy:             69.3351334

- temperature:       280.0000000
  free_energy:        64.7240688
  entropy:            17.5535439
  heat_capacity:      31.1249546
  energy:             69.6390611

- temperature:       290.0000000
  free_energy:        64.5429554
  entropy:            18.6710813
  heat_capacity:      32.5733817
  energy:             69.9575690

- temperature:       300.0000000
  free_energy:        64.3506109
  entropy:            19.7995072
  heat_capacity:      34.0021078
  energy:             70.2904631

- temperature:       310.0000000
  free_energy:        64.1469335
  entropy:            20.9374516
  heat_capacity:      35.4105514
  energy:             70.6375435

- temperature:       320.0000000
  free_energy:        63.9318344
  entropy:            22.0836572
  heat_capacity:      36.7981622
  energy:             70.9986046

- temperature:       330.0000000
  free_energy:        63.7052367
  entropy:            23.2369662
  heat_capacity:      38.1644136
  energy:             71.3734355

- temperature:       340.0000000
  free_energy:        63.4670749
  entropy:            24.3963091
  heat_capacity:      39.5088016
  energy:             71.7618200

- temperature:       350.0000000
  free_energy:        63.2172937
  entropy:            25.5606954
  heat_capacity:      40.8308480
  energy:             72.1635371

- temperature:       360.0000000
  free_energy:        62.9558473
  entropy:            26.7292048
  heat_capacity:      42.1301056
  energy:             72.5783610

- temperature:       370.0000000
  free_energy:        62.6826987
  entropy:            27.9009815
  heat_capacity:      43.4061640
  energy:             73.0060619

- temperature:       380.0000000
  free_energy:        62.3978194
  entropy:            29.0752271
  heat_capacity:      44.6586552
  energy:             73.4464057

- temperature:       390.0000000
  free_energy:        62.1011885
  entropy:            30.2511972
  heat_capacity:      45.8872592
  energy:             73.8991553

- temperature:       400.0000000
  free_energy:        61.7927921
  entropy:            31.4281959
  heat_capacity:      47.0917076
  energy:             74.3640704

- temperature:       410.0000000
  free_energy:        61.4726233
  entropy:            32.6055731
  heat_capacity:      48.2717866
  energy:             74.8409083

- temperature:       420.0000000
  free_energy:        61.1406814
  entropy:            33.7827214
  heat_capacity:      49.4273385
  energy:             75.3294244

- temperature:       430.0000000
  free_energy:        60.7969715
  entropy:            34.9590731
  heat_capacity:      50.5582625
  energy:             75.8293729

- temperature:       440.0000000
  free_energy:        60.4415043
  entropy:            36.1340978
  heat_capacity:      51.6645141
  energy:             76.3405074

- temperature:       450.0000000
  free_energy:        60.0742956
  entropy:            37.3073008
  heat_capacity:      52.7461037
  energy:             76.8625810

- temperature:       460.0000000
  free_energy:        59.6953659
  entropy:            38.4782207
  heat_capacity:      53.8030943
  energy:             77.3953475

- temperature:       470.0000000
  free_energy:        59.3047403
  entropy:            39.6464277
  heat_capacity:      54.8355992
  energy:             77.9385613

- temperature:       480.0000000
  free_energy:        58.9024478
  entropy:            40.8115221
  heat_capacity:      55.8437785
  energy:             78.4919783

- temperature:       490.0000000
  free_energy:        58.4885214
  entropy:            41.9731326
  heat_capacity:      56.8278361
  energy:             79.0553564

- temperature:       500.0000000
  free_energy:        58.0629979
  entropy:            43.1309152
  heat_capacity:      57.7880158
  energy:             79.6284555

- temperature:       510.0000000
  free_energy:        57.6259170
  entropy:            44.2845512
  heat_capacity:      58.7245977
  energy:             80.2110381

- temperature:       520.0000000
  free_energy:        57.1773216
  entropy:            45.4337465
  heat_capacity:      59.6378942
  energy:             80.8028698

- temperature:       530.0000000
  free_energy:        56.7172577
  entropy:            46.5782297
  heat_capacity:      60.5282470
  energy:             81.4037195

- temperature:       540.0000000
  free_energy:        56.2457736
  entropy:            47.7177516
  heat_capacity:      61.3960228
  energy:             82.0133595

- temperature:       550.0000000
  free_energy:        55.7629200
  entropy:            48.8520836
  heat_capacity:      62.2416103
  energy:             82.6315660

- temperature:       560.0000000
  free_energy:        55.2687499
  entropy:            49.9810164
  heat_capacity:      63.0654169
  energy:             83.2581191

- temperature:       570.0000000
  free_energy:        54.7633183
  entropy:            51.1043593
  heat_capacity:      63.8678654
  energy:             83.8928031

- temperature:       580.0000000
  free_energy:        54.2466819
  entropy:            52.2219391
  heat_capacity:      64.6493913
  energy:             84.5354067

- temperature:       590.0000000
  free_energy:        53.7188993
  entropy:            53.3335990
  heat_capacity:      65.4104404
  energy:             85.1857227

- temperature:       600.0000000
  free_energy:        53.1800302
  entropy:            54.4391976
  heat_capacity:      66.1514658
  energy:             85.8435487

- temperature:       610.0000000
  free_energy:        52.6301359
  entropy:            55.5386079
  heat_capacity:      66.8729261
  energy:             86.5086868

- temperature:       620.0000000
  free_energy:        52.0692790
  entropy:            56.6317170
  heat_capacity:      67.5752834
  energy:             87.1809436

- temperature:       630.0000000
  free_energy:        51.4975229
  entropy:            57.7184244
  heat_capacity:      68.2590010
  energy:             87.8601303

- temperature:       640.0000000
  free_energy:        50.9149322
  entropy:            58.7986419
  heat_capacity:      68.9245423
  energy:             88.5460630

- temperature:       650.0000000
  free_energy:        50.3215720
  entropy:            59.8722925
  heat_capacity:      69.5723691
  energy:             89.2385621

- temperature:       660.0000000
  free_energy:        49.7175084
  entropy:            60.9393097
  heat_capacity:      70.2029401
  energy:             89.9374529

- temperature:       670.0000000
  free_energy:        49.1028081
  entropy:            61.9996370
  heat_capacity:      70.8167103
  energy:             90.6425649

- temperature:       680.0000000
  free_energy:        48.4775381
  entropy:            63.0532271
  heat_capacity:      71.4141294
  energy:             91.3537326

- temperature:       690.0000000
  free_energy:        47.8417661
  entropy:            64.1000411
  heat_capacity:      71.9956414
  energy:             92.0707945

- temperature:       700.0000000
  free_energy:        47.1955600
  entropy:            65.1400483
  heat_capacity:      72.5616835
  energy:             92.7935938

- temperature:       710.0000000
  free_energy:        46.5389879
  entropy:            66.1732255
  heat_capacity:      73.1126856
  energy:             93.5219780

- temperature:       720.0000000
  free_energy:        45.8721183
  entropy:            67.1995562
  heat_capacity:      73.6490702
  energy:             94.2557988

- temperature:       730.0000000
  free_energy:        45.1950197
  entropy:            68.2190307
  heat_capacity:      74.1712510
  energy:             94.9949121

- temperature:       740.0000000
  free_energy:        44.5077606
  entropy:            69.2316449
  heat_capacity:      74.6796335
  energy:             95.7391778

- temperature:       750.0000000
  free_energy:        43.8104096
  entropy:            70.2374006
  heat_capacity:      75.1746142
  energy:             96.4884601

- temperature:       760.0000000
  free_energy:        43.1030354
  entropy:            71.2363044
  heat_capacity:      75.6565805
  energy:             97.2426267

- temperature:       770.0000000
  free_energy:        42.3857064
  entropy:            72.2283678
  heat_capacity:      76.1259107
  energy:             98.0015496

- temperature:       780.0000000
  free_energy:        41.6584908
  entropy:            73.2136067
  heat_capacity:      76.5829735
  energy:             98.7651041

- temperature:       790.0000000
  free_energy:        40.9214569
  entropy:            74.1920411
  heat_capacity:      77.0281284
  energy:             99.5331693

- temperature:       800.0000000
  free_energy:        40.1746726
  entropy:            75.1636944
  heat_capacity:      77.4617254
  energy:            100.3056281

- temperature:       810.0000000
  free_energy:        39.4182055
  entropy:            76.1285937
  heat_capacity:      77.8841052
  energy:            101.0823665

- temperature:       820.0000000
  free_energy:        38.6521231
  entropy:            77.0867693
  heat_capacity:      78.2955990
  energy:            101.8632739

- temperature:       830.0000000
  free_energy:        37.8764924
  entropy:            78.0382540
  heat_capacity:      78.6965288
  energy:            102.6482432

- temperature:       840.0000000
  free_energy:        37.0913802
  entropy:            78.9830835
  heat_capacity:      79.0872076
  energy:            103.4371703

- temperature:       850.0000000
  free_energy:        36.2968528
  entropy:            79.9212958
  heat_capacity:      79.4679392
  energy:            104.2299542

- temperature:       860.0000000
  free_energy:        35.4929762
  entropy:            80.8529310
  heat_capacity:      79.8390184
  energy:            105.0264969

- temperature:       870.0000000
  free_energy:        34.6798160
  entropy:            81.7780315
  heat_capacity:      80.2007315
  energy:            105.8267034

- temperature:       880.0000000
  free_energy:        33.8574372
  entropy:            82.6966409
  heat_capacity:      80.5533561
  energy:            106.6304813

- temperature:       890.0000000
  free_energy:        33.0259047
  entropy:            83.6088050
  heat_capacity:      80.8971615
  energy:            107.4377411

- temperature:       900.0000000
  free_energy:        32.1852825
  entropy:            84.5145706
  heat_capacity:      81.2324085
  energy:            108.2483960

- temperature:       910.0000000
  free_energy:        31.3356344
  entropy:            85.4139859
  heat_capacity:      81.5593503
  energy:            109.0623616

- temperature:       920.0000000
  free_energy:        30.4770238
  entropy:            86.3071004
  heat_capacity:      81.8782319
  energy:            109.8795561

- temperature:       930.0000000
  free_energy:        29.6095132
  entropy:            87.1939644
  heat_capacity:      82.1892908
  energy:            110.6999002

- temperature:       940.0000000
  free_energy:        28.7331651
  entropy:            88.0746292
  heat_capacity:      82.4927572
  energy:            111.5233166

- temperature:       950.0000000
  free_energy:        27.8480412
  entropy:            88.9491469
  heat_capacity:      82.7888538
  energy:            112.3497307

- temperature:       960.0000000
  free_energy:        26.9542025
  entropy:            89.8175701
  heat_capacity:      83.0777964
  energy:            113.1790699

- temperature:       970.0000000
  free_energy:        26.0517099
  entropy:            90.6799522
  heat_capacity:      83.3597941
  energy:            114.0112635

- temperature:       980.0000000
  free_energy:        25.1406234
  entropy:            91.5363468
  heat_capacity:      83.6350491
  energy:            114.8462433

- temperature:       990.0000000
  free_energy:        24.2210027
  entropy:            92.3868080
  heat_capacity:      83.9037573
  energy:            115.6839427

- temperature:      1000.0000000
  free_energy:        23.2929069
  entropy:            93.2313904
  heat_capacity:      84.1661084
  energy:            116.5242972
