  32  32   0   0
  0.6204108E+01  0.4934311E-09  0.4934311E-09  0.9416039E-09  0.5000000E-15
  1.000000000000000E-004
  CAR 
 graphite                                
     20.28774190    -14.44196838  301      8.51061209      1.00000000
    -14.442  0.0000E+00  0.0000E+00
    -14.326  0.0000E+00  0.0000E+00
    -14.210  0.0000E+00  0.0000E+00
    -14.095  0.0000E+00  0.0000E+00
    -13.979  0.0000E+00  0.0000E+00
    -13.863  0.0000E+00  0.0000E+00
    -13.747  0.0000E+00  0.0000E+00
    -13.632  0.0000E+00  0.0000E+00
    -13.516  0.0000E+00  0.0000E+00
    -13.400  0.0000E+00  0.0000E+00
    -13.284  0.0000E+00  0.0000E+00
    -13.169  0.0000E+00  0.0000E+00
    -13.053  0.0000E+00  0.0000E+00
    -12.937  0.0000E+00  0.0000E+00
    -12.821  0.0000E+00  0.0000E+00
    -12.705  0.0000E+00  0.0000E+00
    -12.590  0.0000E+00  0.0000E+00
    -12.474  0.0000E+00  0.0000E+00
    -12.358  0.5579E+00  0.1705E-01
    -12.242  0.8774E+00  0.1002E+00
    -12.127  0.1197E+01  0.2237E+00
    -12.011  0.1386E+01  0.3714E+00
    -11.895  0.1616E+01  0.5455E+00
    -11.779  0.1787E+01  0.7424E+00
    -11.664  0.1936E+01  0.9575E+00
    -11.548  0.2107E+01  0.1191E+01
    -11.432  0.2260E+01  0.1445E+01
    -11.316  0.2397E+01  0.1715E+01
    -11.201  0.2586E+01  0.2000E+01
    -11.085  0.2823E+01  0.2317E+01
    -10.969  0.3140E+01  0.2653E+01
    -10.853  0.3195E+01  0.3034E+01
    -10.737  0.3546E+01  0.3422E+01
    -10.622  0.3250E+01  0.3821E+01
    -10.506  0.2499E+01  0.4141E+01
    -10.390  0.3749E+01  0.4451E+01
    -10.274  0.3465E+01  0.4869E+01
    -10.159  0.4429E+01  0.5341E+01
    -10.043  0.4435E+01  0.5861E+01
     -9.927  0.4015E+01  0.6352E+01
     -9.811  0.4043E+01  0.6812E+01
     -9.696  0.4014E+01  0.7275E+01
     -9.580  0.5043E+01  0.7802E+01
     -9.464  0.5241E+01  0.8402E+01
     -9.348  0.5669E+01  0.9057E+01
     -9.233  0.4555E+01  0.9635E+01
     -9.117  0.4617E+01  0.1016E+02
     -9.001  0.4446E+01  0.1068E+02
     -8.885  0.4530E+01  0.1119E+02
     -8.769  0.5737E+01  0.1176E+02
     -8.654  0.5445E+01  0.1244E+02
     -8.538  0.4708E+01  0.1302E+02
     -8.422  0.4692E+01  0.1356E+02
     -8.306  0.5152E+01  0.1412E+02
     -8.191  0.5588E+01  0.1475E+02
     -8.075  0.5161E+01  0.1537E+02
     -7.959  0.5225E+01  0.1596E+02
     -7.843  0.6340E+01  0.1666E+02
     -7.728  0.5251E+01  0.1732E+02
     -7.612  0.4869E+01  0.1790E+02
     -7.496  0.4952E+01  0.1847E+02
     -7.380  0.5498E+01  0.1907E+02
     -7.264  0.5601E+01  0.1971E+02
     -7.149  0.5760E+01  0.2037E+02
     -7.033  0.5809E+01  0.2105E+02
     -6.917  0.6090E+01  0.2173E+02
     -6.801  0.4860E+01  0.2236E+02
     -6.686  0.4197E+01  0.2288E+02
     -6.570  0.4882E+01  0.2339E+02
     -6.454  0.5361E+01  0.2399E+02
     -6.338  0.5993E+01  0.2466E+02
     -6.223  0.6083E+01  0.2537E+02
     -6.107  0.5482E+01  0.2605E+02
     -5.991  0.4779E+01  0.2663E+02
     -5.875  0.4152E+01  0.2717E+02
     -5.760  0.8607E+01  0.2784E+02
     -5.644  0.6972E+01  0.2879E+02
     -5.528  0.5463E+01  0.2949E+02
     -5.412  0.3952E+01  0.3003E+02
     -5.296  0.3271E+01  0.3043E+02
     -5.181  0.2546E+01  0.3077E+02
     -5.065  0.2033E+01  0.3103E+02
     -4.949  0.2092E+01  0.3126E+02
     -4.833  0.4099E+01  0.3161E+02
     -4.718  0.4476E+01  0.3209E+02
     -4.602  0.4686E+01  0.3266E+02
     -4.486  0.5676E+01  0.3328E+02
     -4.370  0.3826E+01  0.3380E+02
     -4.255  0.4539E+01  0.3429E+02
     -4.139  0.6152E+01  0.3491E+02
     -4.023  0.9150E+01  0.3572E+02
     -3.907  0.6212E+01  0.3659E+02
     -3.792  0.5681E+01  0.3728E+02
     -3.676  0.6135E+01  0.3796E+02
     -3.560  0.6170E+01  0.3868E+02
     -3.444  0.6334E+01  0.3941E+02
     -3.328  0.6296E+01  0.4015E+02
     -3.213  0.6542E+01  0.4086E+02
     -3.097  0.5446E+01  0.4155E+02
     -2.981  0.5360E+01  0.4218E+02
     -2.865  0.4768E+01  0.4278E+02
     -2.750  0.5360E+01  0.4334E+02
     -2.634  0.4407E+01  0.4391E+02
     -2.518  0.3755E+01  0.4437E+02
     -2.402  0.3677E+01  0.4480E+02
     -2.287  0.4107E+01  0.4525E+02
     -2.171  0.4805E+01  0.4576E+02
     -2.055  0.6025E+01  0.4638E+02
     -1.939  0.8102E+01  0.4718E+02
     -1.824  0.9803E+01  0.4824E+02
     -1.708  0.6067E+01  0.4907E+02
     -1.592  0.6134E+01  0.4977E+02
     -1.476  0.6410E+01  0.5051E+02
     -1.360  0.5588E+01  0.5119E+02
     -1.245  0.6315E+01  0.5187E+02
     -1.129  0.8564E+01  0.5270E+02
     -1.013  0.7546E+01  0.5368E+02
     -0.897  0.6988E+01  0.5452E+02
     -0.782  0.6431E+01  0.5529E+02
     -0.666  0.6314E+01  0.5604E+02
     -0.550  0.6203E+01  0.5676E+02
     -0.434  0.7201E+01  0.5755E+02
     -0.319  0.8015E+01  0.5843E+02
     -0.203  0.8183E+01  0.5935E+02
     -0.087  0.8800E+01  0.6037E+02
      0.029  0.8775E+01  0.6134E+02
      0.145  0.8114E+01  0.6232E+02
      0.260  0.9673E+01  0.6331E+02
      0.376  0.9769E+01  0.6448E+02
      0.492  0.7396E+01  0.6543E+02
      0.608  0.6730E+01  0.6624E+02
      0.723  0.7779E+01  0.6707E+02
      0.839  0.8759E+01  0.6807E+02
      0.955  0.1068E+02  0.6920E+02
      1.071  0.1203E+02  0.7051E+02
      1.186  0.1292E+02  0.7194E+02
      1.302  0.9910E+01  0.7322E+02
      1.418  0.8609E+01  0.7426E+02
      1.534  0.1127E+02  0.7535E+02
      1.649  0.1198E+02  0.7670E+02
      1.765  0.1260E+02  0.7808E+02
      1.881  0.1443E+02  0.7953E+02
      1.997  0.1479E+02  0.8123E+02
      2.113  0.1290E+02  0.8277E+02
      2.228  0.1226E+02  0.8424E+02
      2.344  0.1187E+02  0.8563E+02
      2.460  0.1201E+02  0.8707E+02
      2.576  0.9379E+01  0.8833E+02
      2.691  0.1001E+02  0.8941E+02
      2.807  0.1226E+02  0.9072E+02
      2.923  0.1134E+02  0.9211E+02
      3.039  0.1028E+02  0.9336E+02
      3.154  0.1056E+02  0.9458E+02
      3.270  0.9368E+01  0.9571E+02
      3.386  0.9127E+01  0.9679E+02
      3.502  0.8839E+01  0.9782E+02
      3.617  0.9439E+01  0.9888E+02
      3.733  0.9548E+01  0.9998E+02
      3.849  0.8856E+01  0.1010E+03
      3.965  0.8416E+01  0.1020E+03
      4.081  0.8305E+01  0.1030E+03
      4.196  0.7887E+01  0.1039E+03
      4.312  0.7853E+01  0.1049E+03
      4.428  0.7902E+01  0.1058E+03
      4.544  0.8116E+01  0.1067E+03
      4.659  0.8013E+01  0.1076E+03
      4.775  0.8149E+01  0.1086E+03
      4.891  0.7351E+01  0.1095E+03
      5.007  0.6867E+01  0.1103E+03
      5.122  0.7277E+01  0.1111E+03
      5.238  0.7230E+01  0.1119E+03
      5.354  0.6929E+01  0.1128E+03
      5.470  0.5975E+01  0.1135E+03
      5.585  0.5773E+01  0.1142E+03
      5.701  0.5278E+01  0.1149E+03
      5.817  0.4895E+01  0.1155E+03
      5.933  0.1941E+01  0.1158E+03
      6.049  0.8048E+00  0.1160E+03
      6.164  0.2273E+01  0.1161E+03
      6.280  0.4562E+01  0.1165E+03
      6.396  0.4876E+01  0.1170E+03
      6.512  0.6881E+01  0.1177E+03
      6.627  0.7574E+01  0.1186E+03
      6.743  0.7576E+01  0.1194E+03
      6.859  0.6936E+01  0.1203E+03
      6.975  0.6673E+01  0.1211E+03
      7.090  0.6608E+01  0.1218E+03
      7.206  0.5660E+01  0.1225E+03
      7.322  0.5502E+01  0.1232E+03
      7.438  0.5983E+01  0.1238E+03
      7.554  0.6646E+01  0.1246E+03
      7.669  0.5538E+01  0.1253E+03
      7.785  0.6089E+01  0.1260E+03
      7.901  0.3538E+01  0.1265E+03
      8.017  0.2968E+01  0.1269E+03
      8.132  0.3218E+01  0.1272E+03
      8.248  0.2236E+01  0.1276E+03
      8.364  0.1734E+01  0.1278E+03
      8.480  0.1303E+01  0.1280E+03
      8.595  0.6887E+00  0.1280E+03
      8.711  0.1145E+01  0.1282E+03
      8.827  0.9633E+00  0.1283E+03
      8.943  0.1040E+01  0.1284E+03
      9.058  0.1056E+01  0.1285E+03
      9.174  0.1177E+01  0.1287E+03
      9.290  0.1309E+01  0.1288E+03
      9.406  0.1451E+01  0.1290E+03
      9.522  0.1614E+01  0.1292E+03
      9.637  0.2288E+01  0.1294E+03
      9.753  0.2709E+01  0.1297E+03
      9.869  0.2704E+01  0.1300E+03
      9.985  0.2560E+01  0.1303E+03
     10.100  0.3009E+01  0.1306E+03
     10.216  0.6615E+01  0.1311E+03
     10.332  0.5675E+01  0.1318E+03
     10.448  0.5829E+01  0.1325E+03
     10.563  0.6624E+01  0.1332E+03
     10.679  0.6587E+01  0.1340E+03
     10.795  0.5884E+01  0.1347E+03
     10.911  0.5571E+01  0.1354E+03
     11.026  0.5056E+01  0.1360E+03
     11.142  0.4012E+01  0.1365E+03
     11.258  0.3593E+01  0.1369E+03
     11.374  0.4548E+01  0.1374E+03
     11.490  0.4949E+01  0.1380E+03
     11.605  0.6089E+01  0.1386E+03
     11.721  0.5822E+01  0.1393E+03
     11.837  0.4846E+01  0.1399E+03
     11.953  0.4335E+01  0.1405E+03
     12.068  0.4128E+01  0.1410E+03
     12.184  0.4080E+01  0.1414E+03
     12.300  0.4501E+01  0.1419E+03
     12.416  0.4890E+01  0.1425E+03
     12.531  0.4963E+01  0.1431E+03
     12.647  0.4855E+01  0.1436E+03
     12.763  0.4797E+01  0.1442E+03
     12.879  0.4672E+01  0.1447E+03
     12.995  0.4578E+01  0.1453E+03
     13.110  0.4067E+01  0.1458E+03
     13.226  0.3497E+01  0.1462E+03
     13.342  0.3464E+01  0.1466E+03
     13.458  0.3420E+01  0.1470E+03
     13.573  0.3434E+01  0.1474E+03
     13.689  0.3349E+01  0.1478E+03
     13.805  0.3827E+01  0.1482E+03
     13.921  0.3251E+01  0.1486E+03
     14.036  0.2892E+01  0.1490E+03
     14.152  0.2770E+01  0.1493E+03
     14.268  0.3175E+01  0.1496E+03
     14.384  0.3469E+01  0.1500E+03
     14.499  0.4437E+01  0.1505E+03
     14.615  0.5788E+01  0.1511E+03
     14.731  0.5665E+01  0.1517E+03
     14.847  0.4622E+01  0.1523E+03
     14.963  0.4218E+01  0.1528E+03
     15.078  0.4444E+01  0.1533E+03
     15.194  0.5426E+01  0.1539E+03
     15.310  0.7177E+01  0.1546E+03
     15.426  0.5531E+01  0.1553E+03
     15.541  0.5294E+01  0.1559E+03
     15.657  0.6601E+01  0.1566E+03
     15.773  0.9739E+01  0.1576E+03
     15.889  0.7040E+01  0.1586E+03
     16.004  0.5826E+01  0.1593E+03
     16.120  0.6656E+01  0.1600E+03
     16.236  0.9241E+01  0.1609E+03
     16.352  0.8512E+01  0.1620E+03
     16.467  0.1043E+02  0.1632E+03
     16.583  0.4757E+01  0.1639E+03
     16.699  0.4715E+01  0.1644E+03
     16.815  0.4715E+01  0.1649E+03
     16.931  0.5036E+01  0.1656E+03
     17.046  0.4926E+01  0.1661E+03
     17.162  0.4561E+01  0.1667E+03
     17.278  0.3434E+01  0.1671E+03
     17.394  0.2346E+01  0.1675E+03
     17.509  0.1474E+01  0.1677E+03
     17.625  0.8243E+00  0.1678E+03
     17.741  0.4848E+00  0.1679E+03
     17.857  0.3321E+00  0.1679E+03
     17.972  0.2134E+00  0.1680E+03
     18.088  0.1118E+00  0.1680E+03
     18.204  0.2453E-01  0.1680E+03
     18.320  0.0000E+00  0.1680E+03
     18.435  0.0000E+00  0.1680E+03
     18.551  0.0000E+00  0.1680E+03
     18.667  0.0000E+00  0.1680E+03
     18.783  0.0000E+00  0.1680E+03
     18.899  0.0000E+00  0.1680E+03
     19.014  0.0000E+00  0.1680E+03
     19.130  0.0000E+00  0.1680E+03
     19.246  0.0000E+00  0.1680E+03
     19.362  0.0000E+00  0.1680E+03
     19.477  0.0000E+00  0.1680E+03
     19.593  0.0000E+00  0.1680E+03
     19.709  0.0000E+00  0.1680E+03
     19.825  0.0000E+00  0.1680E+03
     19.940  0.0000E+00  0.1680E+03
     20.056  0.0000E+00  0.1680E+03
     20.172  0.0000E+00  0.1680E+03
     20.288  0.0000E+00  0.1680E+03
