       N       E                     dE             d eps       ncg     rms          rms(c)
DAV:   1     0.462148636745E+03    0.46215E+03   -0.77019E+04 27384   0.170E+03
DAV:   2    -0.235879707668E+03   -0.69803E+03   -0.66816E+03 34524   0.305E+02
DAV:   3    -0.271519297121E+03   -0.35640E+02   -0.35002E+02 33528   0.633E+01
DAV:   4    -0.272083069205E+03   -0.56377E+00   -0.56191E+00 33156   0.854E+00
DAV:   5    -0.272095434386E+03   -0.12365E-01   -0.12382E-01 33540   0.113E+00    0.219E+01
DAV:   6    -0.261531571858E+03    0.10564E+02   -0.83805E+00 31092   0.950E+00    0.116E+01
DAV:   7    -0.258095985387E+03    0.34356E+01   -0.85243E+00 29328   0.977E+00    0.148E+00
DAV:   8    -0.258119946455E+03   -0.23961E-01   -0.22122E-01 32856   0.155E+00    0.538E-01
DAV:   9    -0.258121503937E+03   -0.15575E-02   -0.12905E-02 32280   0.364E-01    0.179E-01
DAV:  10    -0.258121306410E+03    0.19753E-03   -0.40325E-03 33084   0.184E-01    0.454E-02
DAV:  11    -0.258121363479E+03   -0.57069E-04   -0.31904E-04 32292   0.647E-02    0.281E-02
DAV:  12    -0.258121386704E+03   -0.23225E-04   -0.51460E-05 33384   0.246E-02    0.134E-02
DAV:  13    -0.258121401111E+03   -0.14407E-04   -0.19140E-05 32028   0.159E-02    0.683E-03
DAV:  14    -0.258121399520E+03    0.15909E-05   -0.98688E-06 19656   0.577E-03    0.483E-03
DAV:  15    -0.258121397799E+03    0.17211E-05   -0.43596E-07 19308   0.286E-03    0.391E-03
DAV:  16    -0.258121396805E+03    0.99450E-06   -0.43986E-06 19188   0.246E-03
   1 F= -.26188418E+03 E0= -.26188418E+03  d E =0.000000E+00
