   32   32    1    1
  0.8294063E+01  0.4932875E-09  0.4932875E-09  0.1260033E-08  0.5000000E-15
  1.000000000000000E-004
  CAR 
 graphite                                
    128    163     84
 
  0.0000000E+00  0.0000000E+00  0.0000000E+00  0.3086420E-02
    1      -14.463569
    2      -14.235803
    3      -14.235156
    4      -13.983222
    5       -9.096444
    6       -9.086553
    7       -9.084300
    8       -8.993473
    9       -8.991396
   10       -8.981345
   11       -8.979697
   12       -8.979622
   13       -8.975701
   14       -8.916725
   15       -8.903090
   16       -8.899532
   17       -7.984332
   18       -7.982042
   19       -7.980212
   20       -7.943252
   21       -7.941980
   22       -7.940118
   23       -7.939490
   24       -7.939381
   25       -7.936757
   26       -7.848079
   27       -7.847458
   28       -7.845518
   29       -3.545935
   30       -2.356469
   31       -2.354291
   32       -1.161486
   33       -1.158974
   34       -1.143415
   35       -1.112640
   36       -1.111349
   37       -1.111333
   38       -1.107301
   39       -1.094884
   40       -1.092669
   41       -1.061280
   42       -1.058439
   43       -1.043231
   44       -0.872039
   45        2.250831
   46        2.259997
   47        2.266975
   48        2.271724
   49        2.277643
   50        2.283034
   51        2.288186
   52        2.294312
   53        2.295546
   54        2.297849
   55        2.300066
   56        2.887649
   57        2.891798
   58        2.898163
   59        2.898730
   60        2.899122
   61        2.904075
   62        3.215410
   63        3.237747
   64        3.240560
   65        6.820082
   66        6.823682
   67        6.833909
   68        6.891626
   69        6.894059
   70        6.896467
   71        6.898550
   72        6.898875
   73        6.902180
   74        7.632595
   75        7.640304
   76        7.642779
   77       10.166447
   78       12.344059
   79       12.348002
   80       12.380062
   81       12.641799
   82       12.647128
   83       12.658812
   84       12.674691
 
  0.1111111E+00  0.6938894E-17  0.0000000E+00  0.6172840E-02
    1      -14.389516
    2      -14.162709
    3      -14.162066
    4      -13.911234
    5       -9.904185
    6       -9.737022
    7       -9.736437
    8       -9.558543
    9       -9.358435
   10       -9.349854
   11       -9.213099
   12       -9.211841
   13       -9.203117
   14       -9.202322
   15       -9.065900
   16       -9.055141
   17       -7.712050
   18       -7.708471
   19       -7.601107
   20       -7.598977
   21       -7.595707
   22       -7.594776
   23       -7.465996
   24       -7.461098
   25       -7.206743
   26       -7.075477
   27       -7.073600
   28       -6.930819
   29       -3.456214
   30       -2.269728
   31       -2.267550
   32       -1.390242
   33       -1.373104
   34       -1.335638
   35       -1.335415
   36       -1.319356
   37       -1.317158
   38       -1.279439
   39       -1.262353
   40       -1.086851
   41       -1.038865
   42       -1.035970
   43       -0.987083
   44       -0.789601
   45        1.670229
   46        1.953032
   47        1.975318
   48        1.980367
   49        2.002322
   50        2.094542
   51        2.114556
   52        2.119479
   53        2.140048
   54        2.164197
   55        2.167463
   56        2.471949
   57        2.475198
   58        2.836180
   59        2.840180
   60        2.846127
   61        2.848099
   62        3.220722
   63        3.312600
   64        3.332366
   65        6.859105
   66        6.867371
   67        7.023999
   68        7.027469
   69        7.029563
   70        7.033142
   71        7.068203
   72        7.435408
   73        7.439789
   74        7.770264
   75        7.778236
   76        8.262972
   77       10.252107
   78       12.388780
   79       12.679543
   80       12.683526
   81       12.686356
   82       12.715199
   83       12.986871
   84       13.001442
 
  0.2222222E+00  0.1387779E-16  0.0000000E+00  0.6172840E-02
    1      -14.167752
    2      -13.943583
    3      -13.942949
    4      -13.695421
    5      -10.922720
    6      -10.738167
    7      -10.737633
    8      -10.538277
    9       -9.711800
   10       -9.705948
   11       -9.548148
   12       -9.547277
   13       -9.541689
   14       -9.540794
   15       -9.373130
   16       -9.366493
   17       -7.039569
   18       -7.032474
   19       -6.912729
   20       -6.910723
   21       -6.904561
   22       -6.903780
   23       -6.772575
   24       -6.765133
   25       -5.878164
   26       -5.753439
   27       -5.751657
   28       -5.619866
   29       -3.187272
   30       -2.010182
   31       -2.008032
   32       -2.002672
   33       -1.986602
   34       -1.936698
   35       -1.936381
   36       -1.921338
   37       -1.919158
   38       -1.868018
   39       -1.851976
   40       -0.871462
   41       -0.824264
   42       -0.821282
   43       -0.773434
   44       -0.543640
   45        0.619670
   46        1.120172
   47        1.156799
   48        1.161377
   49        1.198065
   50        1.583166
   51        1.585814
   52        1.670164
   53        1.698196
   54        1.703135
   55        1.731829
   56        1.920788
   57        1.924311
   58        2.682846
   59        2.715241
   60        2.719058
   61        2.723534
   62        2.725396
   63        3.458972
   64        3.473217
   65        7.026836
   66        7.030634
   67        7.359026
   68        7.361999
   69        7.364753
   70        7.368272
   71        8.067764
   72        8.072629
   73        8.106145
   74        8.658084
   75        8.661732
   76        9.471807
   77       10.510044
   78       12.512112
   79       12.796309
   80       12.797947
   81       13.074087
   82       13.457756
   83       13.474107
   84       13.610792
 
  0.3333333E+00  0.2775558E-16  0.0000000E+00  0.6172840E-02
    1      -13.799363
    2      -13.579602
    3      -13.578981
    4      -13.336918
    5      -11.840800
    6      -11.644508
    7      -11.643950
    8      -11.430401
    9       -9.970652
   10       -9.966970
   11       -9.800126
   12       -9.799228
   13       -9.796057
   14       -9.794942
   15       -9.616132
   16       -9.612123
   17       -6.228056
   18       -6.218899
   19       -6.109676
   20       -6.107567
   21       -6.099983
   22       -6.098911
   23       -5.981972
   24       -5.973202
   25       -4.437587
   26       -4.328533
   27       -4.326506
   28       -4.211734
   29       -2.823203
   30       -2.809250
   31       -2.747565
   32       -2.746827
   33       -2.741780
   34       -2.734101
   35       -2.731820
   36       -2.666621
   37       -2.652579
   38       -1.581099
   39       -1.578952
   40       -0.521686
   41       -0.475910
   42       -0.472748
   43       -0.426536
   44       -0.418190
   45       -0.138428
   46       -0.073168
   47       -0.018671
   48       -0.014966
   49        0.040098
   50        0.630890
   51        0.633253
   52        1.103409
   53        1.138273
   54        1.142742
   55        1.178256
   56        1.713818
   57        1.716789
   58        1.891813
   59        2.591576
   60        2.595380
   61        2.598026
   62        2.599647
   63        3.539354
   64        3.547982
   65        7.322518
   66        7.324870
   67        7.751263
   68        7.753548
   69        7.756125
   70        7.760060
   71        8.343171
   72        8.346237
   73        9.597701
   74       10.135240
   75       10.138627
   76       10.853258
   77       10.940804
   78       12.686272
   79       12.973838
   80       12.975818
   81       13.073002
   82       13.456667
   83       13.460225
   84       13.489979
 
  0.4444444E+00  0.2775558E-16  0.0000000E+00  0.6172840E-02
    1      -13.286412
    2      -13.072690
    3      -13.072090
    4      -12.837548
    5      -12.631818
    6      -12.425889
    7      -12.425303
    8      -12.200315
    9      -10.103530
   10      -10.101457
   11       -9.930718
   12       -9.929433
   13       -9.928384
   14       -9.926789
   15       -9.743236
   16       -9.741034
   17       -5.464475
   18       -5.457470
   19       -5.376924
   20       -5.374601
   21       -5.370163
   22       -5.367612
   23       -5.287656
   24       -5.281735
   25       -3.564396
   26       -3.556978
   27       -3.505574
   28       -3.503514
   29       -3.497712
   30       -3.495029
   31       -3.432519
   32       -3.423944
   33       -2.948984
   34       -2.857438
   35       -2.855013
   36       -2.759683
   37       -2.124677
   38       -1.468209
   39       -1.396995
   40       -1.393704
   41       -1.344535
   42       -1.316572
   43       -0.986533
   44       -0.984176
   45       -0.243088
   46       -0.240825
   47       -0.053974
   48       -0.010540
   49       -0.007115
   50        0.036688
   51        0.417092
   52        0.503465
   53        0.543455
   54        0.547481
   55        0.587766
   56        1.105887
   57        1.600668
   58        1.602850
   59        2.517313
   60        2.521388
   61        2.522364
   62        2.523872
   63        3.564740
   64        3.568540
   65        7.579258
   66        7.581919
   67        8.019394
   68        8.020960
   69        8.022205
   70        8.027095
   71        8.481736
   72        8.484784
   73       11.236059
   74       11.537863
   75       11.672731
   76       11.676214
   77       12.270496
   78       12.284660
   79       12.856258
   80       13.004769
   81       13.056608
   82       13.062310
   83       13.199604
   84       13.224627
 
  0.6776264E-20  0.1111111E+00  0.0000000E+00  0.6172840E-02
    1      -14.389514
    2      -14.162707
    3      -14.162064
    4      -13.911232
    5       -9.904287
    6       -9.737107
    7       -9.736621
    8       -9.558725
    9       -9.358456
   10       -9.349507
   11       -9.213025
   12       -9.211849
   13       -9.203103
   14       -9.201581
   15       -9.065835
   16       -9.054712
   17       -7.712429
   18       -7.709561
   19       -7.601187
   20       -7.600671
   21       -7.595867
   22       -7.595462
   23       -7.466377
   24       -7.461904
   25       -7.205646
   26       -7.073733
   27       -7.073273
   28       -6.929824
   29       -3.456219
   30       -2.269733
   31       -2.267556
   32       -1.388937
   33       -1.373093
   34       -1.335467
   35       -1.332812
   36       -1.319562
   37       -1.317157
   38       -1.278064
   39       -1.262437
   40       -1.088056
   41       -1.038886
   42       -1.038566
   43       -0.988512
   44       -0.789609
   45        1.669486
   46        1.956625
   47        1.980339
   48        1.980481
   49        2.004364
   50        2.092483
   51        2.114303
   52        2.114565
   53        2.136587
   54        2.164489
   55        2.167943
   56        2.471393
   57        2.473686
   58        2.836669
   59        2.840103
   60        2.846389
   61        2.850096
   62        3.219257
   63        3.312697
   64        3.333847
   65        6.856910
   66        6.867249
   67        7.023416
   68        7.025785
   69        7.029135
   70        7.031342
   71        7.070577
   72        7.438257
   73        7.440659
   74        7.769980
   75        7.776397
   76        8.264659
   77       10.252098
   78       12.388107
   79       12.679293
   80       12.683279
   81       12.684969
   82       12.717859
   83       12.985034
   84       12.992690
 
  0.1111111E+00  0.1111111E+00  0.0000000E+00  0.6172840E-02
    1      -14.241501
    2      -14.016471
    3      -14.015834
    4      -13.767175
    5      -10.373608
    6      -10.370446
    7      -10.198360
    8      -10.195321
    9      -10.195287
   10      -10.191922
   11      -10.006827
   12      -10.003552
   13       -8.906366
   14       -8.804599
   15       -8.803147
   16       -8.729500
   17       -7.795988
   18       -7.758629
   19       -7.755008
   20       -7.668678
   21       -6.522688
   22       -6.519220
   23       -6.394651
   24       -6.390483
   25       -6.390448
   26       -6.387746
   27       -6.253811
   28       -6.250347
   29       -3.276638
   30       -2.096457
   31       -2.094284
   32       -2.062374
   33       -1.996461
   34       -1.994151
   35       -1.926462
   36       -1.245032
   37       -1.242389
   38       -1.191784
   39       -1.190405
   40       -1.190390
   41       -1.186141
   42       -1.136035
   43       -1.132994
   44       -0.625274
   45        1.216653
   46        1.219102
   47        1.423246
   48        1.446074
   49        1.451103
   50        1.470774
   51        1.782846
   52        1.798600
   53        1.804012
   54        1.823600
   55        2.111456
   56        2.113851
   57        2.113902
   58        2.117990
   59        2.560788
   60        3.069639
   61        3.072430
   62        3.153913
   63        3.157411
   64        3.472905
   65        6.820960
   66        6.824830
   67        6.835031
   68        7.415247
   69        7.490736
   70        7.493882
   71        7.977287
   72        7.982128
   73        7.982481
   74        7.984270
   75        8.783474
   76        8.786166
   77       10.424354
   78       12.763727
   79       12.767888
   80       13.053269
   81       13.056929
   82       13.057549
   83       13.061898
   84       13.372446
 
  0.2222222E+00  0.1111111E+00  0.0000000E+00  0.6172840E-02
    1      -13.946345
    2      -13.724820
    3      -13.724195
    4      -13.479935
    5      -11.344631
    6      -11.154732
    7      -11.154188
    8      -10.948269
    9      -10.716521
   10      -10.534865
   11      -10.534299
   12      -10.338112
   13       -8.970235
   14       -8.829798
   15       -8.828993
   16       -8.688267
   17       -7.361806
   18       -7.258167
   19       -7.255195
   20       -7.132297
   21       -5.732006
   22       -5.612070
   23       -5.611498
   24       -5.484683
   25       -5.133586
   26       -5.017725
   27       -5.015950
   28       -4.893645
   29       -2.976544
   30       -2.919331
   31       -2.898242
   32       -2.896003
   33       -2.813500
   34       -1.776653
   35       -1.751954
   36       -1.749797
   37       -1.712903
   38       -1.712598
   39       -1.646440
   40       -0.956015
   41       -0.904988
   42       -0.902083
   43       -0.849972
   44       -0.299440
   45        0.153543
   46        0.461534
   47        0.499121
   48        0.504218
   49        0.540034
   50        0.870615
   51        1.163158
   52        1.165550
   53        1.233256
   54        1.258716
   55        1.264460
   56        1.292467
   57        1.825061
   58        1.827246
   59        2.354453
   60        2.682414
   61        2.915738
   62        3.355828
   63        3.359227
   64        3.828088
   65        6.757592
   66        6.830625
   67        6.835582
   68        7.343722
   69        8.039618
   70        8.551766
   71        8.554189
   72        8.800743
   73        9.239666
   74        9.349233
   75        9.352424
   76       10.086746
   77       10.770113
   78       12.920653
   79       13.203166
   80       13.204774
   81       13.418529
   82       13.613361
   83       13.653878
   84       13.728374
 
  0.3333333E+00  0.1111111E+00  0.0000000E+00  0.6172840E-02
    1      -13.505559
    2      -13.289268
    3      -13.288660
    4      -13.050892
    5      -12.199744
    6      -11.999097
    7      -11.998526
    8      -11.779813
    9      -10.926706
   10      -10.742061
   11      -10.741485
   12      -10.541879
   13       -9.119446
   14       -8.963659
   15       -8.963174
   16       -8.798587
   17       -6.599456
   18       -6.490967
   19       -6.488178
   20       -6.372973
   21       -4.923431
   22       -4.823338
   23       -4.822072
   24       -4.718638
   25       -3.915586
   26       -3.836469
   27       -3.834020
   28       -3.746361
   29       -3.676173
   30       -3.577388
   31       -3.575374
   32       -3.472507
   33       -2.477415
   34       -2.411090
   35       -2.409937
   36       -2.387677
   37       -2.337811
   38       -1.241459
   39       -1.239405
   40       -0.834640
   41       -0.794128
   42       -0.734422
   43       -0.730523
   44       -0.672250
   45       -0.538283
   46       -0.489859
   47       -0.486830
   48       -0.437370
   49        0.181521
   50        0.241090
   51        0.243385
   52        0.602496
   53        0.639028
   54        0.642805
   55        0.655215
   56        0.682301
   57        1.547697
   58        1.641058
   59        1.643244
   60        2.661218
   61        2.802361
   62        3.446107
   63        3.449087
   64        4.197204
   65        6.626640
   66        6.951002
   67        6.955169
   68        7.448289
   69        8.545267
   70        9.006825
   71        9.009474
   72        9.519758
   73       10.370920
   74       10.854123
   75       10.857303
   76       11.287726
   77       11.475996
   78       12.767921
   79       13.212698
   80       13.399778
   81       13.401659
   82       13.512202
   83       13.528146
   84       13.546677
 
  0.4444444E+00  0.1111111E+00  0.0000000E+00  0.6172840E-02
    1      -12.923720
    2      -12.920600
    3      -12.715512
    4      -12.713007
    5      -12.712056
    6      -12.709381
    7      -12.484508
    8      -12.481300
    9      -10.997643
   10      -10.812291
   11      -10.811709
   12      -10.610910
   13       -9.175364
   14       -9.016617
   15       -9.016154
   16       -8.847310
   17       -6.075263
   18       -6.002903
   19       -6.000311
   20       -5.934225
   21       -4.433637
   22       -4.418676
   23       -4.381467
   24       -4.379053
   25       -4.372646
   26       -4.369395
   27       -4.321469
   28       -4.313947
   29       -2.879408
   30       -2.843619
   31       -2.840484
   32       -2.790483
   33       -2.209115
   34       -2.204968
   35       -2.131179
   36       -2.126028
   37       -2.124306
   38       -2.124000
   39       -2.044568
   40       -2.040728
   41       -1.690095
   42       -1.687489
   43       -0.572516
   44       -0.570057
   45       -0.569337
   46       -0.565791
   47       -0.010042
   48       -0.005083
   49        0.035023
   50        0.035573
   51        0.037800
   52        0.045370
   53        0.082349
   54        0.089146
   55        0.580567
   56        0.803691
   57        0.806723
   58        1.577278
   59        1.579515
   60        2.642430
   61        2.760223
   62        3.469687
   63        3.472244
   64        4.351692
   65        6.572813
   66        7.018970
   67        7.022274
   68        7.502271
   69        8.768438
   70        9.184004
   71        9.187056
   72        9.596890
   73       11.961133
   74       11.968993
   75       11.987228
   76       11.993834
   77       12.343165
   78       12.348251
   79       12.349219
   80       12.351904
   81       12.854167
   82       12.858245
   83       13.440332
   84       13.446796
 
 -0.4444444E+00  0.1111111E+00  0.0000000E+00  0.6172840E-02
    1      -13.506304
    2      -13.290001
    3      -13.289390
    4      -13.051631
    5      -12.198565
    6      -11.997921
    7      -11.997352
    8      -11.778641
    9      -10.928463
   10      -10.743890
   11      -10.743312
   12      -10.543687
   13       -9.116623
   14       -8.960540
   15       -8.960073
   16       -8.795077
   17       -6.593026
   18       -6.483557
   19       -6.482601
   20       -6.366570
   21       -4.933348
   22       -4.833721
   23       -4.830859
   24       -4.727749
   25       -3.925907
   26       -3.846228
   27       -3.845553
   28       -3.757179
   29       -3.678703
   30       -3.580161
   31       -3.577768
   32       -3.474996
   33       -2.464897
   34       -2.399258
   35       -2.396153
   36       -2.388444
   37       -2.324820
   38       -1.242248
   39       -1.240204
   40       -0.833434
   41       -0.792697
   42       -0.732285
   43       -0.729868
   44       -0.670976
   45       -0.535705
   46       -0.487559
   47       -0.484034
   48       -0.434855
   49        0.180712
   50        0.242236
   51        0.244574
   52        0.600837
   53        0.638053
   54        0.640255
   55        0.653575
   56        0.680132
   57        1.548852
   58        1.638876
   59        1.641195
   60        2.662152
   61        2.799072
   62        3.450079
   63        3.452407
   64        4.207820
   65        6.622697
   66        6.952756
   67        6.955418
   68        7.447919
   69        8.541435
   70        9.002874
   71        9.006356
   72        9.519227
   73       10.371381
   74       10.852897
   75       10.856469
   76       11.286570
   77       11.473562
   78       12.769205
   79       13.210443
   80       13.397191
   81       13.399944
   82       13.517053
   83       13.527984
   84       13.558227
 
 -0.3333333E+00  0.1111111E+00  0.0000000E+00  0.6172840E-02
    1      -13.946864
    2      -13.725350
    3      -13.724721
    4      -13.480456
    5      -11.343230
    6      -11.153329
    7      -11.152787
    8      -10.946842
    9      -10.720081
   10      -10.538402
   11      -10.537845
   12      -10.341797
   13       -8.964075
   14       -8.822490
   15       -8.822061
   16       -8.679795
   17       -7.358268
   18       -7.252298
   19       -7.251840
   20       -7.127087
   21       -5.741817
   22       -5.622653
   23       -5.620299
   24       -5.494202
   25       -5.136053
   26       -5.020341
   27       -5.018353
   28       -4.896194
   29       -2.990361
   30       -2.919927
   31       -2.910994
   32       -2.910743
   33       -2.827259
   34       -1.760660
   35       -1.752530
   36       -1.750371
   37       -1.697975
   38       -1.695305
   39       -1.630443
   40       -0.953947
   41       -0.903128
   42       -0.900000
   43       -0.848047
   44       -0.300032
   45        0.154870
   46        0.460529
   47        0.499231
   48        0.501336
   49        0.538421
   50        0.867563
   51        1.164395
   52        1.166831
   53        1.235085
   54        1.261314
   55        1.263982
   56        1.292537
   57        1.820780
   58        1.823224
   59        2.355544
   60        2.683137
   61        2.908945
   62        3.363145
   63        3.365462
   64        3.846565
   65        6.749535
   66        6.833354
   67        6.835818
   68        7.346297
   69        8.035860
   70        8.545631
   71        8.549465
   72        8.800698
   73        9.236821
   74        9.347751
   75        9.351338
   76       10.084282
   77       10.769259
   78       12.918692
   79       13.201153
   80       13.203232
   81       13.417483
   82       13.611668
   83       13.621443
   84       13.781949
 
 -0.2222222E+00  0.1111111E+00  0.0000000E+00  0.6172840E-02
    1      -14.241822
    2      -14.016788
    3      -14.016149
    4      -13.767502
    5      -10.377393
    6      -10.370417
    7      -10.201032
    8      -10.200515
    9      -10.193912
   10      -10.193382
   11      -10.010940
   12      -10.003643
   13       -8.896132
   14       -8.791839
   15       -8.791526
   16       -8.715132
   17       -7.797032
   18       -7.756595
   19       -7.756347
   20       -7.667051
   21       -6.528439
   22       -6.523613
   23       -6.399435
   24       -6.397241
   25       -6.394439
   26       -6.392612
   27       -6.259605
   28       -6.254914
   29       -3.276992
   30       -2.096812
   31       -2.094642
   32       -2.077812
   33       -2.010961
   34       -2.010680
   35       -1.941885
   36       -1.241745
   37       -1.227183
   38       -1.189200
   39       -1.186283
   40       -1.174534
   41       -1.171956
   42       -1.132652
   43       -1.118255
   44       -0.625632
   45        1.213449
   46        1.219531
   47        1.416413
   48        1.441251
   49        1.441576
   50        1.463671
   51        1.790754
   52        1.808343
   53        1.808450
   54        1.829080
   55        2.106335
   56        2.108982
   57        2.114569
   58        2.117482
   59        2.561027
   60        3.059725
   61        3.072343
   62        3.163103
   63        3.165490
   64        3.495270
   65        6.822742
   66        6.824589
   67        6.826938
   68        7.421825
   69        7.491366
   70        7.492265
   71        7.974333
   72        7.977813
   73        7.978523
   74        7.981858
   75        8.780799
   76        8.781733
   77       10.423815
   78       12.764958
   79       12.798069
   80       13.055773
   81       13.057455
   82       13.088633
   83       13.091306
   84       13.400303
 
 -0.1111111E+00  0.1111111E+00  0.0000000E+00  0.6172840E-02
    1      -14.389620
    2      -14.162813
    3      -14.162168
    4      -13.911336
    5       -9.911721
    6       -9.744851
    7       -9.744352
    8       -9.566867
    9       -9.349444
   10       -9.347293
   11       -9.203575
   12       -9.201726
   13       -9.201646
   14       -9.198716
   15       -9.055182
   16       -9.052453
   17       -7.711900
   18       -7.709702
   19       -7.600389
   20       -7.597348
   21       -7.597272
   22       -7.596386
   23       -7.464499
   24       -7.462650
   25       -7.211146
   26       -7.080346
   27       -7.078032
   28       -6.935558
   29       -3.456337
   30       -2.269851
   31       -2.267675
   32       -1.390318
   33       -1.387934
   34       -1.336142
   35       -1.335073
   36       -1.335055
   37       -1.331017
   38       -1.279654
   39       -1.276890
   40       -1.070904
   41       -1.022818
   42       -1.020317
   43       -0.971364
   44       -0.789729
   45        1.665104
   46        1.946262
   47        1.968298
   48        1.973584
   49        1.996329
   50        2.100919
   51        2.121216
   52        2.126653
   53        2.146419
   54        2.167465
   55        2.168784
   56        2.463328
   57        2.466260
   58        2.845637
   59        2.846946
   60        2.847333
   61        2.852083
   62        3.204263
   63        3.331531
   64        3.334386
   65        6.856949
   66        6.860434
   67        7.024006
   68        7.029572
   69        7.029922
   70        7.031457
   71        7.073478
   72        7.432588
   73        7.437134
   74        7.774320
   75        7.776909
   76        8.258842
   77       10.251914
   78       12.421437
   79       12.679189
   80       12.682913
   81       12.716204
   82       12.716923
   83       12.977834
   84       12.990467
 
  0.1355253E-19  0.2222222E+00  0.0000000E+00  0.6172840E-02
    1      -14.167745
    2      -13.943577
    3      -13.942939
    4      -13.695413
    5      -10.922699
    6      -10.738154
    7      -10.737616
    8      -10.538270
    9       -9.711997
   10       -9.705690
   11       -9.548598
   12       -9.547315
   13       -9.541672
   14       -9.540071
   15       -9.373240
   16       -9.366191
   17       -7.039958
   18       -7.033354
   19       -6.912783
   20       -6.912155
   21       -6.904802
   22       -6.904365
   23       -6.772934
   24       -6.765842
   25       -5.877177
   26       -5.751791
   27       -5.751367
   28       -5.618907
   29       -3.187290
   30       -2.010201
   31       -2.008039
   32       -2.001441
   33       -1.986507
   34       -1.936433
   35       -1.934058
   36       -1.921222
   37       -1.919157
   38       -1.866678
   39       -1.851927
   40       -0.872739
   41       -0.824291
   42       -0.824023
   43       -0.774947
   44       -0.543672
   45        0.619228
   46        1.122931
   47        1.161336
   48        1.161531
   49        1.200130
   50        1.582783
   51        1.584991
   52        1.668124
   53        1.698158
   54        1.698297
   55        1.728733
   56        1.920823
   57        1.925202
   58        2.681884
   59        2.715758
   60        2.718959
   61        2.723730
   62        2.727272
   63        3.459145
   64        3.474619
   65        7.024806
   66        7.030415
   67        7.358088
   68        7.360275
   69        7.364598
   70        7.366683
   71        8.066676
   72        8.071375
   73        8.107941
   74        8.660152
   75        8.662475
   76        9.473115
   77       10.510019
   78       12.511394
   79       12.795970
   80       12.796812
   81       13.073335
   82       13.457575
   83       13.460909
   84       13.615176
 
  0.1111111E+00  0.2222222E+00  0.0000000E+00  0.6172840E-02
    1      -13.946339
    2      -13.724815
    3      -13.724188
    4      -13.479929
    5      -11.344589
    6      -11.154698
    7      -11.154141
    8      -10.948231
    9      -10.716553
   10      -10.534883
   11      -10.534336
   12      -10.338133
   13       -8.970224
   14       -8.829774
   15       -8.828991
   16       -8.688253
   17       -7.361870
   18       -7.258168
   19       -7.255373
   20       -7.132413
   21       -5.733082
   22       -5.613721
   23       -5.611985
   24       -5.485753
   25       -5.132515
   26       -5.016036
   27       -5.015511
   28       -4.892581
   29       -2.976444
   30       -2.919346
   31       -2.898074
   32       -2.896002
   33       -2.813428
   34       -1.775305
   35       -1.751971
   36       -1.749815
   37       -1.712641
   38       -1.710065
   39       -1.644977
   40       -0.957393
   41       -0.905092
   42       -0.904914
   43       -0.851548
   44       -0.299464
   45        0.153174
   46        0.463107
   47        0.501351
   48        0.504220
   49        0.540822