   32   32    1    1
  0.8294063E+01  0.4932875E-09  0.4932875E-09  0.1260033E-08  0.5000000E-15
  1.000000000000000E-004
  CAR 
 graphite                                
    128     76     84
 
  0.0000000E+00  0.0000000E+00  0.0000000E+00  0.6944444E-02
    1      -14.464608
    2      -14.236915
    3      -14.236254
    4      -13.984337
    5       -9.098902
    6       -9.089034
    7       -9.086787
    8       -8.995683
    9       -8.993790
   10       -8.983603
   11       -8.982098
   12       -8.982023
   13       -8.977970
   14       -8.919164
   15       -8.905566
   16       -8.902012
   17       -7.987492
   18       -7.985238
   19       -7.983413
   20       -7.946149
   21       -7.945060
   22       -7.943074
   23       -7.942567
   24       -7.942438
   25       -7.939708
   26       -7.851250
   27       -7.850593
   28       -7.848665
   29       -3.548263
   30       -2.359109
   31       -2.357015
   32       -1.166388
   33       -1.163878
   34       -1.148304
   35       -1.117208
   36       -1.116072
   37       -1.116056
   38       -1.111872
   39       -1.099432
   40       -1.097385
   41       -1.066121
   42       -1.063278
   43       -1.048057
   44       -0.875218
   45        2.245717
   46        2.254981
   47        2.261807
   48        2.266721
   49        2.272691
   50        2.277876
   51        2.283525
   52        2.291361
   53        2.292403
   54        2.294871
   55        2.296105
   56        2.884888
   57        2.888928
   58        2.895326
   59        2.895920
   60        2.896233
   61        2.901279
   62        3.212516
   63        3.234872
   64        3.237683
   65        6.817980
   66        6.821580
   67        6.831758
   68        6.889304
   69        6.891762
   70        6.894237
   71        6.896208
   72        6.896614
   73        6.899961
   74        7.629623
   75        7.637336
   76        7.639809
   77       10.166228
   78       12.341629
   79       12.345723
   80       12.377240
   81       12.638572
   82       12.641629
   83       12.648328
   84       12.663365
 
  0.1666667E+00  0.1387779E-16  0.0000000E+00  0.1388889E-01
    1      -14.298180
    2      -14.072496
    3      -14.071843
    4      -13.822384
    5      -10.424548
    6      -10.247458
    7      -10.246889
    8      -10.056497
    9       -9.545126
   10       -9.538007
   11       -9.387944
   12       -9.387111
   13       -9.380084
   14       -9.379116
   15       -9.222470
   16       -9.214060
   17       -7.406827
   18       -7.401251
   19       -7.282797
   20       -7.280608
   21       -7.275832
   22       -7.274922
   23       -7.141905
   24       -7.135584
   25       -6.565971
   26       -6.435906
   27       -6.434317
   28       -6.295358
   29       -3.346193
   30       -2.163936
   31       -2.161845
   32       -1.662483
   33       -1.645765
   34       -1.602587
   35       -1.602387
   36       -1.586627
   37       -1.584616
   38       -1.540762
   39       -1.524100
   40       -1.001381
   41       -0.953677
   42       -0.950605
   43       -0.902301
   44       -0.690036
   45        1.152887
   46        1.587935
   47        1.616827
   48        1.621559
   49        1.650169
   50        1.902910
   51        1.926881
   52        1.932072
   53        1.956601
   54        2.041481
   55        2.044799
   56        2.049324
   57        2.052462
   58        2.777583
   59        2.781378
   60        2.786705
   61        2.788601
   62        3.007636
   63        3.388022
   64        3.405093
   65        6.920370
   66        6.926293
   67        7.171362
   68        7.174729
   69        7.177125
   70        7.180720
   71        7.498775
   72        7.908238
   73        7.914587
   74        7.994020
   75        7.997878
   76        8.829412
   77       10.359225
   78       12.438968
   79       12.728385
   80       12.729991
   81       13.026603
   82       13.077387
   83       13.111503
   84       13.386008
 
  0.3333333E+00  0.2775558E-16  0.0000000E+00  0.1388889E-01
    1      -13.800754
    2      -13.580990
    3      -13.580360
    4      -13.338263
    5      -11.842820
    6      -11.646624
    7      -11.646058
    8      -11.432671
    9       -9.972852
   10       -9.969180
   11       -9.802413
   12       -9.801660
   13       -9.798493
   14       -9.797236
   15       -9.618618
   16       -9.614625
   17       -6.231168
   18       -6.222231
   19       -6.112961
   20       -6.110727
   21       -6.103349
   22       -6.102139
   23       -5.985310
   24       -5.976523
   25       -4.441108
   26       -4.331982
   27       -4.330126
   28       -4.215479
   29       -2.826987
   30       -2.813012
   31       -2.751507
   32       -2.750940
   33       -2.744038
   34       -2.738042
   35       -2.735946
   36       -2.670689
   37       -2.656604
   38       -1.583653
   39       -1.581582
   40       -0.526412
   41       -0.480751
   42       -0.477440
   43       -0.431158
   44       -0.420465
   45       -0.141532
   46       -0.077607
   47       -0.022941
   48       -0.019413
   49        0.035707
   50        0.628252
   51        0.630592
   52        1.098570
   53        1.133358
   54        1.137970
   55        1.173300
   56        1.711440
   57        1.714397
   58        1.888711
   59        2.589033
   60        2.592705
   61        2.595418
   62        2.597025
   63        3.536242
   64        3.544860
   65        7.320098
   66        7.322448
   67        7.748535
   68        7.750895
   69        7.753434
   70        7.757438
   71        8.340281
   72        8.343352
   73        9.595349
   74       10.132651
   75       10.135962
   76       10.850195
   77       10.940524
   78       12.684045
   79       12.971362
   80       12.973440
   81       13.071318
   82       13.454192
   83       13.457802
   84       13.487456
 
  0.5000000E+00  0.5551115E-16  0.0000000E+00  0.6944444E-02
    1      -12.979721
    2      -12.976759
    3      -12.770881
    4      -12.768112
    5      -12.768079
    6      -12.764846
    7      -12.539108
    8      -12.536051
    9      -10.122636
   10      -10.120855
   11       -9.949494
   12       -9.947979
   13       -9.947899
   14       -9.945753
   15       -9.761777
   16       -9.759892
   17       -5.298845
   18       -5.296906
   19       -5.230935
   20       -5.230914
   21       -5.230119
   22       -5.225815
   23       -5.168556
   24       -5.166066
   25       -3.695102
   26       -3.693377
   27       -3.657787
   28       -3.655010
   29       -3.653847
   30       -3.653827
   31       -3.599202
   32       -3.597937
   33       -2.209214
   34       -2.205789
   35       -2.128518
   36       -2.122832
   37       -2.122796
   38       -2.122141
   39       -2.038437
   40       -2.035455
   41       -1.757624
   42       -1.755214
   43       -0.637712
   44       -0.635138
   45       -0.635021
   46       -0.631152
   47        0.208819
   48        0.213086
   49        0.251604
   50        0.252906
   51        0.252922
   52        0.261645
   53        0.296371
   54        0.302856
   55        0.741992
   56        0.744864
   57        1.583763
   58        1.585796
   59        2.504909
   60        2.508985
   61        2.509605
   62        2.511161
   63        3.564111
   64        3.566812
   65        7.617020
   66        7.619528
   67        8.054435
   68        8.055916
   69        8.056608
   70        8.061913
   71        8.494281
   72        8.497369
   73       11.892969
   74       11.894998
   75       12.053288
   76       12.056935
   77       12.407572
   78       12.412682
   79       12.414091
   80       12.416545
   81       12.969031
   82       12.972574
   83       13.127106
   84       13.130157
 
 -0.1355253E-19  0.1666667E+00  0.0000000E+00  0.1388889E-01
    1      -14.298176
    2      -14.072493
    3      -14.071837
    4      -13.822380
    5      -10.424560
    6      -10.247471
    7      -10.246927
    8      -10.056540
    9       -9.545246
   10       -9.537732
   11       -9.388167
   12       -9.387139
   13       -9.380072
   14       -9.378424
   15       -9.222498
   16       -9.213727
   17       -7.407204
   18       -7.402182
   19       -7.282840
   20       -7.282125
   21       -7.275971
   22       -7.275571
   23       -7.142256
   24       -7.136301
   25       -6.564984
   26       -6.434415
   27       -6.433893
   28       -6.294419
   29       -3.346203
   30       -2.163947
   31       -2.161859
   32       -1.661216
   33       -1.645724
   34       -1.602493
   35       -1.599809
   36       -1.586690
   37       -1.584615
   38       -1.539407
   39       -1.524123
   40       -1.002618
   41       -0.953694
   42       -0.953269
   43       -0.903764
   44       -0.690054
   45        1.152314
   46        1.591078
   47        1.621546
   48        1.621836
   49        1.652275
   50        1.900832
   51        1.926855
   52        1.927024
   53        1.953228
   54        2.041443
   55        2.045467
   56        2.049089
   57        2.051415
   58        2.778046
   59        2.781295
   60        2.786905
   61        2.790568
   62        3.006451
   63        3.388141
   64        3.406548
   65        6.918242
   66        6.926138
   67        7.170703
   68        7.172961
   69        7.176903
   70        7.178975
   71        7.500813
   72        7.907581
   73        7.913017
   74        7.996377
   75        7.998772
   76        8.830886
   77       10.359208
   78       12.438288
   79       12.728102
   80       12.728863
   81       13.025830
   82       13.078251
   83       13.111605
   84       13.382512
 
  0.1666667E+00  0.1666667E+00  0.0000000E+00  0.1388889E-01
    1      -13.966034
    2      -13.744290
    3      -13.743652
    4      -13.499121
    5      -11.050386
    6      -11.047280
    7      -10.865434
    8      -10.862577
    9      -10.862543
   10      -10.859116
   11      -10.662358
   12      -10.659150
   13       -8.671559
   14       -8.571983
   15       -8.570648
   16       -8.498309
   17       -7.578404
   18       -7.545029
   19       -7.541183
   20       -7.461099
   21       -5.451380
   22       -5.447703
   23       -5.334507
   24       -5.330392
   25       -5.330355
   26       -5.327215
   27       -5.206943
   28       -5.203291
   29       -3.001186
   30       -2.943766
   31       -2.922393
   32       -2.920421
   33       -2.837474
   34       -1.775843
   35       -1.773763
   36       -1.333163
   37       -1.330289
   38       -1.276226
   39       -1.274646
   40       -1.274630
   41       -1.270153
   42       -1.216069
   43       -1.212828
   44       -0.322760
   45        0.490739
   46        0.493587
   47        0.553643
   48        0.582177
   49        0.586456
   50        0.611690
   51        1.229905
   52        1.247774
   53        1.253062
   54        1.275032
   55        1.474562
   56        1.477243
   57        1.477462
   58        1.481132
   59        2.619814
   60        2.622550
   61        2.888233
   62        3.481832
   63        3.485242
   64        3.787699
   65        6.679080
   66        6.684016
   67        6.796093
   68        7.089695
   69        8.410370
   70        8.413288
   71        8.945205
   72        8.949413
   73        8.949882
   74        8.952091
   75        9.666467
   76        9.669136
   77       10.748732
   78       13.255869
   79       13.260103
   80       13.541111
   81       13.545208
   82       13.545475
   83       13.550141
   84       13.647789
 
  0.3333333E+00  0.1666667E+00  0.0000000E+00  0.1388889E-01
    1      -13.305818
    2      -13.091959
    3      -13.091356
    4      -12.856510
    5      -12.328135
    6      -12.126032
    7      -12.125439
    8      -11.904941
    9      -11.367492
   10      -11.177309
   11      -11.176657
   12      -10.970425
   13       -8.671319
   14       -8.526070
   15       -8.525584
   16       -8.374634
   17       -6.753700
   18       -6.656883
   19       -6.653759
   20       -6.550767
   21       -4.433007
   22       -4.359490
   23       -4.357357
   24       -4.276524
   25       -4.271701
   26       -4.189730
   27       -4.187847
   28       -4.099938
   29       -3.296677
   30       -3.205455
   31       -3.203644
   32       -3.108775
   33       -2.233401
   34       -2.175406
   35       -2.173882
   36       -2.147854
   37       -2.109098
   38       -1.190581
   39       -1.138240
   40       -1.134384
   41       -1.071653
   42       -1.005430
   43       -1.002933
   44       -0.983049
   45       -0.690055
   46       -0.639679
   47       -0.636720
   48       -0.584528
   49        0.100373
   50        0.102544
   51        0.147540
   52        0.214372
   53        0.250378
   54        0.255610
   55        0.294302
   56        0.396287
   57        1.169745
   58        1.171830
   59        1.421806
   60        2.392176
   61        3.154811
   62        3.889185
   63        3.892223
   64        4.514130
   65        6.254865
   66        6.538733
   67        6.542997
   68        7.029027
   69        9.228873
   70        9.663200
   71        9.665969
   72       10.126512
   73       10.711018
   74       11.153125
   75       11.156074
   76       11.527982
   77       11.699681
   78       12.667362
   79       13.008877
   80       13.246900
   81       13.252465
   82       13.630652
   83       13.671168
   84       13.822286
 
  0.5000000E+00  0.1666667E+00  0.0000000E+00  0.1388889E-01
    1      -13.307015
    2      -13.093158
    3      -13.092542
    4      -12.857696
    5      -12.326450
    6      -12.124343
    7      -12.123763
    8      -11.903262
    9      -11.368709
   10      -11.178537
   11      -11.177879
   12      -10.971657
   13       -8.668623
   14       -8.522899
   15       -8.522464
   16       -8.370835
   17       -6.749502
   18       -6.651415
   19       -6.650149
   20       -6.546209
   21       -4.440842
   22       -4.367088
   23       -4.366498
   24       -4.286063
   25       -4.280367
   26       -4.199393
   27       -4.196021
   28       -4.108195
   29       -3.300352
   30       -3.209595
   31       -3.207025
   32       -3.112630
   33       -2.222583
   34       -2.164999
   35       -2.161731
   36       -2.149099
   37       -2.097452
   38       -1.188526
   39       -1.135320
   40       -1.133472
   41       -1.069614
   42       -1.006605
   43       -1.004112
   44       -0.981345
   45       -0.686422
   46       -0.636520
   47       -0.632647
   48       -0.580939
   49        0.102063
   50        0.104296
   51        0.146296
   52        0.212291
   53        0.249135
   54        0.252051
   55        0.291558
   56        0.395001
   57        1.168298
   58        1.170424
   59        1.423446
   60        2.390147
   61        3.155007
   62        3.893071
   63        3.895389
   64        4.526465
   65        6.248376
   66        6.539193
   67        6.541981
   68        7.027884
   69        9.225015
   70        9.659890
   71        9.663249
   72       10.126298
   73       10.712366
   74       11.151616
   75       11.155124
   76       11.526171
   77       11.695924
   78       12.669756
   79       13.005080
   80       13.247857
   81       13.253101
   82       13.626822
   83       13.674385
   84       13.820387
 
 -0.3333333E+00  0.1666667E+00  0.0000000E+00  0.1388889E-01
    1      -13.966750
    2      -13.745005
    3      -13.744357
    4      -13.499828
    5      -11.052459
    6      -11.046670
    7      -10.866427
    8      -10.865794
    9      -10.860561
   10      -10.860015
   11      -10.664551
   12      -10.658681
   13       -8.661719
   14       -8.559748
   15       -8.559352
   16       -8.484424
   17       -7.580033
   18       -7.543638
   19       -7.543282
   20       -7.460300
   21       -5.459038
   22       -5.453601
   23       -5.341272
   24       -5.338807
   25       -5.335703
   26       -5.333892
   27       -5.214418
   28       -5.209442
   29       -3.014506
   30       -2.944558
   31       -2.934990
   32       -2.934549
   33       -2.850860
   34       -1.776626
   35       -1.774556
   36       -1.328414
   37       -1.315776
   38       -1.272267
   39       -1.269050
   40       -1.259292
   41       -1.256709
   42       -1.211283
   43       -1.198721
   44       -0.323563
   45        0.488586
   46        0.494392
   47        0.548354
   48        0.578856
   49        0.579537
   50        0.606932
   51        1.235431
   52        1.255242
   53        1.255467
   54        1.278942
   55        1.471799
   56        1.474032
   57        1.478651
   58        1.481242
   59        2.614465
   60        2.623190
   61        2.888171
   62        3.490526
   63        3.492885
   64        3.809397
   65        6.680630
   66        6.683166
   67        6.785426
   68        7.092469
   69        8.407671
   70        8.411094
   71        8.941458
   72        8.945122
   73        8.945334
   74        8.948725
   75        9.663305
   76        9.665085
   77       10.747587
   78       13.255968
   79       13.288083
   80       13.542831
   81       13.544962
   82       13.575386
   83       13.577414
   84       13.646238
 
 -0.1666667E+00  0.1666667E+00  0.0000000E+00  0.1388889E-01
    1      -14.298414
    2      -14.072732
    3      -14.072072
    4      -13.822615
    5      -10.430813
    6      -10.253862
    7      -10.253319
    8      -10.063088
    9       -9.536696
   10       -9.534673
   11       -9.379399
   12       -9.377752
   13       -9.377678
   14       -9.374991
   15       -9.213034
   16       -9.210671
   17       -7.405653
   18       -7.403672
   19       -7.281361
   20       -7.278666
   21       -7.278609
   22       -7.277533
   23       -7.140142
   24       -7.138296
   25       -6.572086
   26       -6.442389
   27       -6.440095
   28       -6.301409
   29       -3.346469
   30       -2.164212
   31       -2.162127
   32       -1.662027
   33       -1.659731
   34       -1.602454
   35       -1.601656
   36       -1.601635
   37       -1.597519
   38       -1.540465
   39       -1.537816
   40       -0.985622
   41       -0.937691
   42       -0.935288
   43       -0.886773
   44       -0.690326
   45        1.147440
   46        1.580266
   47        1.608971
   48        1.614253
   49        1.643242
   50        1.910304
   51        1.934590
   52        1.939595
   53        1.963631
   54        2.041181
   55        2.044003
   56        2.046426
   57        2.048260
   58        2.786717
   59        2.788090
   60        2.788418
   61        2.793166
   62        2.995234
   63        3.404456
   64        3.407307
   65        6.918756
   66        6.922130
   67        7.170934
   68        7.176396
   69        7.176806
   70        7.178460
   71        7.499733
   72        7.909077
   73        7.911761
   74        7.990083
   75        7.994286
   76        8.826263
   77       10.358808
   78       12.471132
   79       12.760505
   80       12.761858
   81       13.058383
   82       13.075191
   83       13.078931
   84       13.375662
 
 -0.2710505E-19  0.3333333E+00  0.0000000E+00  0.1388889E-01
    1      -13.800737
    2      -13.580979
    3      -13.580334
    4      -13.338244
    5      -11.842783
    6      -11.646602
    7      -11.646007
    8      -11.432635
    9       -9.973212
   10       -9.968862
   11       -9.803230
   12       -9.801715
   13       -9.798486
   14       -9.796350
   15       -9.618899
   16       -9.614282
   17       -6.231700
   18       -6.223141
   19       -6.113004
   20       -6.112406
   21       -6.103443
   22       -6.103063
   23       -5.985849
   24       -5.977307
   25       -4.440011
   26       -4.330203
   27       -4.329741
   28       -4.214406
   29       -2.825699
   30       -2.812665
   31       -2.750973
   32       -2.748927
   33       -2.744075
   34       -2.737377
   35       -2.735940
   36       -2.669340
   37       -2.656332
   38       -1.583699
   39       -1.581645
   40       -0.527786
   41       -0.480771
   42       -0.480420
   43       -0.432811
   44       -0.420722
   45       -0.141613
   46       -0.075490
   47       -0.019441
   48       -0.018989
   49        0.037543
   50        0.628015
   51        0.630130
   52        1.096702
   53        1.133341
   54        1.133683
   55        1.170733
   56        1.711395
   57        1.715305
   58        1.888196
   59        2.589469
   60        2.592572
   61        2.595461
   62        2.598924
   63        3.536550
   64        3.546071
   65        7.318463
   66        7.321972
   67        7.746807
   68        7.749418
   69        7.753435
   70        7.756153
   71        8.338452
   72        8.342612
   73        9.596684
   74       10.134123
   75       10.136644
   76       10.851234
   77       10.940491
   78       12.683249
   79       12.971055
   80       12.972070
   81       13.070736
   82       13.453497
   83       13.455266
   84       13.485267
 
  0.1666667E+00  0.3333333E+00  0.0000000E+00  0.1388889E-01
    1      -13.305804
    2      -13.091949
    3      -13.091333
    4      -12.856490
    5      -12.328100
    6      -12.126011
    7      -12.125383
    8      -11.904900
    9      -11.367539
   10      -11.177329
   11      -11.176731
   12      -10.970472
   13       -8.671253
   14       -8.525959
   15       -8.525538
   16       -8.374544
   17       -6.754067
   18       -6.656888
   19       -6.654685
   20       -6.551345
   21       -4.432514
   22       -4.358677
   23       -4.357352
   24       -4.278034
   25       -4.271293
   26       -4.190847
   27       -4.189711
   28       -4.101487
   29       -3.295241
   30       -3.203668
   31       -3.202550
   32       -3.107318
   33       -2.231640
   34       -2.173887
   35       -2.171933
   36       -2.147886
   37       -2.107360
   38       -1.189354
   39       -1.136324
   40       -1.134381
   41       -1.070801
   42       -1.005401
   43       -1.002824
   44       -0.983386
   45       -0.691711
   46       -0.640178
   47       -0.639667
   48       -0.586338
   49        0.100148
   50        0.102256
   51        0.147830
   52        0.213498
   53        0.250375
   54        0.253227
   55        0.292678
   56        0.396207
   57        1.170099
   58        1.172261
   59        1.421424
   60        2.392734
   61        3.155267
   62        3.889983
   63        3.892428
   64        4.514451
   65        6.254843
   66        6.538579
   67        6.541677
   68        7.027808
   69        9.227678
   70        9.662231
   71        9.664498
   72       10.125153
   73       10.712180
   74       11.154283
   75       11.157001
   76       11.527978
   77       11.700815
   78       12.667209
   79       13.009258
   80       13.247072
   81       13.252514
   82       13.629218
   83       13.671187
   84       13.820291
 
  0.3333333E+00  0.3333333E+00  0.0000000E+00  0.1388889E-01
    1      -12.493398
    2      -12.490595
    3      -12.488029
    4      -12.290904
    5      -12.287419
    6      -12.287382
    7      -12.285800
    8      -12.284524
    9      -12.281709
   10      -12.065829
   11      -12.063014
   12      -12.060377
   13       -7.462519
   14       -7.312287
   15       -7.310698
   16       -7.302472
   17       -7.299754
   18       -7.293016
   19       -7.291156
   20       -7.143819
   21       -5.258873
   22       -5.258537
   23       -5.246366
   24       -5.244995
   25       -2.517092
   26       -2.513758
   27       -2.511810
   28       -2.470212
   29       -2.465102
   30       -2.465059
   31       -2.464497
   32       -2.464226
   33       -2.458784
   34       -2.421624
   35       -2.418937
   36       -2.415279
   37       -1.175480
   38       -1.173769
   39       -1.170706
   40       -1.144620
   41       -1.141138
   42       -1.138449
   43       -1.116398
   44       -1.112586
   45       -1.110780
   46       -1.110178
   47       -1.110164
   48       -1.103959
   49       -1.073955
   50       -1.072067
   51       -1.067458
   52       -0.082060
   53       -0.077978
   54       -0.077699
   55       -0.076519
   56       -0.075369
   57       -0.071639
   58        1.259585
   59        1.262156
   60        1.265015
   61        4.347514
   62        5.190978
   63        5.203137
   64        5.227768
   65        5.232112
   66        5.265127
   67        5.265996
   68        6.274952
   69       11.254468
   70       11.257784
   71       11.263815
   72       11.594697
   73       11.599669
   74       11.600103
   75       11.600916
   76       11.601796
   77       11.605426
   78       11.961103
   79       11.968275
   80       11.970974
   81       12.502190
   82       12.503561
   83       12.507402
   84       14.949552
 
  0.5000000E+00  0.3333333E+00  0.0000000E+00  0.1388889E-01
    1      -13.307714
    2      -13.093865
    3      -13.093228
    4      -12.858390
    5      -12.329984
    6      -12.127921
    7      -12.127242
    8      -11.906784
    9      -11.363716
   10      -11.173478
   11      -11.172928
   12      -10.966645
   13       -8.661214
   14       -8.515637
   15       -8.515035
   16       -8.363660
   17       -6.757408
   18       -6.660084
   19       -6.659409
   20       -6.556188
   21       -4.438847
   22       -4.365620
   23       -4.364443
   24       -4.284449
   25       -4.278783
   26       -4.198274
   27       -4.195624
   28       -4.108480
   29       -3.307022
   30       -3.216177
   31       -3.212990
   32       -3.118448
   33       -2.227400
   34       -2.170656
   35       -2.166896
   36       -2.149925
   37       -2.103309
   38       -1.197530
   39       -1.143703
   40       -1.141405
   41       -1.077564
   42       -1.007891
   43       -1.005283
   44       -0.985252
   45       -0.676582
   46       -0.626294
   47       -0.623033
   48       -0.571012
   49        0.098004
   50        0.100116
   51        0.151493
   52        0.221905
   53        0.259408
   54        0.261369
   55        0.301427
   56        0.394058
   57        1.173696
   58        1.176059
   59        1.418833
   60        2.396333
   61        3.160382
   62        3.897909
   63        3.900444
   64        4.527462
   65        6.257015
   66        6.535066
   67        6.537644
   68        7.013543
   69        9.231504
   70        9.659694
   71        9.662925
   72       10.116339
   73       10.704964
   74       11.148409
   75       11.151715
   76       11.525231
   77       11.699181
   78       12.665442
   79       13.000692
   80       13.245807
   81       13.251128
   82       13.656874
   83       13.674575
   84       13.848449
 
 -0.3333333E+00  0.3333333E+00  0.0000000E+00  0.1388889E-01
    1      -13.801689
    2      -13.581933
    3      -13.581275
    4      -13.339186
    5      -11.846593
    6      -11.650464
    7      -11.649809
    8      -11.436478
    9       -9.965625
   10       -9.963788
   11       -9.795354
   12       -9.793769
   13       -9.793697
   14       -9.791485
   15       -9.611161
   16       -9.609192
   17       -6.230480
   18       -6.228471
   19       -6.112839
   20       -6.109834
   21       -6.109793
   22       -6.108828
   23       -5.985270
   24       -5.983301
   25       -4.449914
   26       -4.340925
   27       -4.338428
   28       -4.223874
   29       -2.824224
   30       -2.822318
   31       -2.748706
   32       -2.748528
   33       -2.748448
   34       -2.745590
   35       -2.743987
   36       -2.668294
   37       -2.666057
   38       -1.584755
   39       -1.582713
   40       -0.511772
   41       -0.465924
   42       -0.463187
   43       -0.424588
   44       -0.416728
   45       -0.142716
   46       -0.087263
   47       -0.032689
   48       -0.028411
   49        0.026722
   50        0.623756
   51        0.625868
   52        1.108814
   53        1.143835
   54        1.147857
   55        1.183175
   56        1.717452
   57        1.719332
   58        1.883005
   59        2.597249
   60        2.598749
   61        2.599090
   62        2.603604
   63        3.546458
   64        3.549231
   65        7.321538
   66        7.324490
   67        7.745400
   68        7.750809
   69        7.751236
   70        7.752866
   71        8.331255
   72        8.334184
   73        9.589356
   74       10.127196
   75       10.130561
   76       10.848378
   77       10.939084
   78       12.710294
   79       13.000529
   80       13.002304
   81       13.088258
   82       13.463421
   83       13.467317
   84       13.502171
 
 -0.1666667E+00  0.3333333E+00  0.0000000E+00  0.1388889E-01
    1      -13.966737
    2      -13.744998
    3      -13.744338
    4      -13.499814
    5      -11.052899
    6      -11.046292
    7      -10.867374
    8      -10.866252
    9      -10.860433
   10      -10.858737
   11      -10.664948
   12      -10.658227
   13       -8.660993
   14       -8.559703
   15       -8.557768
   16       -8.483580
   17       -7.581919
   18       -7.546642
   19       -7.543624
   20       -7.461895
   21       -5.459622
   22       -5.452295
   23       -5.341301
   24       -5.340762
   25       -5.333927
   26       -5.332074
   27       -5.214996
   28       -5.207972
   29       -3.013427
   30       -2.944585
   31       -2.934957
   32       -2.932325
   33       -2.849674
   34       -1.776661
   35       -1.774598
   36       -1.329768
   37       -1.315551
   38       -1.272307
   39       -1.272030
   40       -1.258462
   41       -1.256707
   42       -1.212685
   43       -1.198416
   44       -0.323615
   45        0.488566
   46        0.494249
   47        0.550242
   48        0.578868
   49        0.584177