       N       E                     dE             d eps       ncg     rms          rms(c)
DAV:   1     0.564401571088E+03    0.56440E+03   -0.72408E+04 27384   0.161E+03
DAV:   2    -0.265633711447E+03   -0.83004E+03   -0.79957E+03 34116   0.310E+02
DAV:   3    -0.311747392394E+03   -0.46114E+02   -0.45656E+02 33132   0.730E+01
DAV:   4    -0.312595896091E+03   -0.84850E+00   -0.84679E+00 34176   0.107E+01
DAV:   5    -0.312620462565E+03   -0.24566E-01   -0.24556E-01 34464   0.173E+00    0.221E+01
DAV:   6    -0.298480381370E+03    0.14140E+02   -0.14595E+01 31296   0.107E+01    0.116E+01
DAV:   7    -0.294060620842E+03    0.44198E+01   -0.14960E+01 31188   0.108E+01    0.189E+00
DAV:   8    -0.294111769998E+03   -0.51149E-01   -0.34949E-01 31056   0.170E+00    0.244E-01
DAV:   9    -0.294113145397E+03   -0.13754E-02   -0.11579E-02 33384   0.366E-01    0.102E-01
DAV:  10    -0.294113904411E+03   -0.75901E-03   -0.18909E-03 32976   0.138E-01    0.582E-02
DAV:  11    -0.294114029510E+03   -0.12510E-03   -0.57240E-04 32904   0.691E-02    0.301E-02
DAV:  12    -0.294114104578E+03   -0.75069E-04   -0.12777E-04 31056   0.393E-02    0.762E-03
DAV:  13    -0.294114110506E+03   -0.59271E-05   -0.35950E-05 33372   0.163E-02    0.597E-03
DAV:  14    -0.294114109595E+03    0.91059E-06   -0.20046E-05 21828   0.111E-02    0.339E-03
DAV:  15    -0.294114109159E+03    0.43644E-06   -0.61905E-06 21480   0.665E-03
   1 F= -.29949952E+03 E0= -.29949952E+03  d E =0.000000E+00
