 vasp.5.3.5 31Mar14 (build Nov 02 2014 15:17:37) complex                        
  
 executed on        ion-Intel-MKL date 2016.10.19  00:39:08
 running on    6 total cores
 distrk:  each k-point on    6 cores,    1 groups
 distr:  one band on NCORES_PER_BAND=   1 cores,    6 groups


--------------------------------------------------------------------------------------------------------


 INCAR:
 POTCAR:   PAW_PBE C 08Apr2002                    

 ----------------------------------------------------------------------------- 
|                                                                             |
|           W    W    AA    RRRRR   N    N  II  N    N   GGGG   !!!           |
|           W    W   A  A   R    R  NN   N  II  NN   N  G    G  !!!           |
|           W    W  A    A  R    R  N N  N  II  N N  N  G       !!!           |
|           W WW W  AAAAAA  RRRRR   N  N N  II  N  N N  G  GGG   !            |
|           WW  WW  A    A  R   R   N   NN  II  N   NN  G    G                |
|           W    W  A    A  R    R  N    N  II  N    N   GGGG   !!!           |
|                                                                             |
|      For optimal performance we recommend to set                            |
|        NCORE= 4 - approx SQRT( number of cores)                             |
|      NCORE specifies how many cores store one orbital (NPAR=cpu/NCORE).     |
|      This setting can  greatly improve the performance of VASP for DFT.     |
|      The default, NPAR=number of cores might be grossly inefficient         |
|      on modern multi-core architectures or massively parallel machines.     |
|      Do your own testing !!!!                                               |
|      Unfortunately you need to use the default for GW and RPA calculations. |
|      (for HF NCORE is supported but not extensively tested yet)             |
|                                                                             |
 ----------------------------------------------------------------------------- 

 POTCAR:   PAW_PBE C 08Apr2002                    
   VRHFIN =C: s2p2                                                              
   LEXCH  = PE                                                                  
   EATOM  =   147.1560 eV,   10.8157 Ry                                         
                                                                                
   TITEL  = PAW_PBE C 08Apr2002                                                 
   LULTRA =        F    use ultrasoft PP ?                                      
   IUNSCR =        0    unscreen: 0-lin 1-nonlin 2-no                           
   RPACOR =     .000    partial core radius                                     
   POMASS =   12.011; ZVAL   =    4.000    mass and valenz                      
   RCORE  =    1.500    outmost cutoff radius                                   
   RWIGS  =    1.630; RWIGS  =     .863    wigner-seitz radius (au A)           
   ENMAX  =  400.000; ENMIN  =  300.000 eV                                      
   ICORE  =        2    local potential                                         
   LCOR   =        T    correct aug charges                                     
   LPAW   =        T    paw PP                                                  
   EAUG   =  644.873                                                            
   DEXC   =     .000                                                            
   RMAX   =    2.266    core radius for proj-oper                               
   RAUG   =    1.300    factor for augmentation sphere                          
   RDEP   =    1.501    radius for radial grids                                 
   RDEPT  =    1.300    core radius for aug-charge                              
   QCUT   =   -5.516; QGAM   =   11.032    optimization parameters              
                                                                                
   Description                                                                  
     l     E      TYP  RCUT    TYP  RCUT                                        
     0   .000     23  1.200                                                     
     0   .000     23  1.200                                                     
     1   .000     23  1.500                                                     
     1  2.500     23  1.500                                                     
     2   .000      7  1.500                                                     
  local pseudopotential read in
  atomic valenz-charges read in
  non local Contribution for L=           0  read in
    real space projection operators read in
  non local Contribution for L=           0  read in
    real space projection operators read in
  non local Contribution for L=           1  read in
    real space projection operators read in
  non local Contribution for L=           1  read in
    real space projection operators read in
    PAW grid and wavefunctions read in
 
   number of l-projection  operators is LMAX  =           4
   number of lm-projection operators is LMMAX =           8
 

 ----------------------------------------------------------------------------- 
|                                                                             |
|  ADVICE TO THIS USER RUNNING 'VASP/VAMP'   (HEAR YOUR MASTER'S VOICE ...):  |
|                                                                             |
|      You have a (more or less) 'large supercell' and for larger cells       |
|      it might be more efficient to use real space projection operators      |
|      So try LREAL= Auto  in the INCAR   file.                               |
|      Mind: If you want to do a very accurate calculations keep the          |
|      reciprocal projection scheme          (i.e. LREAL=.FALSE.)             |
|                                                                             |
 ----------------------------------------------------------------------------- 

 PAW_PBE C 08Apr2002                    :
 energy of atom  1       EATOM= -147.1560
 kinetic energy error for atom=    0.0016 (will be added to EATOM!!)
 
 
 POSCAR: C                                       
  positions in direct lattice
  No initial velocities read in
 exchange correlation table for  LEXCH =        8
   RHO(1)=    0.500       N(1)  =     2000
   RHO(2)=  100.500       N(2)  =     4000
 


--------------------------------------------------------------------------------------------------------


 ion  position               nearest neighbor table
   1  0.499  0.000  0.124-  19 1.42  18 1.42  20 1.43
   2  1.000  0.000  0.125-  17 1.42  20 1.42  19 1.42
   3  0.500  0.500  0.125-  20 1.42  17 1.42  18 1.42
   4  1.000  0.500  0.125-  19 1.42  18 1.42  17 1.42
   5  0.500  0.000  0.625-  22 1.42  23 1.42  24 1.42
   6  1.000  0.000  0.625-  21 1.42  24 1.42  23 1.42
   7  0.500  0.500  0.625-  24 1.42  21 1.42  22 1.42
   8  1.000  0.500  0.625-  23 1.42  22 1.42  21 1.42
   9  0.000  0.500  0.375-  27 1.42  26 1.42  28 1.42
  10  0.500  0.500  0.375-  28 1.42  25 1.42  27 1.42
  11  0.000  1.000  0.375-  25 1.42  28 1.42  26 1.42
  12  0.500  1.000  0.375-  26 1.42  27 1.42  25 1.42
  13  0.000  0.500  0.875-  31 1.42  30 1.42  32 1.42
  14  0.500  0.500  0.875-  32 1.42  29 1.42  31 1.42
  15  0.000  1.000  0.875-  29 1.42  32 1.42  30 1.42
  16  0.500  1.000  0.875-  30 1.42  31 1.42  29 1.42
  17  0.166  0.334  0.125-   2 1.42   3 1.42   4 1.42
  18  0.666  0.334  0.125-   4 1.42   1 1.42   3 1.42
  19  0.166  0.834  0.125-   1 1.42   4 1.42   2 1.42
  20  0.666  0.834  0.125-   3 1.42   2 1.42   1 1.43
  21  0.166  0.334  0.625-   6 1.42   7 1.42   8 1.42
  22  0.666  0.334  0.625-   5 1.42   8 1.42   7 1.42
  23  0.166  0.834  0.625-   8 1.42   5 1.42   6 1.42
  24  0.666  0.834  0.625-   7 1.42   6 1.42   5 1.42
  25  0.334  0.166  0.375-  11 1.42  10 1.42  12 1.42
  26  0.834  0.166  0.375-  12 1.42   9 1.42  11 1.42
  27  0.334  0.666  0.375-   9 1.42  12 1.42  10 1.42
  28  0.834  0.666  0.375-  10 1.42  11 1.42   9 1.42
  29  0.334  0.166  0.875-  15 1.42  14 1.42  16 1.42
  30  0.834  0.166  0.875-  16 1.42  13 1.42  15 1.42
  31  0.334  0.666  0.875-  13 1.42  16 1.42  14 1.42
  32  0.834  0.666  0.875-  14 1.42  15 1.42  13 1.42
 
  LATTYP: Found a base centered orthorhombic cell.
 ALAT       =     4.9295501972
 B/A-ratio  =     1.7336081796
 C/A-ratio  =     2.5560803481
  
  Lattice vectors:
  
 A1 = (   4.9328744980,  -0.0019192860,   0.0000000000)
 A2 = (  -2.4680993993,   4.2710349859,   0.0000000000)
 A3 = (   0.0000000000,   0.0000000000,  12.6003263840)


Analysis of symmetry for initial positions (statically):
=====================================================================
 Subroutine PRICEL returns:
 Original cell was already a primitive cell.
 

 Routine SETGRP: Setting up the symmetry group for a 
 base centered orthorhombic supercell.


 Subroutine GETGRP returns: Found  1 space group operations
 (whereof  1 operations were pure point group operations)
 out of a pool of  8 trial point group operations.


The static configuration has the point symmetry C_1 .


Analysis of symmetry for dynamics (positions and initial velocities):
=====================================================================
 Subroutine PRICEL returns:
 Original cell was already a primitive cell.
 

 Routine SETGRP: Setting up the symmetry group for a 
 base centered orthorhombic supercell.


 Subroutine GETGRP returns: Found  1 space group operations
 (whereof  1 operations were pure point group operations)
 out of a pool of  8 trial point group operations.


The dynamic configuration has the point symmetry C_1 .
 
 
 KPOINTS: B4C B11C-CBC                            

Automatic generation of k-mesh.
Space group operators:
 irot       det(A)        alpha          n_x          n_y          n_z        tau_x        tau_y        tau_z
    1     1.000000     0.000000     1.000000     0.000000     0.000000     0.000000     0.000000     0.000000
 
 Subroutine IBZKPT returns following result:
 ===========================================
 
 Found     76 irreducible k-points:
 
 Following reciprocal coordinates:
            Coordinates               Weight
  0.000000  0.000000  0.000000      1.000000
  0.166667  0.000000  0.000000      2.000000
  0.333333  0.000000  0.000000      2.000000
  0.500000  0.000000  0.000000      1.000000
 -0.000000  0.166667  0.000000      2.000000
  0.166667  0.166667  0.000000      2.000000
  0.333333  0.166667  0.000000      2.000000
  0.500000  0.166667  0.000000      2.000000
 -0.333333  0.166667  0.000000      2.000000
 -0.166667  0.166667  0.000000      2.000000
 -0.000000  0.333333  0.000000      2.000000
  0.166667  0.333333  0.000000      2.000000
  0.333333  0.333333  0.000000      2.000000
  0.500000  0.333333  0.000000      2.000000
 -0.333333  0.333333  0.000000      2.000000
 -0.166667  0.333333  0.000000      2.000000
  0.000000  0.500000  0.000000      1.000000
  0.166667  0.500000  0.000000      2.000000
  0.333333  0.500000  0.000000      2.000000
  0.500000  0.500000  0.000000      1.000000
  0.000000  0.000000  0.250000      2.000000
  0.166667  0.000000  0.250000      2.000000
  0.333333  0.000000  0.250000      2.000000
  0.500000  0.000000  0.250000      2.000000
 -0.333333 -0.000000  0.250000      2.000000
 -0.166667 -0.000000  0.250000      2.000000
 -0.000000  0.166667  0.250000      2.000000
  0.166667  0.166667  0.250000      2.000000
  0.333333  0.166667  0.250000      2.000000
  0.500000  0.166667  0.250000      2.000000
 -0.333333  0.166667  0.250000      2.000000
 -0.166667  0.166667  0.250000      2.000000
 -0.000000  0.333333  0.250000      2.000000
  0.166667  0.333333  0.250000      2.000000
  0.333333  0.333333  0.250000      2.000000
  0.500000  0.333333  0.250000      2.000000
 -0.333333  0.333333  0.250000      2.000000
 -0.166667  0.333333  0.250000      2.000000
  0.000000  0.500000  0.250000      2.000000
  0.166667  0.500000  0.250000      2.000000
  0.333333  0.500000  0.250000      2.000000
  0.500000  0.500000  0.250000      2.000000
 -0.333333  0.500000  0.250000      2.000000
 -0.166667  0.500000  0.250000      2.000000
  0.000000 -0.333333  0.250000      2.000000
  0.166667 -0.333333  0.250000      2.000000
  0.333333 -0.333333  0.250000      2.000000
  0.500000 -0.333333  0.250000      2.000000
 -0.333333 -0.333333  0.250000      2.000000
 -0.166667 -0.333333  0.250000      2.000000
  0.000000 -0.166667  0.250000      2.000000
  0.166667 -0.166667  0.250000      2.000000
  0.333333 -0.166667  0.250000      2.000000
  0.500000 -0.166667  0.250000      2.000000
 -0.333333 -0.166667  0.250000      2.000000
 -0.166667 -0.166667  0.250000      2.000000
  0.000000  0.000000  0.500000      1.000000
  0.166667  0.000000  0.500000      2.000000
  0.333333  0.000000  0.500000      2.000000
  0.500000  0.000000  0.500000      1.000000
 -0.000000  0.166667  0.500000      2.000000
  0.166667  0.166667  0.500000      2.000000
  0.333333  0.166667  0.500000      2.000000
  0.500000  0.166667  0.500000      2.000000
 -0.333333  0.166667  0.500000      2.000000
 -0.166667  0.166667  0.500000      2.000000
 -0.000000  0.333333  0.500000      2.000000
  0.166667  0.333333  0.500000      2.000000
  0.333333  0.333333  0.500000      2.000000
  0.500000  0.333333  0.500000      2.000000
 -0.333333  0.333333  0.500000      2.000000
 -0.166667  0.333333  0.500000      2.000000
  0.000000  0.500000  0.500000      1.000000
  0.166667  0.500000  0.500000      2.000000
  0.333333  0.500000  0.500000      2.000000
  0.500000  0.500000  0.500000      1.000000
 
 Following cartesian coordinates:
            Coordinates               Weight
  0.000000  0.000000  0.000000      1.000000
  0.033795  0.019529  0.000000      2.000000
  0.067589  0.039058  0.000000      2.000000
  0.101384  0.058586  0.000000      1.000000
  0.000015  0.039031  0.000000      2.000000
  0.033810  0.058560  0.000000      2.000000
  0.067604  0.078089  0.000000      2.000000
  0.101399  0.097618  0.000000      2.000000
 -0.067574 -0.000026  0.000000      2.000000
 -0.033779  0.019503  0.000000      2.000000
  0.000030  0.078063  0.000000      2.000000
  0.033825  0.097591  0.000000      2.000000
  0.067619  0.117120  0.000000      2.000000
  0.101414  0.136649  0.000000      2.000000
 -0.067559  0.039005  0.000000      2.000000
 -0.033764  0.058534  0.000000      2.000000
  0.000046  0.117094  0.000000      1.000000
  0.033840  0.136623  0.000000      2.000000
  0.067635  0.156152  0.000000      2.000000
  0.101429  0.175680  0.000000      1.000000
  0.000000  0.000000  0.019841      2.000000
  0.033795  0.019529  0.019841      2.000000
  0.067589  0.039058  0.019841      2.000000
  0.101384  0.058586  0.019841      2.000000
 -0.067589 -0.039058  0.019841      2.000000
 -0.033795 -0.019529  0.019841      2.000000
  0.000015  0.039031  0.019841      2.000000
  0.033810  0.058560  0.019841      2.000000
  0.067604  0.078089  0.019841      2.000000
  0.101399  0.097618  0.019841      2.000000
 -0.067574 -0.000026  0.019841      2.000000
 -0.033779  0.019503  0.019841      2.000000
  0.000030  0.078063  0.019841      2.000000
  0.033825  0.097591  0.019841      2.000000
  0.067619  0.117120  0.019841      2.000000
  0.101414  0.136649  0.019841      2.000000
 -0.067559  0.039005  0.019841      2.000000
 -0.033764  0.058534  0.019841      2.000000
  0.000046  0.117094  0.019841      2.000000
  0.033840  0.136623  0.019841      2.000000
  0.067635  0.156152  0.019841      2.000000
  0.101429  0.175680  0.019841      2.000000
 -0.067543  0.078036  0.019841      2.000000
 -0.033749  0.097565  0.019841      2.000000
 -0.000030 -0.078063  0.019841      2.000000
  0.033764 -0.058534  0.019841      2.000000
  0.067559 -0.039005  0.019841      2.000000
  0.101353 -0.019476  0.019841      2.000000
 -0.067619 -0.117120  0.019841      2.000000
 -0.033825 -0.097591  0.019841      2.000000
 -0.000015 -0.039031  0.019841      2.000000
  0.033779 -0.019503  0.019841      2.000000
  0.067574  0.000026  0.019841      2.000000
  0.101368  0.019555  0.019841      2.000000
 -0.067604 -0.078089  0.019841      2.000000
 -0.033810 -0.058560  0.019841      2.000000
  0.000000  0.000000  0.039682      1.000000
  0.033795  0.019529  0.039682      2.000000
  0.067589  0.039058  0.039682      2.000000
  0.101384  0.058586  0.039682      1.000000
  0.000015  0.039031  0.039682      2.000000
  0.033810  0.058560  0.039682      2.000000
  0.067604  0.078089  0.039682      2.000000
  0.101399  0.097618  0.039682      2.000000
 -0.067574 -0.000026  0.039682      2.000000
 -0.033779  0.019503  0.039682      2.000000
  0.000030  0.078063  0.039682      2.000000
  0.033825  0.097591  0.039682      2.000000
  0.067619  0.117120  0.039682      2.000000
  0.101414  0.136649  0.039682      2.000000
 -0.067559  0.039005  0.039682      2.000000
 -0.033764  0.058534  0.039682      2.000000
  0.000046  0.117094  0.039682      1.000000
  0.033840  0.136623  0.039682      2.000000
  0.067635  0.156152  0.039682      2.000000
  0.101429  0.175680  0.039682      1.000000
 
 TETIRR: Found    432 inequivalent tetrahedra from      864


--------------------------------------------------------------------------------------------------------




 Dimension of arrays:
   k-points           NKPTS =     76   k-points in BZ     NKDIM =     76   number of bands    NBANDS=     84
   number of dos      NEDOS =    301   number of ions     NIONS =     32
   non local maximal  LDIM  =      4   non local SUM 2l+1 LMDIM =      8
   total plane-waves  NPLWV = 276480
   max r-space proj   IRMAX =      1   max aug-charges    IRDMAX=  12491
   dimension x,y,z NGX =    48 NGY =   48 NGZ =  120
   dimension x,y,z NGXF=    96 NGYF=   96 NGZF=  240
   support grid    NGXF=    96 NGYF=   96 NGZF=  240
   ions per type =              32
 NGX,Y,Z   is equivalent  to a cutoff of  16.18, 16.18, 15.83 a.u.
 NGXF,Y,Z  is equivalent  to a cutoff of  32.35, 32.35, 31.67 a.u.


 I would recommend the setting:
   dimension x,y,z NGX =    46 NGY =   46 NGZ =  116
 SYSTEM =  graphite                                
 POSCAR =  C                                       

 Startparameter for this run:
   NWRITE =      2    write-flag & timer
   PREC   = accura    normal or accurate (medium, high low for compatibility)
   ISTART =      0    job   : 0-new  1-cont  2-samecut
   ICHARG =      2    charge: 1-file 2-atom 10-const
   ISPIN  =      1    spin polarized calculation?
   LNONCOLLINEAR =      F non collinear calculations
   LSORBIT =      F    spin-orbit coupling
   INIWAV =      1    electr: 0-lowe 1-rand  2-diag
   LASPH  =      F    aspherical Exc in radial PAW
   METAGGA=      F    non-selfconsistent MetaGGA calc.

 Electronic Relaxation 1
   ENCUT  =  800.0 eV  58.80 Ry    7.67 a.u.  11.38 11.38 29.06*2*pi/ulx,y,z
   ENINI  =  800.0     initial cutoff
   ENAUG  =  644.9 eV  augmentation charge cutoff
   NELM   =    200;   NELMIN=  2; NELMDL=  0     # of ELM steps 
   EDIFF  = 0.1E-07   stopping-criterion for ELM
   LREAL  =      F    real-space projection
   NLSPLINE    = F    spline interpolate recip. space projectors
   LCOMPAT=      F    compatible to vasp.4.4
   GGA_COMPAT  = T    GGA compatible to vasp.4.4-vasp.4.6
   LMAXPAW     = -100 max onsite density
   LMAXMIX     =    2 max onsite mixed and CHGCAR
   VOSKOWN=      0    Vosko Wilk Nusair interpolation
   ROPT   =    0.00000
 Ionic relaxation
   EDIFFG = 0.1E-02   stopping-criterion for IOM
   NSW    =      0    number of steps for IOM
   NBLOCK =      1;   KBLOCK =      1    inner block; outer block 
   IBRION =     -1    ionic relax: 0-MD 1-quasi-New 2-CG
   NFREE  =      0    steps in history (QN), initial steepest desc. (CG)
   ISIF   =      2    stress and relaxation
   IWAVPR =     10    prediction:  0-non 1-charg 2-wave 3-comb
   ISYM   =      2    0-nonsym 1-usesym 2-fastsym
   LCORR  =      T    Harris-Foulkes like correction to forces

   POTIM  = 0.5000    time-step for ionic-motion
   TEIN   =    0.0    initial temperature
   TEBEG  =    0.0;   TEEND  =   0.0 temperature during run
   SMASS  =  -3.00    Nose mass-parameter (am)
   estimated Nose-frequenzy (Omega)   =  0.10E-29 period in steps =****** mass=  -0.556E-27a.u.
   SCALEE = 1.0000    scale energy and forces
   NPACO  =    256;   APACO  = 16.0  distance and # of slots for P.C.
   PSTRESS=    0.0 pullay stress

  Mass of Ions in am
   POMASS =  12.01
  Ionic Valenz
   ZVAL   =   4.00
  Atomic Wigner-Seitz radii
   RWIGS  =  -1.00
  virtual crystal weights 
   VCA    =   1.00
   NELECT =     128.0000    total number of electrons
   NUPDOWN=      -1.0000    fix difference up-down

 DOS related values:
   EMIN   =  10.00;   EMAX   =-10.00  energy-range for DOS
   EFERMI =   0.00
   ISMEAR =    -5;   SIGMA  =   0.20  broadening in eV -4-tet -1-fermi 0-gaus

 Electronic relaxation 2 (details)
   IALGO  =     38    algorithm
   LDIAG  =      T    sub-space diagonalisation (order eigenvalues)
   LSUBROT=      F    optimize rotation matrix (better conditioning)
   TURBO    =      0    0=normal 1=particle mesh
   IRESTART =      0    0=no restart 2=restart with 2 vectors
   NREBOOT  =      0    no. of reboots
   NMIN     =      0    reboot dimension
   EREF     =   0.00    reference energy to select bands
   IMIX   =      4    mixing-type and parameters
     AMIX     =   0.40;   BMIX     =  1.00
     AMIX_MAG =   1.60;   BMIX_MAG =  1.00
     AMIN     =   0.10
     WC   =   100.;   INIMIX=   1;  MIXPRE=   1;  MAXMIX= -45

 Intra band minimization:
   WEIMIN = 0.0000     energy-eigenvalue tresh-hold
   EBREAK =  0.30E-10  absolut break condition
   DEPER  =   0.30     relativ break condition  

   TIME   =   0.40     timestep for ELM

  volume/ion in A,a.u.               =       8.29        55.97
  Fermi-wavevector in a.u.,A,eV,Ry     =   1.283825  2.426077 22.425200  1.648206
  Thomas-Fermi vector in A             =   2.416055
 
 Write flags
   LWAVE  =      F    write WAVECAR
   LCHARG =      F    write CHGCAR
   LVTOT  =      F    write LOCPOT, total local potential
   LVHAR  =      F    write LOCPOT, Hartree potential only
   LELF   =      F    write electronic localiz. function (ELF)
   LORBIT =      0    0 simple, 1 ext, 2 COOP (PROOUT)


 Dipole corrections
   LMONO  =      F    monopole corrections only (constant potential shift)
   LDIPOL =      F    correct potential (dipole corrections)
   IDIPOL =      0    1-x, 2-y, 3-z, 4-all directions 
   EPSILON=  1.0000000 bulk dielectric constant

 Exchange correlation treatment:
   GGA     =    PE    GGA type
   LEXCH   =     8    internal setting for exchange type
   VOSKOWN=      0    Vosko Wilk Nusair interpolation
   LHFCALC =     F    Hartree Fock is set to
   LHFONE  =     F    Hartree Fock one center treatment
   AEXX    =    0.0000 exact exchange contribution

 Linear response parameters
   LEPSILON=     F    determine dielectric tensor
   LRPA    =     F    only Hartree local field effects (RPA)
   LNABLA  =     F    use nabla operator in PAW spheres
   LVEL    =     F    velocity operator in full k-point grid
   LINTERFAST=   F  fast interpolation
   KINTER  =     0    interpolate to denser k-point grid
   CSHIFT  =0.1000    complex shift for real part using Kramers Kronig
   OMEGAMAX=  -1.0    maximum frequency
   DEG_THRESHOLD= 0.2000000E-02 threshold for treating states as degnerate
   RTIME   =    0.100 relaxation time in fs

 Orbital magnetization related:
   ORBITALMAG=     F  switch on orbital magnetization
   LCHIMAG   =     F  perturbation theory with respect to B field
   DQ        =  0.001000  dq finite difference perturbation B field



--------------------------------------------------------------------------------------------------------


 Static calculation
 charge density and potential will be updated during run
 non-spin polarized calculation
 Variant of blocked Davidson
 Davidson routine will perform the subspace rotation
 perform sub-space diagonalisation
    after iterative eigenvector-optimisation
 modified Broyden-mixing scheme, WC =      100.0
 initial mixing is a Kerker type mixing with AMIX =  0.4000 and BMIX =      1.0000
 Hartree-type preconditioning will be used
 using additional bands           20
 reciprocal scheme for non local part
 calculate Harris-corrections to forces 
   (improved forces if not selfconsistent)
 use gradient corrections 
 use of overlap-Matrix (Vanderbilt PP)
 Fermi weights with tetrahedron method with Bloechl corrections


--------------------------------------------------------------------------------------------------------


  energy-cutoff  :      800.00
  volume of cell :      265.41
      direct lattice vectors                 reciprocal lattice vectors
     4.932874498 -0.001919286  0.000000000     0.202767147  0.117172881  0.000000000
    -2.468099399  4.271034986  0.000000000     0.000091118  0.234187941  0.000000000
     0.000000000  0.000000000 12.600326384     0.000000000  0.000000000  0.079363024

  length of vectors
     4.932874871  4.932874871 12.600326384     0.234187958  0.234187958  0.079363024


 
 k-points in units of 2pi/SCALE and weight: B4C B11C-CBC                            
   0.00000000  0.00000000  0.00000000       0.007
   0.03379452  0.01952881  0.00000000       0.014
   0.06758905  0.03905763  0.00000000       0.014
   0.10138357  0.05858644  0.00000000       0.007
   0.00001519  0.03903132  0.00000000       0.014
   0.03380971  0.05856014  0.00000000       0.014
   0.06760424  0.07808895  0.00000000       0.014
   0.10139876  0.09761776  0.00000000       0.014
  -0.06757386 -0.00002630  0.00000000       0.014
  -0.03377934  0.01950251  0.00000000       0.014
   0.00003037  0.07806265  0.00000000       0.014
   0.03382490  0.09759146  0.00000000       0.014
   0.06761942  0.11712027  0.00000000       0.014
   0.10141395  0.13664909  0.00000000       0.014
  -0.06755868  0.03900502  0.00000000       0.014
  -0.03376415  0.05853383  0.00000000       0.014
   0.00004556  0.11709397  0.00000000       0.007
   0.03384008  0.13662278  0.00000000       0.014
   0.06763461  0.15615160  0.00000000       0.014
   0.10142913  0.17568041  0.00000000       0.007
   0.00000000  0.00000000  0.01984076       0.014
   0.03379452  0.01952881  0.01984076       0.014
   0.06758905  0.03905763  0.01984076       0.014
   0.10138357  0.05858644  0.01984076       0.014
  -0.06758905 -0.03905763  0.01984076       0.014
  -0.03379452 -0.01952881  0.01984076       0.014
   0.00001519  0.03903132  0.01984076       0.014
   0.03380971  0.05856014  0.01984076       0.014
   0.06760424  0.07808895  0.01984076       0.014
   0.10139876  0.09761776  0.01984076       0.014
  -0.06757386 -0.00002630  0.01984076       0.014
  -0.03377934  0.01950251  0.01984076       0.014
   0.00003037  0.07806265  0.01984076       0.014
   0.03382490  0.09759146  0.01984076       0.014
   0.06761942  0.11712027  0.01984076       0.014
   0.10141395  0.13664909  0.01984076       0.014
  -0.06755868  0.03900502  0.01984076       0.014
  -0.03376415  0.05853383  0.01984076       0.014
   0.00004556  0.11709397  0.01984076       0.014
   0.03384008  0.13662278  0.01984076       0.014
   0.06763461  0.15615160  0.01984076       0.014
   0.10142913  0.17568041  0.01984076       0.014
  -0.06754349  0.07803634  0.01984076       0.014
  -0.03374897  0.09756516  0.01984076       0.014
  -0.00003037 -0.07806265  0.01984076       0.014
   0.03376415 -0.05853383  0.01984076       0.014
   0.06755868 -0.03900502  0.01984076       0.014
   0.10135320 -0.01947621  0.01984076       0.014
  -0.06761942 -0.11712027  0.01984076       0.014
  -0.03382490 -0.09759146  0.01984076       0.014
  -0.00001519 -0.03903132  0.01984076       0.014
   0.03377934 -0.01950251  0.01984076       0.014
   0.06757386  0.00002630  0.01984076       0.014
   0.10136839  0.01955512  0.01984076       0.014
  -0.06760424 -0.07808895  0.01984076       0.014
  -0.03380971 -0.05856014  0.01984076       0.014
   0.00000000  0.00000000  0.03968151       0.007
   0.03379452  0.01952881  0.03968151       0.014
   0.06758905  0.03905763  0.03968151       0.014
   0.10138357  0.05858644  0.03968151       0.007
   0.00001519  0.03903132  0.03968151       0.014
   0.03380971  0.05856014  0.03968151       0.014
   0.06760424  0.07808895  0.03968151       0.014
   0.10139876  0.09761776  0.03968151       0.014
  -0.06757386 -0.00002630  0.03968151       0.014
  -0.03377934  0.01950251  0.03968151       0.014
   0.00003037  0.07806265  0.03968151       0.014
   0.03382490  0.09759146  0.03968151       0.014
   0.06761942  0.11712027  0.03968151       0.014
   0.10141395  0.13664909  0.03968151       0.014
  -0.06755868  0.03900502  0.03968151       0.014
  -0.03376415  0.05853383  0.03968151       0.014
   0.00004556  0.11709397  0.03968151       0.007
   0.03384008  0.13662278  0.03968151       0.014
   0.06763461  0.15615160  0.03968151       0.014
   0.10142913  0.17568041  0.03968151       0.007
 
 k-points in reciprocal lattice and weights: B4C B11C-CBC                            
   0.00000000  0.00000000  0.00000000       0.007
   0.16666667  0.00000000  0.00000000       0.014
   0.33333333  0.00000000  0.00000000       0.014
   0.50000000  0.00000000  0.00000000       0.007
  -0.00000000  0.16666667  0.00000000       0.014
   0.16666667  0.16666667  0.00000000       0.014
   0.33333333  0.16666667  0.00000000       0.014
   0.50000000  0.16666667  0.00000000       0.014
  -0.33333333  0.16666667  0.00000000       0.014
  -0.16666667  0.16666667  0.00000000       0.014
  -0.00000000  0.33333333  0.00000000       0.014
   0.16666667  0.33333333  0.00000000       0.014
   0.33333333  0.33333333  0.00000000       0.014
   0.50000000  0.33333333  0.00000000       0.014
  -0.33333333  0.33333333  0.00000000       0.014
  -0.16666667  0.33333333  0.00000000       0.014
   0.00000000  0.50000000  0.00000000       0.007
   0.16666667  0.50000000  0.00000000       0.014
   0.33333333  0.50000000  0.00000000       0.014
   0.50000000  0.50000000  0.00000000       0.007
   0.00000000  0.00000000  0.25000000       0.014
   0.16666667  0.00000000  0.25000000       0.014
   0.33333333  0.00000000  0.25000000       0.014
   0.50000000  0.00000000  0.25000000       0.014
  -0.33333333 -0.00000000  0.25000000       0.014
  -0.16666667 -0.00000000  0.25000000       0.014
  -0.00000000  0.16666667  0.25000000       0.014
   0.16666667  0.16666667  0.25000000       0.014
   0.33333333  0.16666667  0.25000000       0.014
   0.50000000  0.16666667  0.25000000       0.014
  -0.33333333  0.16666667  0.25000000       0.014
  -0.16666667  0.16666667  0.25000000       0.014
  -0.00000000  0.33333333  0.25000000       0.014
   0.16666667  0.33333333  0.25000000       0.014
   0.33333333  0.33333333  0.25000000       0.014
   0.50000000  0.33333333  0.25000000       0.014
  -0.33333333  0.33333333  0.25000000       0.014
  -0.16666667  0.33333333  0.25000000       0.014
   0.00000000  0.50000000  0.25000000       0.014
   0.16666667  0.50000000  0.25000000       0.014
   0.33333333  0.50000000  0.25000000       0.014
   0.50000000  0.50000000  0.25000000       0.014
  -0.33333333  0.50000000  0.25000000       0.014
  -0.16666667  0.50000000  0.25000000       0.014
   0.00000000 -0.33333333  0.25000000       0.014
   0.16666667 -0.33333333  0.25000000       0.014
   0.33333333 -0.33333333  0.25000000       0.014
   0.50000000 -0.33333333  0.25000000       0.014
  -0.33333333 -0.33333333  0.25000000       0.014
  -0.16666667 -0.33333333  0.25000000       0.014
   0.00000000 -0.16666667  0.25000000       0.014
   0.16666667 -0.16666667  0.25000000       0.014
   0.33333333 -0.16666667  0.25000000       0.014
   0.50000000 -0.16666667  0.25000000       0.014
  -0.33333333 -0.16666667  0.25000000       0.014
  -0.16666667 -0.16666667  0.25000000       0.014
   0.00000000  0.00000000  0.50000000       0.007
   0.16666667  0.00000000  0.50000000       0.014
   0.33333333  0.00000000  0.50000000       0.014
   0.50000000  0.00000000  0.50000000       0.007
  -0.00000000  0.16666667  0.50000000       0.014
   0.16666667  0.16666667  0.50000000       0.014
   0.33333333  0.16666667  0.50000000       0.014
   0.50000000  0.16666667  0.50000000       0.014
  -0.33333333  0.16666667  0.50000000       0.014
  -0.16666667  0.16666667  0.50000000       0.014
  -0.00000000  0.33333333  0.50000000       0.014
   0.16666667  0.33333333  0.50000000       0.014
   0.33333333  0.33333333  0.50000000       0.014
   0.50000000  0.33333333  0.50000000       0.014
  -0.33333333  0.33333333  0.50000000       0.014
  -0.16666667  0.33333333  0.50000000       0.014
   0.00000000  0.50000000  0.50000000       0.007
   0.16666667  0.50000000  0.50000000       0.014
   0.33333333  0.50000000  0.50000000       0.014
   0.50000000  0.50000000  0.50000000       0.007
 
 position of ions in fractional coordinates (direct lattice) 
   0.49893429  0.00032672  0.12426098
   0.99967330  0.00032672  0.12500000
   0.49967330  0.50032672  0.12500000
   0.99967330  0.50032672  0.12500000
   0.49967330  0.00032672  0.62500000
   0.99967330  0.00032672  0.62500000
   0.49967330  0.50032672  0.62500000
   0.99967330  0.50032672  0.62500000
   0.00032672  0.49967330  0.37500000
   0.50032672  0.49967330  0.37500000
   0.00032672  0.99967330  0.37500000
   0.50032672  0.99967330  0.37500000
   0.00032672  0.49967330  0.87500000
   0.50032672  0.49967330  0.87500000
   0.00032672  0.99967330  0.87500000
   0.50032672  0.99967330  0.87500000
   0.16629246  0.33370753  0.12500000
   0.66629246  0.33370753  0.12500000
   0.16629246  0.83370753  0.12500000
   0.66629246  0.83370753  0.12500000
   0.16629246  0.33370753  0.62500000
   0.66629246  0.33370753  0.62500000
   0.16629246  0.83370753  0.62500000
   0.66629246  0.83370753  0.62500000
   0.33370753  0.16629246  0.37500000
   0.83370753  0.16629246  0.37500000
   0.33370753  0.66629246  0.37500000
   0.83370753  0.66629246  0.37500000
   0.33370753  0.16629246  0.87500000
   0.83370753  0.16629246  0.87500000
   0.33370753  0.66629246  0.87500000
   0.83370753  0.66629246  0.87500000
 
 position of ions in cartesian coordinates  (Angst):
   2.46037385  0.00043783  1.56572895
   4.93045658 -0.00052323  1.57504080
   1.22996963  2.13595390  1.57504080
   3.69640688  2.13499426  1.57504080
   2.46401933  0.00043641  7.87520399
   4.93045658 -0.00052323  7.87520399
   1.22996963  2.13595390  7.87520399
   3.69640688  2.13499426  7.87520399
  -1.23163172  2.13412154  4.72512239
   1.23480553  2.13316189  4.72512239
  -2.46568142  4.26963903  4.72512239
   0.00075583  4.26867939  4.72512239
  -1.23163172  2.13412154 11.02528559
   1.23480553  2.13316189 11.02528559
  -2.46568142  4.26963903 11.02528559
   0.00075583  4.26867939 11.02528559
  -0.00332350  1.42495737  1.57504080
   2.46311374  1.42399773  1.57504080
  -1.23737320  3.56047486  1.57504080
   1.22906405  3.55951522  1.57504080
  -0.00332350  1.42495737  7.87520399
   2.46311374  1.42399773  7.87520399
  -1.23737320  3.56047486  7.87520399
   1.22906405  3.55951522  7.87520399
   1.23571103  0.70960044  4.72512239
   3.70214828  0.70864080  4.72512239
   0.00166133  2.84511794  4.72512239
   2.46809858  2.84415829  4.72512239
   1.23571103  0.70960044 11.02528559
   3.70214828  0.70864080 11.02528559
   0.00166133  2.84511794 11.02528559
   2.46809858  2.84415829 11.02528559
 


--------------------------------------------------------------------------------------------------------


 k-point  1 :   0.0000 0.0000 0.0000  plane waves:   13615
 k-point  2 :   0.1667 0.0000 0.0000  plane waves:   13658
 k-point  3 :   0.3333 0.0000 0.0000  plane waves:   13640
 k-point  4 :   0.5000 0.0000 0.0000  plane waves:   13600
 k-point  5 :  -0.0000 0.1667 0.0000  plane waves:   13658
 k-point  6 :   0.1667 0.1667 0.0000  plane waves:   13647
 k-point  7 :   0.3333 0.1667 0.0000  plane waves:   13633
 k-point  8 :   0.5000 0.1667 0.0000  plane waves:   13631
 k-point  9 :  -0.3333 0.1667 0.0000  plane waves:   13651
 k-point 10 :  -0.1667 0.1667 0.0000  plane waves:   13664
 k-point 11 :  -0.0000 0.3333 0.0000  plane waves:   13640
 k-point 12 :   0.1667 0.3333 0.0000  plane waves:   13633
 k-point 13 :   0.3333 0.3333 0.0000  plane waves:   13628
 k-point 14 :   0.5000 0.3333 0.0000  plane waves:   13631
 k-point 15 :  -0.3333 0.3333 0.0000  plane waves:   13628
 k-point 16 :  -0.1667 0.3333 0.0000  plane waves:   13651
 k-point 17 :   0.0000 0.5000 0.0000  plane waves:   13600
 k-point 18 :   0.1667 0.5000 0.0000  plane waves:   13631
 k-point 19 :   0.3333 0.5000 0.0000  plane waves:   13631
 k-point 20 :   0.5000 0.5000 0.0000  plane waves:   13604
 k-point 21 :   0.0000 0.0000 0.2500  plane waves:   13624
 k-point 22 :   0.1667 0.0000 0.2500  plane waves:   13672
 k-point 23 :   0.3333 0.0000 0.2500  plane waves:   13638
 k-point 24 :   0.5000 0.0000 0.2500  plane waves:   13644
 k-point 25 :  -0.3333-0.0000 0.2500  plane waves:   13638
 k-point 26 :  -0.1667-0.0000 0.2500  plane waves:   13672
 k-point 27 :  -0.0000 0.1667 0.2500  plane waves:   13672
 k-point 28 :   0.1667 0.1667 0.2500  plane waves:   13653
 k-point 29 :   0.3333 0.1667 0.2500  plane waves:   13620
 k-point 30 :   0.5000 0.1667 0.2500  plane waves:   13619
 k-point 31 :  -0.3333 0.1667 0.2500  plane waves:   13654
 k-point 32 :  -0.1667 0.1667 0.2500  plane waves:   13673
 k-point 33 :  -0.0000 0.3333 0.2500  plane waves:   13638
 k-point 34 :   0.1667 0.3333 0.2500  plane waves:   13620
 k-point 35 :   0.3333 0.3333 0.2500  plane waves:   13625
 k-point 36 :   0.5000 0.3333 0.2500  plane waves:   13616
 k-point 37 :  -0.3333 0.3333 0.2500  plane waves:   13641
 k-point 38 :  -0.1667 0.3333 0.2500  plane waves:   13654
 k-point 39 :   0.0000 0.5000 0.2500  plane waves:   13644
 k-point 40 :   0.1667 0.5000 0.2500  plane waves:   13619
 k-point 41 :   0.3333 0.5000 0.2500  plane waves:   13616
 k-point 42 :   0.5000 0.5000 0.2500  plane waves:   13636
 k-point 43 :  -0.3333 0.5000 0.2500  plane waves:   13616
 k-point 44 :  -0.1667 0.5000 0.2500  plane waves:   13619
 k-point 45 :   0.0000-0.3333 0.2500  plane waves:   13638
 k-point 46 :   0.1667-0.3333 0.2500  plane waves:   13654
 k-point 47 :   0.3333-0.3333 0.2500  plane waves:   13641
 k-point 48 :   0.5000-0.3333 0.2500  plane waves:   13616
 k-point 49 :  -0.3333-0.3333 0.2500  plane waves:   13625
 k-point 50 :  -0.1667-0.3333 0.2500  plane waves:   13620
 k-point 51 :   0.0000-0.1667 0.2500  plane waves:   13672
 k-point 52 :   0.1667-0.1667 0.2500  plane waves:   13673
 k-point 53 :   0.3333-0.1667 0.2500  plane waves:   13654
 k-point 54 :   0.5000-0.1667 0.2500  plane waves:   13619
 k-point 55 :  -0.3333-0.1667 0.2500  plane waves:   13620
 k-point 56 :  -0.1667-0.1667 0.2500  plane waves:   13653
 k-point 57 :   0.0000 0.0000 0.5000  plane waves:   13686
 k-point 58 :   0.1667 0.0000 0.5000  plane waves:   13674
 k-point 59 :   0.3333 0.0000 0.5000  plane waves:   13638
 k-point 60 :   0.5000 0.0000 0.5000  plane waves:   13688
 k-point 61 :  -0.0000 0.1667 0.5000  plane waves:   13674
 k-point 62 :   0.1667 0.1667 0.5000  plane waves:   13652
 k-point 63 :   0.3333 0.1667 0.5000  plane waves:   13620
 k-point 64 :   0.5000 0.1667 0.5000  plane waves:   13616
 k-point 65 :  -0.3333 0.1667 0.5000  plane waves:   13650
 k-point 66 :  -0.1667 0.1667 0.5000  plane waves:   13676
 k-point 67 :  -0.0000 0.3333 0.5000  plane waves:   13638
 k-point 68 :   0.1667 0.3333 0.5000  plane waves:   13620
 k-point 69 :   0.3333 0.3333 0.5000  plane waves:   13620
 k-point 70 :   0.5000 0.3333 0.5000  plane waves:   13620
 k-point 71 :  -0.3333 0.3333 0.5000  plane waves:   13638
 k-point 72 :  -0.1667 0.3333 0.5000  plane waves:   13650
 k-point 73 :   0.0000 0.5000 0.5000  plane waves:   13688
 k-point 74 :   0.1667 0.5000 0.5000  plane waves:   13616
 k-point 75 :   0.3333 0.5000 0.5000  plane waves:   13620
 k-point 76 :   0.5000 0.5000 0.5000  plane waves:   13680

 maximum and minimum number of plane-waves per node :     13688    13600

 maximum number of plane-waves:     13688
 maximum index in each direction: 
   IXMAX=   11   IYMAX=   11   IZMAX=   29
   IXMIN=  -11   IYMIN=  -11   IZMIN=  -29

 NGX is ok and might be reduce to  46
 NGY is ok and might be reduce to  46
 NGZ is ok and might be reduce to 118

 serial   3D FFT for wavefunctions
 parallel 3D FFT for charge:
    minimum data exchange during FFTs selected (reduces bandwidth)


 total amount of memory used by VASP on root node   383660. kBytes
========================================================================

   base      :      30000. kBytes
   nonl-proj :      73608. kBytes
   fftplans  :      13581. kBytes
   grid      :      28889. kBytes
   one-center:         98. kBytes
   wavefun   :     237484. kBytes
 
     INWAV:  cpu time    0.00: real time    0.00
 Broyden mixing: mesh for mixing (old mesh)
   NGX = 23   NGY = 23   NGZ = 59
  (NGX  = 96   NGY  = 96   NGZ  =240)
  gives a total of  31211 points

 initial charge density was supplied:
 charge density of overlapping atoms calculated
 number of electron     128.0000000 magnetization 
 keeping initial charge density in first step


--------------------------------------------------------------------------------------------------------


 Maximum index for augmentation-charges         2021 (set IRDMAX)


--------------------------------------------------------------------------------------------------------


 First call to EWALD:  gamma=   0.276
 Maximum number of real-space cells 4x 4x 2
 Maximum number of reciprocal cells 2x 2x 5

 FEWALD executed in parallel
    FEWALD:  cpu time    0.02: real time    0.04


----------------------------------------- Iteration    1(   1)  ---------------------------------------


    POTLOK:  cpu time    0.99: real time    1.97
    SETDIJ:  cpu time    0.02: real time    0.06
     EDDAV:  cpu time  217.00: real time  434.14
 BZINTS: Fermi energy: 17.851571;128.000000 electrons
         Band energy: 231.443568;  BLOECHL correction: -0.096660
       DOS:  cpu time    0.09: real time    0.18
    --------------------------------------------
      LOOP:  cpu time  218.11: real time  436.37

 eigenvalue-minimisations  : 12768
 total energy-change (2. order) : 0.6759607E+03  (-0.8508252E+04)
 number of electron     128.0000000 magnetization 
 augmentation part      128.0000000 magnetization 

 Free energy of the ion-electron system (eV)
  ---------------------------------------------------
  alpha Z        PSCENC =       314.36523906
  Ewald energy   TEWEN  =     -3986.26397262
  -Hartree energ DENC   =      -999.83172161
  -exchange      EXHF   =         0.00000000
  -V(xc)+E(xc)   XCENC  =       444.12141441
  PAW double counting   =      1210.60617908    -1247.42152856
  entropy T*S    EENTRO =         0.00000000
  eigenvalues    EBANDS =       231.44356787
  atomic energy  EATOM  =      4708.94155045
  ---------------------------------------------------
  free energy    TOTEN  =       675.96072808 eV

  energy without entropy =      675.96072808  energy(sigma->0) =      675.96072808


--------------------------------------------------------------------------------------------------------




----------------------------------------- Iteration    1(   2)  ---------------------------------------


     EDDAV:  cpu time  251.55: real time  503.34
 BZINTS: Fermi energy:  4.670266;128.000000 electrons
         Band energy:-702.168854;  BLOECHL correction:  0.000000
       DOS:  cpu time    0.02: real time    0.04
    --------------------------------------------
      LOOP:  cpu time  251.58: real time  503.41

 eigenvalue-minimisations  : 15804
 total energy-change (2. order) :-0.9336124E+03  (-0.8991095E+03)
 number of electron     128.0000000 magnetization 
 augmentation part      128.0000000 magnetization 

 Free energy of the ion-electron system (eV)
  ---------------------------------------------------
  alpha Z        PSCENC =       314.36523906
  Ewald energy   TEWEN  =     -3986.26397262
  -Hartree energ DENC   =      -999.83172161
  -exchange      EXHF   =         0.00000000
  -V(xc)+E(xc)   XCENC  =       444.12141441
  PAW double counting   =      1210.60617908    -1247.42152856
  entropy T*S    EENTRO =         0.00000000
  eigenvalues    EBANDS =      -702.16885363
  atomic energy  EATOM  =      4708.94155045
  ---------------------------------------------------
  free energy    TOTEN  =      -257.65169342 eV

  energy without entropy =     -257.65169342  energy(sigma->0) =     -257.65169342


--------------------------------------------------------------------------------------------------------




----------------------------------------- Iteration    1(   3)  ---------------------------------------


     EDDAV:  cpu time  251.16: real time  502.56
 BZINTS: Fermi energy:  3.890783;128.000000 electrons
         Band energy:-756.232178;  BLOECHL correction: -0.000097
       DOS:  cpu time    0.06: real time    0.13
    --------------------------------------------
      LOOP:  cpu time  251.24: real time  502.72

 eigenvalue-minimisations  : 15504
 total energy-change (2. order) :-0.5406332E+02  (-0.5347433E+02)
 number of electron     128.0000000 magnetization 
 augmentation part      128.0000000 magnetization 

 Free energy of the ion-electron system (eV)
  ---------------------------------------------------
  alpha Z        PSCENC =       314.36523906
  Ewald energy   TEWEN  =     -3986.26397262
  -Hartree energ DENC   =      -999.83172161
  -exchange      EXHF   =         0.00000000
  -V(xc)+E(xc)   XCENC  =       444.12141441
  PAW double counting   =      1210.60617908    -1247.42152856
  entropy T*S    EENTRO =         0.00000000
  eigenvalues    EBANDS =      -756.23217848
  atomic energy  EATOM  =      4708.94155045
  ---------------------------------------------------
  free energy    TOTEN  =      -311.71501827 eV

  energy without entropy =     -311.71501827  energy(sigma->0) =     -311.71501827


--------------------------------------------------------------------------------------------------------




----------------------------------------- Iteration    1(   4)  ---------------------------------------


     EDDAV:  cpu time  322.85: real time  646.06
 BZINTS: Fermi energy:  3.881168;128.000000 electrons
         Band energy:-757.258846;  BLOECHL correction: -0.000000
       DOS:  cpu time    0.05: real time    0.09
    --------------------------------------------
      LOOP:  cpu time  322.91: real time  646.17

 eigenvalue-minimisations  : 15756
 total energy-change (2. order) :-0.1026667E+01  (-0.1024524E+01)
 number of electron     128.0000000 magnetization 
 augmentation part      128.0000000 magnetization 

 Free energy of the ion-electron system (eV)
  ---------------------------------------------------
  alpha Z        PSCENC =       314.36523906
  Ewald energy   TEWEN  =     -3986.26397262
  -Hartree energ DENC   =      -999.83172161
  -exchange      EXHF   =         0.00000000
  -V(xc)+E(xc)   XCENC  =       444.12141441
  PAW double counting   =      1210.60617908    -1247.42152856
  entropy T*S    EENTRO =         0.00000000
  eigenvalues    EBANDS =      -757.25884578
  atomic energy  EATOM  =      4708.94155045
  ---------------------------------------------------
  free energy    TOTEN  =      -312.74168557 eV

  energy without entropy =     -312.74168557  energy(sigma->0) =     -312.74168557


--------------------------------------------------------------------------------------------------------




----------------------------------------- Iteration    1(   5)  ---------------------------------------


     EDDAV:  cpu time  330.16: real time  660.65
 BZINTS: Fermi energy:  3.880828;128.000000 electrons
         Band energy:-757.288614;  BLOECHL correction:  0.000000
       DOS:  cpu time    0.04: real time    0.07
    CHARGE:  cpu time    5.68: real time   11.36
    MIXING:  cpu time    0.02: real time    0.04
    --------------------------------------------
      LOOP:  cpu time  335.90: real time  672.14

 eigenvalue-minimisations  : 16128
 total energy-change (2. order) :-0.2976853E-01  (-0.2975650E-01)
 number of electron     127.9999993 magnetization 
 augmentation part        3.3867535 magnetization 

 Broyden mixing:
  rms(total) = 0.22070E+01    rms(broyden)= 0.22070E+01
  rms(prec ) = 0.26482E+01
  weight for this iteration     100.00

 Free energy of the ion-electron system (eV)
  ---------------------------------------------------
  alpha Z        PSCENC =       314.36523906
  Ewald energy   TEWEN  =     -3986.26397262
  -Hartree energ DENC   =      -999.83172161
  -exchange      EXHF   =         0.00000000
  -V(xc)+E(xc)   XCENC  =       444.12141441
  PAW double counting   =      1210.60617908    -1247.42152856
  entropy T*S    EENTRO =         0.00000000
  eigenvalues    EBANDS =      -757.28861431
  atomic energy  EATOM  =      4708.94155045
  ---------------------------------------------------
  free energy    TOTEN  =      -312.77145410 eV

  energy without entropy =     -312.77145410  energy(sigma->0) =     -312.77145410


--------------------------------------------------------------------------------------------------------




----------------------------------------- Iteration    1(   6)  ---------------------------------------


    POTLOK:  cpu time    0.88: real time    1.76
    SETDIJ:  cpu time    0.06: real time    0.12
     EDDAV:  cpu time  243.73: real time  487.71
 BZINTS: Fermi energy:  4.574949;128.000000 electrons
         Band energy:-625.391409;  BLOECHL correction: -0.000000
       DOS:  cpu time    0.02: real time    0.04
    CHARGE:  cpu time    6.16: real time   12.32
    MIXING:  cpu time    0.03: real time    0.06
    --------------------------------------------
      LOOP:  cpu time  250.89: real time  502.03

 eigenvalue-minimisations  : 14592
 total energy-change (2. order) : 0.1411476E+02  (-0.1454110E+01)
 number of electron     127.9999993 magnetization 
 augmentation part        3.2331624 magnetization 

 Broyden mixing:
  rms(total) = 0.11572E+01    rms(broyden)= 0.11572E+01
  rms(prec ) = 0.13767E+01
  weight for this iteration     100.00

 eigenvalues of (default mixing * dielectric matrix)
  average eigenvalue GAMMA=   2.0361
  2.0361

 Free energy of the ion-electron system (eV)
  ---------------------------------------------------
  alpha Z        PSCENC =       314.36523906
  Ewald energy   TEWEN  =     -3986.26397262
  -Hartree energ DENC   =     -1122.98063831
  -exchange      EXHF   =         0.00000000
  -V(xc)+E(xc)   XCENC  =       452.35767032
  PAW double counting   =      1640.92985370    -1680.61498640
  entropy T*S    EENTRO =         0.00000000
  eigenvalues    EBANDS =      -625.39140924
  atomic energy  EATOM  =      4708.94155045
  ---------------------------------------------------
  free energy    TOTEN  =      -298.65669305 eV

  energy without entropy =     -298.65669305  energy(sigma->0) =     -298.65669305


--------------------------------------------------------------------------------------------------------




----------------------------------------- Iteration    1(   7)  ---------------------------------------


    POTLOK:  cpu time    0.84: real time    1.67
    SETDIJ:  cpu time    0.04: real time    0.09
     EDDAV:  cpu time  241.29: real time  482.82
 BZINTS: Fermi energy:  5.235204;128.000000 electrons
         Band energy:-491.936360;  BLOECHL correction:  0.000000
       DOS:  cpu time    0.04: real time    0.07
    CHARGE:  cpu time    6.08: real time   12.17
    MIXING:  cpu time    0.06: real time    0.11
    --------------------------------------------
      LOOP:  cpu time  248.35: real time  496.94

 eigenvalue-minimisations  : 14568
 total energy-change (2. order) : 0.4417080E+01  (-0.1496829E+01)
 number of electron     127.9999993 magnetization 
 augmentation part        3.0708902 magnetization 

 Broyden mixing:
  rms(total) = 0.18927E+00    rms(broyden)= 0.18926E+00
  rms(prec ) = 0.20480E+00
  weight for this iteration     100.00

 eigenvalues of (default mixing * dielectric matrix)
  average eigenvalue GAMMA=   2.1438
  2.1015  2.1862

 Free energy of the ion-electron system (eV)
  ---------------------------------------------------
  alpha Z        PSCENC =       314.36523906
  Ewald energy   TEWEN  =     -3986.26397262
  -Hartree energ DENC   =     -1259.00959599
  -exchange      EXHF   =         0.00000000
  -V(xc)+E(xc)   XCENC  =       461.68026479
  PAW double counting   =      2178.71197414    -2220.72871330
  entropy T*S    EENTRO =         0.00000000
  eigenvalues    EBANDS =      -491.93636003
  atomic energy  EATOM  =      4708.94155045
  ---------------------------------------------------
  free energy    TOTEN  =      -294.23961350 eV

  energy without entropy =     -294.23961350  energy(sigma->0) =     -294.23961350


--------------------------------------------------------------------------------------------------------




----------------------------------------- Iteration    1(   8)  ---------------------------------------


    POTLOK:  cpu time    0.99: real time    1.97
    SETDIJ:  cpu time    0.03: real time    0.06
     EDDAV:  cpu time  241.39: real time  483.04
 BZINTS: Fermi energy:  5.220480;128.000000 electrons
         Band energy:-495.118896;  BLOECHL correction:  0.000000
       DOS:  cpu time    0.03: real time    0.06
    CHARGE:  cpu time    5.64: real time   11.28
    MIXING:  cpu time    0.04: real time    0.08
    --------------------------------------------
      LOOP:  cpu time  248.11: real time  496.51

 eigenvalue-minimisations  : 14556
 total energy-change (2. order) :-0.5173611E-01  (-0.4079209E-01)
 number of electron     127.9999993 magnetization 
 augmentation part        3.0656726 magnetization 

 Broyden mixing:
  rms(total) = 0.42053E-01    rms(broyden)= 0.42052E-01
  rms(prec ) = 0.64048E-01
  weight for this iteration     100.00

 eigenvalues of (default mixing * dielectric matrix)
  average eigenvalue GAMMA=   1.6879
  2.4036  2.0026  0.6577

 Free energy of the ion-electron system (eV)
  ---------------------------------------------------
  alpha Z        PSCENC =       314.36523906
  Ewald energy   TEWEN  =     -3986.26397262
  -Hartree energ DENC   =     -1256.46453988
  -exchange      EXHF   =         0.00000000
  -V(xc)+E(xc)   XCENC  =       461.54859256
  PAW double counting   =      2212.26328571    -2253.56260909
  entropy T*S    EENTRO =         0.00000000
  eigenvalues    EBANDS =      -495.11889579
  atomic energy  EATOM  =      4708.94155045
  ---------------------------------------------------
  free energy    TOTEN  =      -294.29134961 eV

  energy without entropy =     -294.29134961  energy(sigma->0) =     -294.29134961


--------------------------------------------------------------------------------------------------------




----------------------------------------- Iteration    1(   9)  ---------------------------------------


    POTLOK:  cpu time    0.96: real time    1.91
    SETDIJ:  cpu time    0.04: real time    0.09
     EDDAV:  cpu time  249.97: real time  500.20
 BZINTS: Fermi energy:  5.228276;128.000000 electrons
         Band energy:-494.057912;  BLOECHL correction:  0.000000
       DOS:  cpu time    0.03: real time    0.05
    CHARGE:  cpu time    5.97: real time   11.95
    MIXING:  cpu time    0.11: real time    0.23
    --------------------------------------------
      LOOP:  cpu time  257.10: real time  514.47

 eigenvalue-minimisations  : 15324
 total energy-change (2. order) :-0.6164627E-04  (-0.4126139E-02)
 number of electron     127.9999993 magnetization 
 augmentation part        3.0632127 magnetization 

 Broyden mixing:
  rms(total) = 0.19161E-01    rms(broyden)= 0.19160E-01
  rms(prec ) = 0.29102E-01
  weight for this iteration     100.00

 eigenvalues of (default mixing * dielectric matrix)
  average eigenvalue GAMMA=   1.4291
  2.4430  1.9897  0.6419  0.6419

 Free energy of the ion-electron system (eV)
  ---------------------------------------------------
  alpha Z        PSCENC =       314.36523906
  Ewald energy   TEWEN  =     -3986.26397262
  -Hartree energ DENC   =     -1257.68030775
  -exchange      EXHF   =         0.00000000
  -V(xc)+E(xc)   XCENC  =       461.64360319
  PAW double counting   =      2220.96789715    -2262.20750891
  entropy T*S    EENTRO =         0.00000000
  eigenvalues    EBANDS =      -494.05791182
  atomic energy  EATOM  =      4708.94155045
  ---------------------------------------------------
  free energy    TOTEN  =      -294.29141125 eV

  energy without entropy =     -294.29141125  energy(sigma->0) =     -294.29141125


--------------------------------------------------------------------------------------------------------




----------------------------------------- Iteration    1(  10)  ---------------------------------------


    POTLOK:  cpu time    1.03: real time    2.06
    SETDIJ:  cpu time    0.02: real time    0.04
     EDDAV:  cpu time  247.08: real time  494.39
 BZINTS: Fermi energy:  5.220822;128.000000 electrons
         Band energy:-493.607271;  BLOECHL correction:  0.000000
       DOS:  cpu time    0.04: real time    0.08
    CHARGE:  cpu time    5.97: real time   11.94
    MIXING:  cpu time    0.09: real time    0.19
    --------------------------------------------
      LOOP:  cpu time  254.24: real time  508.73

 eigenvalue-minimisations  : 15288
 total energy-change (2. order) : 0.5156858E-03  (-0.5247485E-03)
 number of electron     127.9999993 magnetization 
 augmentation part        3.0623566 magnetization 

 Broyden mixing:
  rms(total) = 0.12482E-01    rms(broyden)= 0.12482E-01
  rms(prec ) = 0.19034E-01
  weight for this iteration     100.00

 eigenvalues of (default mixing * dielectric matrix)
  average eigenvalue GAMMA=   1.4651
  2.4897  1.9669  1.4381  0.9314  0.4995

 Free energy of the ion-electron system (eV)
  ---------------------------------------------------
  alpha Z        PSCENC =       314.36523906
  Ewald energy   TEWEN  =     -3986.26397262
  -Hartree energ DENC   =     -1258.17327821
  -exchange      EXHF   =         0.00000000
  -V(xc)+E(xc)   XCENC  =       461.68112695
  PAW double counting   =      2222.83572686    -2264.07001703
  entropy T*S    EENTRO =         0.00000000
  eigenvalues    EBANDS =      -493.60727103
  atomic energy  EATOM  =      4708.94155045
  ---------------------------------------------------
  free energy    TOTEN  =      -294.29089557 eV

  energy without entropy =     -294.29089557  energy(sigma->0) =     -294.29089557


--------------------------------------------------------------------------------------------------------




----------------------------------------- Iteration    1(  11)  ---------------------------------------


    POTLOK:  cpu time    0.99: real time    1.97
    SETDIJ:  cpu time    0.03: real time    0.06
     EDDAV:  cpu time  301.46: real time  603.21
 BZINTS: Fermi energy:  5.231106;128.000000 electrons
         Band energy:-492.894426;  BLOECHL correction:  0.000000
       DOS:  cpu time    0.03: real time    0.09
    CHARGE:  cpu time    6.03: real time   12.06
    MIXING:  cpu time    0.05: real time    0.10
    --------------------------------------------
      LOOP:  cpu time  308.60: real time  617.54

 eigenvalue-minimisations  : 19980
 total energy-change (2. order) :-0.1305387E-02  (-0.1911145E-02)
 number of electron     127.9999993 magnetization 
 augmentation part        3.0618428 magnetization 

 Broyden mixing:
  rms(total) = 0.13290E-01    rms(broyden)= 0.13289E-01
  rms(prec ) = 0.22766E-01
  weight for this iteration     100.00

 eigenvalues of (default mixing * dielectric matrix)
  average eigenvalue GAMMA=   1.3657
  2.6170  1.8494  1.8494  0.7174  0.7174  0.4432

 Free energy of the ion-electron system (eV)
  ---------------------------------------------------
  alpha Z        PSCENC =       314.36523906
  Ewald energy   TEWEN  =     -3986.26397262
  -Hartree energ DENC   =     -1258.94717756
  -exchange      EXHF   =         0.00000000
  -V(xc)+E(xc)   XCENC  =       461.74052405
  PAW double counting   =      2224.39155909    -2265.62549775
  entropy T*S    EENTRO =         0.00000000
  eigenvalues    EBANDS =      -492.89442567
  atomic energy  EATOM  =      4708.94155045
  ---------------------------------------------------
  free energy    TOTEN  =      -294.29220096 eV

  energy without entropy =     -294.29220096  energy(sigma->0) =     -294.29220096


--------------------------------------------------------------------------------------------------------




----------------------------------------- Iteration    1(  12)  ---------------------------------------


    POTLOK:  cpu time    1.07: real time    2.14
    SETDIJ:  cpu time    0.02: real time    0.04
     EDDAV:  cpu time  244.34: real time  488.92
 BZINTS: Fermi energy:  5.224889;128.000000 electrons
         Band energy:-492.639518;  BLOECHL correction:  0.000000
       DOS:  cpu time    0.04: real time    0.07
    CHARGE:  cpu time    5.77: real time   11.54
    MIXING:  cpu time    0.07: real time    0.16
    --------------------------------------------
      LOOP:  cpu time  251.31: real time  502.88

 eigenvalue-minimisations  : 15096
 total energy-change (2. order) : 0.5944886E-03  (-0.1617838E-03)
 number of electron     127.9999993 magnetization 
 augmentation part        3.0615130 magnetization 

 Broyden mixing:
  rms(total) = 0.94847E-02    rms(broyden)= 0.94847E-02
  rms(prec ) = 0.15786E-01
  weight for this iteration     100.00

 eigenvalues of (default mixing * dielectric matrix)
  average eigenvalue GAMMA=   1.3189
  2.6719  1.9581  1.9581  0.7746  0.7746  0.6397  0.4555

 Free energy of the ion-electron system (eV)
  ---------------------------------------------------
  alpha Z        PSCENC =       314.36523906
  Ewald energy   TEWEN  =     -3986.26397262
  -Hartree energ DENC   =     -1259.22323375
  -exchange      EXHF   =         0.00000000
  -V(xc)+E(xc)   XCENC  =       461.76133565
  PAW double counting   =      2225.27252394    -2266.50553112
  entropy T*S    EENTRO =         0.00000000
  eigenvalues    EBANDS =      -492.63951808
  atomic energy  EATOM  =      4708.94155045
  ---------------------------------------------------
  free energy    TOTEN  =      -294.29160647 eV

  energy without entropy =     -294.29160647  energy(sigma->0) =     -294.29160647


--------------------------------------------------------------------------------------------------------




----------------------------------------- Iteration    1(  13)  ---------------------------------------


    POTLOK:  cpu time    0.92: real time    1.83
    SETDIJ:  cpu time    0.02: real time    0.04
     EDDAV:  cpu time  312.98: real time  626.28
 BZINTS: Fermi energy:  5.230147;128.000000 electrons
         Band energy:-492.594838;  BLOECHL correction:  0.000000
       DOS:  cpu time    0.02: real time    0.05
    CHARGE:  cpu time    5.64: real time   11.30
    MIXING:  cpu time    0.04: real time    0.08
    --------------------------------------------
      LOOP:  cpu time  319.63: real time  639.57

 eigenvalue-minimisations  : 20832
 total energy-change (2. order) : 0.7740090E-04  (-0.4662464E-03)
 number of electron     127.9999993 magnetization 
 augmentation part        3.0615088 magnetization 

 Broyden mixing:
  rms(total) = 0.70103E-02    rms(broyden)= 0.70096E-02
  rms(prec ) = 0.11901E-01
  weight for this iteration     100.00

 eigenvalues of (default mixing * dielectric matrix)
  average eigenvalue GAMMA=   1.3029
  2.7758  2.4728  1.9300  0.9691  0.7005  0.7005  0.4835  0.3908

 Free energy of the ion-electron system (eV)
  ---------------------------------------------------
  alpha Z        PSCENC =       314.36523906
  Ewald energy   TEWEN  =     -3986.26397262
  -Hartree energ DENC   =     -1259.27449963
  -exchange      EXHF   =         0.00000000
  -V(xc)+E(xc)   XCENC  =       461.76569409
  PAW double counting   =      2225.20660104    -2266.43730338
  entropy T*S    EENTRO =         0.00000000
  eigenvalues    EBANDS =      -492.59483808
  atomic energy  EATOM  =      4708.94155045
  ---------------------------------------------------
  free energy    TOTEN  =      -294.29152907 eV

  energy without entropy =     -294.29152907  energy(sigma->0) =     -294.29152907


--------------------------------------------------------------------------------------------------------




----------------------------------------- Iteration    1(  14)  ---------------------------------------


    POTLOK:  cpu time    0.99: real time    1.98
    SETDIJ:  cpu time    0.05: real time    0.10
     EDDAV:  cpu time  262.60: real time  525.47
 BZINTS: Fermi energy:  5.227388;128.000000 electrons
         Band energy:-492.546061;  BLOECHL correction:  0.000000
       DOS:  cpu time    0.03: real time    0.06
    CHARGE:  cpu time    5.96: real time   11.92
    MIXING:  cpu time    0.04: real time    0.07
    --------------------------------------------
      LOOP:  cpu time  269.67: real time  539.61

 eigenvalue-minimisations  : 16452
 total energy-change (2. order) :-0.6255653E-04  (-0.3438173E-03)
 number of electron     127.9999993 magnetization 
 augmentation part        3.0614629 magnetization 

 Broyden mixing:
  rms(total) = 0.58774E-02    rms(broyden)= 0.58771E-02
  rms(prec ) = 0.10468E-01
  weight for this iteration     100.00

 eigenvalues of (default mixing * dielectric matrix)
  average eigenvalue GAMMA=   1.2482
  2.8582  2.5005  1.9139  1.0055  0.7572  0.7572  0.6224  0.4764  0.3427

 Free energy of the ion-electron system (eV)
  ---------------------------------------------------
  alpha Z        PSCENC =       314.36523906
  Ewald energy   TEWEN  =     -3986.26397262
  -Hartree energ DENC   =     -1259.33117353
  -exchange      EXHF   =         0.00000000
  -V(xc)+E(xc)   XCENC  =       461.77144928
  PAW double counting   =      2224.39397218    -2265.62259498
  entropy T*S    EENTRO =         0.00000000
  eigenvalues    EBANDS =      -492.54606146
  atomic energy  EATOM  =      4708.94155045
  ---------------------------------------------------
  free energy    TOTEN  =      -294.29159162 eV

  energy without entropy =     -294.29159162  energy(sigma->0) =     -294.29159162


--------------------------------------------------------------------------------------------------------




----------------------------------------- Iteration    1(  15)  ---------------------------------------


    POTLOK:  cpu time    0.87: real time    1.73
    SETDIJ:  cpu time    0.04: real time    0.09
     EDDAV:  cpu time  256.88: real time  514.03
 BZINTS: Fermi energy:  5.230355;128.000000 electrons
         Band energy:-492.551018;  BLOECHL correction:  0.000000
       DOS:  cpu time    0.03: real time    0.07
    CHARGE:  cpu time    5.66: real time   11.33
    MIXING:  cpu time    0.03: real time    0.07
    --------------------------------------------
      LOOP:  cpu time  263.53: real time  527.36

 eigenvalue-minimisations  : 15648
 total energy-change (2. order) : 0.8646767E-04  (-0.6357030E-04)
 number of electron     127.9999993 magnetization 
 augmentation part        3.0614770 magnetization 

 Broyden mixing:
  rms(total) = 0.74930E-03    rms(broyden)= 0.74886E-03
  rms(prec ) = 0.14565E-02
  weight for this iteration     100.00

 eigenvalues of (default mixing * dielectric matrix)
  average eigenvalue GAMMA=   1.2067
  2.8492  2.4998  1.9016  1.1337  0.7662  0.7662  0.8521  0.4668  0.4668  0.3645

 Free energy of the ion-electron system (eV)
  ---------------------------------------------------
  alpha Z        PSCENC =       314.36523906
  Ewald energy   TEWEN  =     -3986.26397262
  -Hartree energ DENC   =     -1259.32697358
  -exchange      EXHF   =         0.00000000
  -V(xc)+E(xc)   XCENC  =       461.77119491
  PAW double counting   =      2224.29799075    -2265.52551631
  entropy T*S    EENTRO =         0.00000000
  eigenvalues    EBANDS =      -492.55101781
  atomic energy  EATOM  =      4708.94155045
  ---------------------------------------------------
  free energy    TOTEN  =      -294.29150515 eV

  energy without entropy =     -294.29150515  energy(sigma->0) =     -294.29150515


--------------------------------------------------------------------------------------------------------




----------------------------------------- Iteration    1(  16)  ---------------------------------------


    POTLOK:  cpu time    0.96: real time    1.92
    SETDIJ:  cpu time    0.05: real time    0.09
     EDDAV:  cpu time  235.57: real time  471.38
 BZINTS: Fermi energy:  5.229116;128.000000 electrons
         Band energy:-492.549957;  BLOECHL correction:  0.000000
       DOS:  cpu time    0.03: real time    0.06
    CHARGE:  cpu time    5.58: real time   11.17
    MIXING:  cpu time    0.04: real time    0.08
    --------------------------------------------
      LOOP:  cpu time  242.25: real time  484.75

 eigenvalue-minimisations  : 14544
 total energy-change (2. order) :-0.2064859E-05  (-0.3592502E-05)
 number of electron     127.9999993 magnetization 
 augmentation part        3.0614889 magnetization 

 Broyden mixing:
  rms(total) = 0.71340E-03    rms(broyden)= 0.71339E-03
  rms(prec ) = 0.12138E-02
  weight for this iteration     100.00

 eigenvalues of (default mixing * dielectric matrix)
  average eigenvalue GAMMA=   1.1956
  2.8820  2.4965  1.8857  1.3279  0.9409  0.9409  0.7462  0.7462  0.4395  0.3728
  0.3728

 Free energy of the ion-electron system (eV)
  ---------------------------------------------------
  alpha Z        PSCENC =       314.36523906
  Ewald energy   TEWEN  =     -3986.26397262
  -Hartree energ DENC   =     -1259.32817805
  -exchange      EXHF   =         0.00000000
  -V(xc)+E(xc)   XCENC  =       461.77116270
  PAW double counting   =      2224.28646022    -2265.51381224
  entropy T*S    EENTRO =         0.00000000
  eigenvalues    EBANDS =      -492.54995673
  atomic energy  EATOM  =      4708.94155045
  ---------------------------------------------------
  free energy    TOTEN  =      -294.29150722 eV

  energy without entropy =     -294.29150722  energy(sigma->0) =     -294.29150722


--------------------------------------------------------------------------------------------------------




----------------------------------------- Iteration    1(  17)  ---------------------------------------


    POTLOK:  cpu time    1.08: real time    2.16
    SETDIJ:  cpu time    0.02: real time    0.05
     EDDAV:  cpu time  252.13: real time  504.51
 BZINTS: Fermi energy:  5.228266;128.000000 electrons
         Band energy:-492.543651;  BLOECHL correction:  0.000000
       DOS:  cpu time    0.03: real time    0.06
    CHARGE:  cpu time    6.23: real time   12.46
    MIXING:  cpu time    0.03: real time    0.06
    --------------------------------------------
      LOOP:  cpu time  259.53: real time  519.31

 eigenvalue-minimisations  : 15240
 total energy-change (2. order) : 0.6871569E-06  (-0.9834678E-06)
 number of electron     127.9999993 magnetization 
 augmentation part        3.0614942 magnetization 

 Broyden mixing:
  rms(total) = 0.24989E-03    rms(broyden)= 0.24983E-03
  rms(prec ) = 0.34119E-03
  weight for this iteration     100.00

 eigenvalues of (default mixing * dielectric matrix)
  average eigenvalue GAMMA=   1.2784
  2.9867  2.5713  2.4566  1.9365  0.7602  0.7602  0.9502  0.9502  0.7931  0.4539
  0.3606  0.3606

 Free energy of the ion-electron system (eV)
  ---------------------------------------------------
  alpha Z        PSCENC =       314.36523906
  Ewald energy   TEWEN  =     -3986.26397262
  -Hartree energ DENC   =     -1259.33498630
  -exchange      EXHF   =         0.00000000
  -V(xc)+E(xc)   XCENC  =       461.77149109
  PAW double counting   =      2224.27180524    -2265.49898259
  entropy T*S    EENTRO =         0.00000000
  eigenvalues    EBANDS =      -492.54365086
  atomic energy  EATOM  =      4708.94155045
  ---------------------------------------------------
  free energy    TOTEN  =      -294.29150653 eV

  energy without entropy =     -294.29150653  energy(sigma->0) =     -294.29150653


--------------------------------------------------------------------------------------------------------




----------------------------------------- Iteration    1(  18)  ---------------------------------------


    POTLOK:  cpu time    0.89: real time    1.77
    SETDIJ:  cpu time    0.03: real time    0.07
     EDDAV:  cpu time  299.75: real time  599.80
 BZINTS: Fermi energy:  5.230503;128.000000 electrons
         Band energy:-492.531872;  BLOECHL correction:  0.000000
       DOS:  cpu time    0.04: real time    0.07
    CHARGE:  cpu time    5.81: real time   11.62
    MIXING:  cpu time    0.03: real time    0.06
    --------------------------------------------
      LOOP:  cpu time  306.55: real time  613.41

 eigenvalue-minimisations  : 19812
 total energy-change (2. order) :-0.2728451E-05  (-0.3047000E-05)
 number of electron     127.9999993 magnetization 
 augmentation part        3.0614893 magnetization 

 Broyden mixing:
  rms(total) = 0.13802E-02    rms(broyden)= 0.13802E-02
  rms(prec ) = 0.24353E-02
  weight for this iteration     100.00

 eigenvalues of (default mixing * dielectric matrix)
  average eigenvalue GAMMA=   1.2420
  2.9495  2.4191  2.4191  1.9044  1.0837  1.0837  0.7347  0.7347  0.8645  0.7761
  0.4437  0.3668  0.3668

 Free energy of the ion-electron system (eV)
  ---------------------------------------------------
  alpha Z        PSCENC =       314.36523906
  Ewald energy   TEWEN  =     -3986.26397262
  -Hartree energ DENC   =     -1259.34737661
  -exchange      EXHF   =         0.00000000
  -V(xc)+E(xc)   XCENC  =       461.77214274
  PAW double counting   =      2224.26270033    -2265.48992040
  entropy T*S    EENTRO =         0.00000000
  eigenvalues    EBANDS =      -492.53187220
  atomic energy  EATOM  =      4708.94155045
  ---------------------------------------------------
  free energy    TOTEN  =      -294.29150926 eV

  energy without entropy =     -294.29150926  energy(sigma->0) =     -294.29150926


--------------------------------------------------------------------------------------------------------




----------------------------------------- Iteration    1(  19)  ---------------------------------------


    POTLOK:  cpu time    0.95: real time    1.90
    SETDIJ:  cpu time    0.04: real time    0.07
     EDDAV:  cpu time  333.56: real time  667.49
 BZINTS: Fermi energy:  5.230064;128.000000 electrons
         Band energy:-492.528252;  BLOECHL correction:  0.000000
       DOS:  cpu time    0.04: real time    0.07
    CHARGE:  cpu time    5.75: real time   11.51
    MIXING:  cpu time    0.03: real time    0.06
    --------------------------------------------
      LOOP:  cpu time  340.37: real time  681.12

 eigenvalue-minimisations  : 22344
 total energy-change (2. order) : 0.8777160E-06  (-0.1048069E-04)
 number of electron     127.9999993 magnetization 
 augmentation part        3.0614872 magnetization 

 Broyden mixing:
  rms(total) = 0.11452E-02    rms(broyden)= 0.11451E-02
  rms(prec ) = 0.20294E-02
  weight for this iteration     100.00

 eigenvalues of (default mixing * dielectric matrix)
  average eigenvalue GAMMA=   1.1687
  2.9494  2.5051  2.3575  1.9010  1.0826  1.0826  0.9167  0.7440  0.7440  0.5233
  0.5123  0.3595  0.3419  0.3419

 Free energy of the ion-electron system (eV)
  ---------------------------------------------------
  alpha Z        PSCENC =       314.36523906
  Ewald energy   TEWEN  =     -3986.26397262
  -Hartree energ DENC   =     -1259.35112305
  -exchange      EXHF   =         0.00000000
  -V(xc)+E(xc)   XCENC  =       461.77241231
  PAW double counting   =      2224.27078581    -2265.49814802
  entropy T*S    EENTRO =         0.00000000
  eigenvalues    EBANDS =      -492.52825233
  atomic energy  EATOM  =      4708.94155045
  ---------------------------------------------------
  free energy    TOTEN  =      -294.29150838 eV

  energy without entropy =     -294.29150838  energy(sigma->0) =     -294.29150838


--------------------------------------------------------------------------------------------------------




----------------------------------------- Iteration    1(  20)  ---------------------------------------


    POTLOK:  cpu time    0.98: real time    1.95
    SETDIJ:  cpu time    0.02: real time    0.05
     EDDAV:  cpu time  245.30: real time  490.86
 BZINTS: Fermi energy:  5.229655;128.000000 electrons
         Band energy:-492.527780;  BLOECHL correction:  0.000000
       DOS:  cpu time    0.04: real time    0.07
    CHARGE:  cpu time    5.80: real time   11.62
    MIXING:  cpu time    0.02: real time    0.04
    --------------------------------------------
      LOOP:  cpu time  252.18: real time  504.60

 eigenvalue-minimisations  : 14604
 total energy-change (2. order) : 0.9362202E-06  (-0.2269995E-06)
 number of electron     127.9999993 magnetization 
 augmentation part        3.0614813 magnetization 

 Broyden mixing:
  rms(total) = 0.89515E-03    rms(broyden)= 0.89515E-03
  rms(prec ) = 0.15861E-02
  weight for this iteration     100.00

 eigenvalues of (default mixing * dielectric matrix)
  average eigenvalue GAMMA=   1.1649
  3.0510  2.5669  2.4323  1.9209  0.9985  0.9985  0.9783  0.7651  0.7651  0.7343
  0.5421  0.5421  0.4410  0.3690  0.3690

 Free energy of the ion-electron system (eV)
  ---------------------------------------------------
  alpha Z        PSCENC =       314.36523906
  Ewald energy   TEWEN  =     -3986.26397262
  -Hartree energ DENC   =     -1259.35160102
  -exchange      EXHF   =         0.00000000
  -V(xc)+E(xc)   XCENC  =       461.77243989
  PAW double counting   =      2224.26927211    -2265.49665535
  entropy T*S    EENTRO =         0.00000000
  eigenvalues    EBANDS =      -492.52777996
  atomic energy  EATOM  =      4708.94155045
  ---------------------------------------------------
  free energy    TOTEN  =      -294.29150745 eV

  energy without entropy =     -294.29150745  energy(sigma->0) =     -294.29150745


--------------------------------------------------------------------------------------------------------




----------------------------------------- Iteration    1(  21)  ---------------------------------------


    POTLOK:  cpu time    0.89: real time    1.77
    SETDIJ:  cpu time    0.03: real time    0.06
     EDDAV:  cpu time  299.70: real time  598.77
 BZINTS: Fermi energy:  5.232408;128.000000 electrons
         Band energy:-492.529134;  BLOECHL correction: -0.000000
       DOS:  cpu time    0.04: real time    0.07
    CHARGE:  cpu time    5.71: real time   11.44
    MIXING:  cpu time    0.04: real time    0.08
    --------------------------------------------
      LOOP:  cpu time  306.41: real time  612.21

 eigenvalue-minimisations  : 19788
 total energy-change (2. order) : 0.1262862E-05  (-0.6577062E-06)
 number of electron     127.9999993 magnetization 
 augmentation part        3.0614831 magnetization 

 Broyden mixing:
  rms(total) = 0.27846E-03    rms(broyden)= 0.27842E-03
  rms(prec ) = 0.50039E-03
  weight for this iteration     100.00

 eigenvalues of (default mixing * dielectric matrix)
  average eigenvalue GAMMA=   1.1585
  3.0829  2.5720  2.4254  1.9338  1.0976  1.0976  1.0143  0.8480  0.7518  0.7518
  0.6057  0.6057  0.5728  0.4361  0.3702  0.3702

 Free energy of the ion-electron system (eV)
  ---------------------------------------------------
  alpha Z        PSCENC =       314.36523906
  Ewald energy   TEWEN  =     -3986.26397262
  -Hartree energ DENC   =     -1259.35021390
  -exchange      EXHF   =         0.00000000
  -V(xc)+E(xc)   XCENC  =       461.77233367
[...]
     79      13.0862      0.00000
     80      13.0902      0.00000
     81      13.3923      0.00000
     82      13.3967      0.00000
     83      13.5344      0.00000
     84      13.5360      0.00000

 k-point    75 :       0.3333    0.5000    0.5000
  band No.  band energies     occupation 
      1     -13.2471      2.00000
      2     -13.2467      2.00000
      3     -12.9299      2.00000
      4     -12.9295      2.00000
      5     -12.2726      2.00000
      6     -12.2722      2.00000
      7     -11.9738      2.00000
      8     -11.9734      2.00000
      9     -11.3096      2.00000
     10     -11.3092      2.00000
     11     -11.0292      2.00000
     12     -11.0288      2.00000
     13      -8.6192      2.00000
     14      -8.6186      2.00000
     15      -8.4088      2.00000
     16      -8.4080      2.00000
     17      -6.7320      2.00000
     18      -6.7292      2.00000
     19      -6.5892      2.00000
     20      -6.5865      2.00000
     21      -4.4191      2.00000
     22      -4.4167      2.00000
     23      -4.3057      2.00000
     24      -4.3032      2.00000
     25      -4.2588      2.00000
     26      -4.2574      2.00000
     27      -4.1347      2.00000
     28      -4.1330      2.00000
     29      -3.2817      2.00000
     30      -3.2795      2.00000
     31      -3.1486      2.00000
     32      -3.1463      2.00000
     33      -2.2126      2.00000
     34      -2.2107      2.00000
     35      -2.1250      2.00000
     36      -2.1231      2.00000
     37      -1.8355      2.00000
     38      -1.8341      2.00000
     39      -1.1811      2.00000
     40      -1.1772      2.00000
     41      -1.0958      2.00000
     42      -1.0913      2.00000
     43      -0.6855      2.00000
     44      -0.6841      2.00000
     45      -0.6615      2.00000
     46      -0.6588      2.00000
     47      -0.5878      2.00000
     48      -0.5851      2.00000
     49      -0.0605      2.00000
     50      -0.0587      2.00000
     51       0.2288      2.00000
     52       0.2340      2.00000
     53       0.2859      2.00000
     54       0.2903      2.00000
     55       0.4365      2.00000
     56       0.4382      2.00000
     57       0.9954      2.00000
     58       0.9971      2.00000
     59       2.0081      2.00000
     60       2.0099      2.00000
     61       3.3774      2.00000
     62       3.3800      2.00000
     63       4.3705      2.00000
     64       4.3737      2.00000
     65       6.3113      0.00000
     66       6.3150      0.00000
     67       6.8462      0.00000
     68       6.8503      0.00000
     69       9.3529      0.00000
     70       9.3551      0.00000
     71       9.9786      0.00000
     72       9.9814      0.00000
     73      10.8168      0.00000
     74      10.8196      0.00000
     75      11.5264      0.00000
     76      11.5284      0.00000
     77      12.3510      0.00000
     78      12.3540      0.00000
     79      13.0838      0.00000
     80      13.0880      0.00000
     81      13.3942      0.00000
     82      13.3987      0.00000
     83      13.5342      0.00000
     84      13.5366      0.00000

 k-point    76 :       0.5000    0.5000    0.5000
  band No.  band energies     occupation 
      1     -12.9235      2.00000
      2     -12.9206      2.00000
      3     -12.9206      2.00000
      4     -12.9176      2.00000
      5     -12.6125      2.00000
      6     -12.6096      2.00000
      7     -12.6096      2.00000
      8     -12.6064      2.00000
      9     -10.0673      2.00000
     10     -10.0655      2.00000
     11     -10.0655      2.00000
     12     -10.0637      2.00000
     13      -9.8124      2.00000
     14      -9.8106      2.00000
     15      -9.8105      2.00000
     16      -9.8086      2.00000
     17      -5.2872      2.00000
     18      -5.2827      2.00000
     19      -5.2822      2.00000
     20      -5.2822      2.00000
     21      -5.1967      2.00000
     22      -5.1925      2.00000
     23      -5.1920      2.00000
     24      -5.1920      2.00000
     25      -3.6842      2.00000
     26      -3.6842      2.00000
     27      -3.6828      2.00000
     28      -3.6801      2.00000
     29      -3.6178      2.00000
     30      -3.6178      2.00000
     31      -3.6163      2.00000
     32      -3.6131      2.00000
     33      -2.1952      2.00000
     34      -2.1948      2.00000
     35      -2.1948      2.00000
     36      -2.1890      2.00000
     37      -2.0746      2.00000
     38      -2.0741      2.00000
     39      -2.0741      2.00000
     40      -2.0676      2.00000
     41      -1.4501      2.00000
     42      -1.4471      2.00000
     43      -1.4469      2.00000
     44      -1.4446      2.00000
     45       0.2288      2.00000
     46       0.2386      2.00000
     47       0.2386      2.00000
     48       0.2401      2.00000
     49       0.2927      2.00000
     50       0.2933      2.00000
     51       0.2969      2.00000
     52       0.2971      2.00000
     53       0.2997      2.00000
     54       0.3002      2.00000
     55       0.3002      2.00000
     56       0.3019      2.00000
     57       1.8491      2.00000
     58       1.8505      2.00000
     59       1.8506      2.00000
     60       1.8541      2.00000
     61       3.2425      2.00000
     62       3.2438      2.00000
     63       3.2441      2.00000
     64       3.2486      2.00000
     65       7.7474      0.00000
     66       7.7522      0.00000
     67       7.7525      0.00000
     68       7.7537      0.00000
     69       8.3469      0.00000
     70       8.3528      0.00000
     71       8.3533      0.00000
     72       8.3543      0.00000
     73      12.0807      0.00000
     74      12.0873      0.00000
     75      12.0891      0.00000
     76      12.0963      0.00000
     77      12.7084      0.00000
     78      12.7182      0.00000
     79      12.7214      0.00000
     80      12.7291      0.00000
     81      12.7985      0.00000
     82      12.8069      0.00000
     83      12.8081      0.00000
     84      12.8215      0.00000


--------------------------------------------------------------------------------------------------------


 soft charge-density along one line, spin component           1
         0         1         2         3         4         5         6         7         8         9
 total charge-density along one line
 
 pseudopotential strength for first ion, spin component:           1
  9.737   0.004  -0.000   0.000  -0.000   0.000  -0.000   0.000
  0.004  -0.002   0.000  -0.000  -0.000   0.000  -0.000   0.000
 -0.000   0.000  -3.914  -0.000  -0.000  -0.015  -0.000  -0.000
  0.000  -0.000  -0.000  -3.908   0.000  -0.000  -0.011   0.000
 -0.000  -0.000  -0.000   0.000  -3.914  -0.000   0.000  -0.015
  0.000   0.000  -0.015  -0.000  -0.000  -0.763  -0.000  -0.000
 -0.000  -0.000  -0.000  -0.011   0.000  -0.000  -0.763   0.000
  0.000   0.000  -0.000   0.000  -0.015  -0.000   0.000  -0.763
 total augmentation occupancy for first ion, spin component:           1
  1.470  -1.120   0.000  -0.000  -0.003   0.000   0.001  -0.001
 -1.120   1.058  -0.000  -0.006   0.003  -0.000  -0.002   0.001
  0.000  -0.000   1.222  -0.000   0.003   0.228   0.000   0.001
 -0.000  -0.006  -0.000   0.924  -0.000   0.000   0.104  -0.000
 -0.003   0.003   0.003  -0.000   1.222   0.001  -0.000   0.228
  0.000  -0.000   0.228   0.000   0.001   0.048   0.000   0.000
  0.001  -0.002   0.000   0.104  -0.000   0.000   0.013  -0.000
 -0.001   0.001   0.001  -0.000   0.228   0.000  -0.000   0.048


------------------------ aborting loop because EDIFF is reached ----------------------------------------


    CHARGE:  cpu time    5.74: real time   11.48
    FORLOC:  cpu time    0.09: real time    0.17
    FORNL :  cpu time   33.07: real time   66.19
    STRESS:  cpu time   59.96: real time  119.99
    FORHAR:  cpu time    0.28: real time    0.56
    MIXING:  cpu time    0.04: real time    0.07
    OFIELD:  cpu time    0.00: real time    0.00

 ---------------------------------------------------------------------------------------------

         DFTD3 V3.0 Rev 1        
 IVDW         = 12
 DF pbe       
 parameters
 VDW_S6       =    1.0000
 VDW_S8       =    0.7875
 VDW_A1       =    0.4289
 VDW_A2       =    4.4407
 k1-k3        =   16.0000    1.3333   -4.0000
 VDW_RADIUS   =   50.2022 A
 VDW_CNRADIUS =   21.1671 A
 Edisp (eV)   -5.38541

 E6    (eV) :    -3.8467
 E8    (eV) :    -1.5387
 % E8        : 28.57
    FORVDW:  cpu time    0.27: real time    0.54

  FORCE on cell =-STRESS in cart. coord.  units (eV):
  Direction    XX          YY          ZZ          XY          YZ          ZX
  --------------------------------------------------------------------------------------
  Alpha Z   314.36524   314.36524   314.36524
  Ewald     318.28634   317.79467 -4622.36233     0.37003     0.00062    -0.00975
  Hartree  1079.36624  1079.35998  -899.37585     0.10344     0.00025    -0.00234
  E(xc)    -468.24535  -468.25237  -484.45529    -0.00304     0.00004    -0.00011
  Local   -3043.12633 -3042.72122  3609.03460    -0.40154    -0.00016     0.00851
  n-local  -111.56835  -111.68033  -102.88027    -0.09118     0.00063    -0.00145
  augment   -12.37276   -12.37187   -11.33949    -0.00051    -0.00001     0.00005
  Kinetic  1922.97885  1923.74536  2208.32284     0.53362    -0.00817     0.01985
  Fock        0.00000     0.00000     0.00000     0.00000     0.00000     0.00000
  vdW        -0.63480    -0.62383    -6.14195     0.00909    -0.00000    -0.00002
  -------------------------------------------------------------------------------------
  Total      -0.95093    -0.38436     5.16749     0.51991    -0.00680     0.01473
  in kB      -5.74040    -2.32022    31.19414     3.13849    -0.04103     0.08894
  external pressure =        7.71 kB  Pullay stress =        0.00 kB


 VOLUME and BASIS-vectors are now :
 -----------------------------------------------------------------------------
  energy-cutoff  :      800.00
  volume of cell :      265.41
      direct lattice vectors                 reciprocal lattice vectors
     4.932874498 -0.001919286  0.000000000     0.202767147  0.117172881  0.000000000
    -2.468099399  4.271034986  0.000000000     0.000091118  0.234187941  0.000000000
     0.000000000  0.000000000 12.600326384     0.000000000  0.000000000  0.079363024

  length of vectors
     4.932874871  4.932874871 12.600326384     0.234187958  0.234187958  0.079363024


 FORCES acting on ions
    electron-ion (+dipol)            ewald-force                    non-local-force                 convergence-correction
 -----------------------------------------------------------------------------------------------
   -.908E+00 0.629E-01 0.151E+01   0.102E+01 -.582E-01 -.154E+01   0.954E-01 0.296E-02 0.165E+00   -.561E-05 0.245E-05 0.471E-04
   0.970E-01 0.652E-01 -.377E+00   -.124E+00 -.615E-01 0.359E+00   -.240E-01 0.283E-02 0.174E-01   0.224E-05 0.194E-05 0.463E-04
   -.866E-01 -.408E-01 -.376E+00   0.865E-01 0.600E-01 0.359E+00   -.127E-01 0.929E-02 0.174E-01   -.173E-05 -.135E-05 0.469E-04
   -.871E-01 0.172E+00 -.377E+00   0.869E-01 -.183E+00 0.359E+00   -.126E-01 -.384E-02 0.174E-01   -.417E-05 0.433E-05 0.470E-04
   -.114E+00 0.655E-01 0.102E+00   0.107E+00 -.616E-01 -.103E+00   -.483E-02 0.280E-02 -.591E-02   -.107E-04 0.158E-05 -.104E-03
   -.113E+00 0.655E-01 0.101E+00   0.106E+00 -.616E-01 -.101E+00   -.480E-02 0.280E-02 -.602E-02   -.707E-05 0.551E-06 -.103E-03
   -.113E+00 0.654E-01 0.101E+00   0.107E+00 -.615E-01 -.101E+00   -.482E-02 0.279E-02 -.602E-02   -.816E-05 0.126E-05 -.103E-03
   -.113E+00 0.656E-01 0.101E+00   0.107E+00 -.617E-01 -.101E+00   -.482E-02 0.281E-02 -.602E-02   -.100E-04 0.304E-05 -.103E-03
   0.113E+00 -.602E-01 0.838E-01   -.107E+00 0.558E-01 -.834E-01   0.471E-02 -.273E-02 0.613E-02   -.385E-05 -.218E-05 0.207E-03
   0.113E+00 -.712E-01 0.834E-01   -.107E+00 0.672E-01 -.833E-01   0.485E-02 -.296E-02 0.656E-02   -.235E-05 0.756E-07 0.208E-03
   0.123E+00 -.660E-01 0.835E-01   -.117E+00 0.616E-01 -.832E-01   0.498E-02 -.298E-02 0.634E-02   -.549E-05 0.128E-05 0.207E-03
   0.102E+00 -.659E-01 0.160E+00   -.954E-01 0.617E-01 -.161E+00   0.468E-02 -.289E-02 0.586E-02   -.162E-05 0.362E-05 0.208E-03
   0.114E+00 -.596E-01 0.836E-01   -.107E+00 0.556E-01 -.831E-01   0.503E-02 -.268E-02 0.649E-02   -.302E-05 0.359E-05 -.149E-03
   0.114E+00 -.713E-01 0.839E-01   -.107E+00 0.677E-01 -.831E-01   0.486E-02 -.290E-02 0.605E-02   -.329E-05 0.266E-05 -.149E-03
   0.124E+00 -.652E-01 0.838E-01   -.117E+00 0.615E-01 -.832E-01   0.515E-02 -.265E-02 0.627E-02   -.273E-05 0.257E-05 -.149E-03
   0.102E+00 -.652E-01 0.161E+00   -.947E-01 0.614E-01 -.161E+00   0.485E-02 -.275E-02 0.606E-02   -.383E-05 0.264E-05 -.148E-03
   0.193E+00 -.640E-01 -.314E+00   -.187E+00 0.613E-01 0.312E+00   0.310E-02 -.227E-02 -.101E-01   0.226E-05 -.162E-05 0.477E-04
   -.137E+00 -.571E-01 -.832E+00   0.140E+00 0.536E-01 0.865E+00   -.228E-01 -.194E-02 -.779E-01   -.217E-05 0.117E-06 0.458E-04
   0.455E+00 0.279E+00 -.836E+00   -.507E+00 -.314E+00 0.870E+00   -.156E-01 0.188E-02 -.781E-01   -.153E-05 0.105E-05 0.457E-04
   0.465E+00 -.410E+00 -.827E+00   -.518E+00 0.440E+00 0.859E+00   -.145E-01 -.696E-02 -.777E-01   -.122E-06 -.649E-06 0.460E-04
   0.111E+00 -.639E-01 0.101E+00   -.106E+00 0.611E-01 -.101E+00   0.395E-02 -.230E-02 0.137E-02   0.789E-05 0.174E-06 -.103E-03
   0.111E+00 -.639E-01 0.101E+00   -.106E+00 0.611E-01 -.102E+00   0.396E-02 -.230E-02 0.135E-02   0.600E-05 0.162E-05 -.103E-03
   0.111E+00 -.639E-01 0.101E+00   -.106E+00 0.610E-01 -.102E+00   0.396E-02 -.230E-02 0.135E-02   0.565E-05 -.302E-06 -.103E-03
   0.111E+00 -.640E-01 0.101E+00   -.106E+00 0.611E-01 -.102E+00   0.396E-02 -.229E-02 0.135E-02   0.804E-05 -.170E-05 -.103E-03
   -.137E+00 0.764E-01 0.988E-01   0.133E+00 -.734E-01 -.987E-01   -.405E-02 0.234E-02 -.216E-02   0.731E-05 0.230E-06 0.207E-03
   -.834E-01 0.827E-01 0.119E+00   0.780E-01 -.800E-01 -.120E+00   -.400E-02 0.248E-02 -.170E-02   0.562E-05 -.178E-05 0.207E-03
   -.116E+00 0.334E-01 0.109E+00   0.111E+00 -.296E-01 -.109E+00   -.415E-02 0.236E-02 -.195E-02   0.773E-05 -.476E-05 0.208E-03
   -.106E+00 0.643E-01 0.769E-01   0.101E+00 -.612E-01 -.768E-01   -.380E-02 0.240E-02 -.954E-03   0.421E-05 -.424E-05 0.207E-03
   -.833E-01 0.448E-01 0.120E+00   0.777E-01 -.416E-01 -.120E+00   -.399E-02 0.214E-02 -.177E-02   0.453E-05 -.394E-05 -.149E-03
   -.137E+00 0.517E-01 0.986E-01   0.133E+00 -.488E-01 -.982E-01   -.409E-02 0.229E-02 -.218E-02   0.485E-05 -.355E-05 -.149E-03
   -.116E+00 0.947E-01 0.109E+00   0.111E+00 -.928E-01 -.109E+00   -.416E-02 0.230E-02 -.193E-02   0.386E-05 -.364E-05 -.149E-03
   -.106E+00 0.637E-01 0.771E-01   0.101E+00 -.610E-01 -.767E-01   -.380E-02 0.224E-02 -.952E-03   0.525E-05 -.321E-05 -.150E-03
 -----------------------------------------------------------------------------------------------
   0.434E-04 0.110E-04 0.917E-02   0.924E-14 -.867E-15 0.147E-13   -.603E-04 -.134E-04 -.919E-02   -.201E-05 0.186E-05 0.150E-04
 
 
 POSITION                                       TOTAL-FORCE (eV/Angst)
 -----------------------------------------------------------------------------------
      2.46037      0.00044      1.56573         0.213442      0.007701      0.130847
      4.93046     -0.00052      1.57504        -0.052266      0.006584     -0.000133
      1.22997      2.13595      1.57504        -0.013072      0.029244     -0.000063
      3.69641      2.13499      1.57504        -0.013181     -0.016047     -0.000119
      2.46402      0.00044      7.87520        -0.011572      0.006788     -0.006545
      4.93046     -0.00052      7.87520        -0.011627      0.006787     -0.006637
      1.22997      2.13595      7.87520        -0.011602      0.006800     -0.006637
      3.69641      2.13499      7.87520        -0.011602      0.006772     -0.006638
     -1.23163      2.13412      4.72512         0.011214     -0.007115      0.006775
      1.23481      2.13316      4.72512         0.011578     -0.007009      0.006918
     -2.46568      4.26964      4.72512         0.011308     -0.007381      0.006843
      0.00076      4.26868      4.72512         0.011540     -0.007148      0.005443
     -1.23163      2.13412     11.02529         0.012213     -0.006710      0.006844
      1.23481      2.13316     11.02529         0.011831     -0.006618      0.006695
     -2.46568      4.26964     11.02529         0.011945     -0.006315      0.006774
      0.00076      4.26868     11.02529         0.012160     -0.006525      0.005599
     -0.00332      1.42496      1.57504         0.009292     -0.005070     -0.011733
      2.46311      1.42400      1.57504        -0.019718     -0.005562     -0.045146
     -1.23737      3.56047      1.57504        -0.067991     -0.032928     -0.044692
      1.22906      3.55952      1.57504        -0.067243      0.022304     -0.045511
     -0.00332      1.42496      7.87520         0.008890     -0.005191      0.001035
      2.46311      1.42400      7.87520         0.008888     -0.005191      0.000994
     -1.23737      3.56047      7.87520         0.008889     -0.005190      0.000994
      1.22906      3.55952      7.87520         0.008890     -0.005192      0.000992
      1.23571      0.70960      4.72512        -0.008448      0.005391     -0.001870
      3.70215      0.70864      4.72512        -0.009482      0.005213     -0.001952
      0.00166      2.84512      4.72512        -0.008808      0.006176     -0.001925
      2.46810      2.84416      4.72512        -0.009074      0.005601     -0.000658
      1.23571      0.70960     11.02529        -0.009713      0.005402     -0.002031
      3.70215      0.70864     11.02529        -0.008517      0.005213     -0.001882
      0.00166      2.84512     11.02529        -0.008950      0.004261     -0.001916
      2.46810      2.84416     11.02529        -0.009213      0.004955     -0.000665
 -----------------------------------------------------------------------------------
    total drift:                               -0.000019     -0.000001     -0.000005


--------------------------------------------------------------------------------------------------------



  FREE ENERGIE OF THE ION-ELECTRON SYSTEM (eV)
  ---------------------------------------------------
  free  energy   TOTEN  =      -299.67691418 eV

  energy  without entropy=     -299.67691418  energy(sigma->0) =     -299.67691418
 


--------------------------------------------------------------------------------------------------------


    POTLOK:  cpu time    0.96: real time    1.92


--------------------------------------------------------------------------------------------------------


     LOOP+:  cpu time 6551.33: real time13108.26
    4ORBIT:  cpu time    0.00: real time    0.00
 BZINTS: Fermi energy:  5.231972;128.000000 electrons
         Band energy:-492.528597;  BLOECHL correction:  0.000000

 total amount of memory used by VASP on root node   383660. kBytes
========================================================================

   base      :      30000. kBytes
   nonl-proj :      73608. kBytes
   fftplans  :      13581. kBytes
   grid      :      28889. kBytes
   one-center:         98. kBytes
   wavefun   :     237484. kBytes
 
  
  
 General timing and accounting informations for this job:
 ========================================================
  
                  Total CPU time used (sec):     6633.125
                            User time (sec):     3744.693
                          System time (sec):     2888.433
                         Elapsed time (sec):    13271.560
  
                   Maximum memory used (kb):      473328.
                   Average memory used (kb):           0.
  
                          Minor page faults:     56360583
                          Major page faults:            0
                 Voluntary context switches:         1065
