   32   32    1    1
  0.4431505E+01  0.4934311E-09  0.4934311E-09  0.6725742E-09  0.5000000E-15
  1.000000000000000E-004
  CAR 
 graphite                                
    128    163     84
 
  0.0000000E+00  0.0000000E+00  0.0000000E+00  0.3086420E-02
    1      -11.328610
    2       -8.653183
    3       -8.645499
    4       -5.674770
    5       -5.672215
    6       -5.668854
    7       -4.322245
    8       -4.318252
    9       -4.314888
   10       -3.163263
   11       -3.159307
   12       -3.156171
   13       -3.153999
   14       -3.151501
   15       -3.147084
   16       -1.674153
   17       -1.665629
   18       -1.664616
   19       -1.663938
   20       -1.662456
   21       -1.654117
   22       -0.800138
   23       -0.724788
   24        3.734807
   25        3.738150
   26        3.740788
   27        3.896383
   28        3.899016
   29        3.903831
   30        4.073415
   31        4.076363
   32        4.080284
   33        4.378060
   34        4.380721
   35        4.383911
   36        6.102784
   37        6.108753
   38        6.111539
   39        6.112449
   40        6.113877
   41        6.121147
   42        8.285088
   43        8.301395
   44        9.280339
   45        9.284499
   46        9.289544
   47        9.292699
   48        9.299228
   49        9.303657
   50        9.668092
   51        9.678345
   52        9.683244
   53        9.693929
   54       10.788715
   55       10.798933
   56       11.235345
   57       11.243503
   58       14.446832
   59       14.449296
   60       14.451785
   61       14.452534
   62       14.454249
   63       14.457335
   64       15.045814
   65       15.047878
   66       15.050775
   67       15.051435
   68       15.054228
   69       15.056774
   70       15.324920
   71       15.330993
   72       15.336915
   73       17.717855
   74       17.718732
   75       17.722383
   76       19.473816
   77       19.880634
   78       20.193320
   79       20.198850
   80       20.262127
   81       20.272611
   82       20.385566
   83       20.400962
   84       20.401667
 
  0.1111111E+00  0.0000000E+00  0.0000000E+00  0.6172840E-02
    1      -11.249741
    2       -8.574903
    3       -8.567220
    4       -6.452137
    5       -5.888607
    6       -5.884995
    7       -3.966782
    8       -3.962215
    9       -3.876221
   10       -3.868784
   11       -3.406546
   12       -3.348586
   13       -3.343805
   14       -3.339391
   15       -3.336428
   16       -1.351855
   17       -1.344392
   18       -1.342549
   19       -1.338829
   20       -0.827454
   21       -0.820224
   22       -0.712086
   23       -0.665532
   24        2.975441
   25        3.226556
   26        3.227895
   27        3.743302
   28        3.747135
   29        3.977359
   30        3.992499
   31        4.324628
   32        4.328340
   33        4.519863
   34        4.524119
   35        4.913520
   36        5.792383
   37        5.796551
   38        5.798291
   39        5.805722
   40        6.179589
   41        6.186888
   42        7.798971
   43        7.998432
   44        9.140239
   45        9.146598
   46        9.287197
   47        9.295858
   48        9.341813
   49        9.494119
   50        9.498302
   51        9.503923
   52        9.508547
   53        9.825050
   54       10.736831
   55       10.869058
   56       11.349257
   57       11.357183
   58       14.193218
   59       14.195762
   60       14.557052
   61       14.559626
   62       14.562862
   63       14.565110
   64       15.209666
   65       15.211752
   66       15.214285
   67       15.216137
   68       15.274889
   69       15.279743
   70       15.409813
   71       15.788448
   72       15.797043
   73       17.358427
   74       17.362540
   75       17.767505
   76       19.376555
   77       19.381687
   78       19.410943
   79       19.615171
   80       19.953309
   81       20.416338
   82       20.733229
   83       20.747888
   84       20.947802
 
  0.2222222E+00  0.0000000E+00  0.0000000E+00  0.6172840E-02
    1      -11.013053
    2       -8.340463
    3       -8.332779
    4       -7.534717
    5       -6.235962
    6       -6.232826
    7       -4.920033
    8       -4.912412
    9       -3.667197
   10       -3.663392
   11       -3.658752
   12       -3.655884
   13       -3.202088
   14       -3.198017
   15       -1.935569
   16       -0.636618
   17       -0.630273
   18       -0.627973
   19       -0.624055
   20       -0.488553
   21       -0.449445
   22        0.576692
   23        0.583918
   24        2.153559
   25        2.406119
   26        2.409326
   27        3.145093
   28        3.376576
   29        3.379292
   30        4.193924
   31        4.198862
   32        4.218515
   33        4.988620
   34        4.992692
   35        4.994745
   36        5.001326
   37        5.174774
   38        5.179301
   39        5.945298
   40        6.401338
   41        6.408725
   42        6.565558
   43        7.334565
   44        8.285828
   45        8.293698
   46        8.737508
   47        8.743967
   48        9.049802
   49        9.058276
   50        9.517954
   51       10.052756
   52       10.059883
   53       10.435382
   54       10.926376
   55       11.073045
   56       11.593831
   57       11.601523
   58       13.734879
   59       13.738627
   60       14.638105
   61       14.638899
   62       14.643944
   63       14.648190
   64       15.653811
   65       15.663986
   66       15.668213
   67       15.771349
   68       15.773492
   69       15.776102
   70       15.777203
   71       16.444923
   72       16.449728
   73       17.037909
   74       17.046479
   75       17.911888
   76       18.563357
   77       18.569352
   78       18.797566
   79       19.147728
   80       19.277277
   81       20.956373
   82       21.665959
   83       21.679740
   84       21.750534
 
  0.3333333E+00  0.0000000E+00  0.0000000E+00  0.6172840E-02
    1      -10.619521
    2       -8.520530
    3       -7.950987
    4       -7.943333
    5       -6.503742
    6       -6.500809
    7       -5.882927
    8       -5.875286
    9       -3.919749
   10       -3.916383
   11       -3.911615
   12       -3.908761
   13       -2.261140
   14       -2.257032
   15       -0.331770
   16       -0.196060
   17       -0.015859
   18        0.243152
   19        0.248926
   20        0.251367
   21        0.255440
   22        1.353452
   23        1.357435
   24        1.444539
   25        2.124062
   26        2.131227
   27        2.206443
   28        3.105452
   29        3.108144
   30        3.961062
   31        3.964785
   32        3.967306
   33        3.973041
   34        4.063140
   35        4.066819
   36        4.611129
   37        4.971710
   38        5.890479
   39        5.895374
   40        6.559041
   41        6.762223
   42        6.769503
   43        6.921292
   44        6.928557
   45        7.002928
   46        8.143753
   47        8.149714
   48        8.452738
   49        8.460713
   50        9.793420
   51        9.835606
   52       10.793605
   53       10.842548
   54       10.849608
   55       11.910907
   56       11.918262
   57       12.651044
   58       13.236372
   59       13.241463
   60       14.638793
   61       14.639477
   62       14.645211
   63       14.650164
   64       15.308382
   65       15.313861
   66       16.066093
   67       16.104873
   68       16.110863
   69       16.447155
   70       16.450921
   71       16.452964
   72       16.454981
   73       17.573262
   74       17.834080
   75       17.840760
   76       18.137782
   77       18.230736
   78       18.827029
   79       18.835576
   80       19.030483
   81       21.994590
   82       22.889971
   83       23.055199
   84       23.067322
 
  0.4444444E+00  0.0000000E+00  0.0000000E+00  0.6172840E-02
    1      -10.070757
    2       -9.369338
    3       -7.408727
    4       -7.401075
    5       -6.717375
    6       -6.709869
    7       -6.643467
    8       -6.640448
    9       -4.052869
   10       -4.049658
   11       -4.044835
   12       -4.042002
   13       -1.289156
   14       -1.285162
   15        0.205186
   16        0.292609
   17        0.296224
   18        0.582566
   19        0.652426
   20        1.091874
   21        1.097713
   22        1.100367
   23        1.103614
   24        1.332440
   25        1.550203
   26        2.972200
   27        2.975002
   28        3.011758
   29        3.014059
   30        3.017833
   31        3.022038
   32        3.240219
   33        3.740256
   34        3.747368
   35        3.983337
   36        3.987050
   37        5.147807
   38        5.366146
   39        5.373298
   40        5.808573
   41        6.629004
   42        6.634349
   43        7.245740
   44        7.253346
   45        7.450499
   46        7.455541
   47        7.825420
   48        7.833028
   49        8.042003
   50        9.009326
   51       10.137991
   52       10.498697
   53       11.597723
   54       11.605022
   55       12.297777
   56       12.304618
   57       12.746469
   58       12.752555
   59       14.349158
   60       14.352618
   61       14.359477
   62       14.627717
   63       14.628334
   64       14.634385
   65       14.639888
   66       16.041576
   67       16.607326
   68       16.614587
   69       16.642187
   70       16.878705
   71       16.883447
   72       16.885076
   73       16.888125
   74       17.183031
   75       17.189992
   76       17.372482
   77       18.422493
   78       18.733152
   79       20.954524
   80       20.963175
   81       23.282964
   82       23.291823
   83       23.478783
   84       23.652319
 
 -0.8470329E-21  0.1111111E+00  0.0000000E+00  0.6172840E-02
    1      -11.249743
    2       -8.574904
    3       -8.567221
    4       -6.451940
    5       -5.888937
    6       -5.885169
    7       -3.966688
    8       -3.960625
    9       -3.876082
   10       -3.868486
   11       -3.407755
   12       -3.348209
   13       -3.344507
   14       -3.340369
   15       -3.336433
   16       -1.350982
   17       -1.343954
   18       -1.343022
   19       -1.335944
   20       -0.828768
   21       -0.821832
   22       -0.712088
   23       -0.665574
   24        2.974344
   25        3.225665
   26        3.227269
   27        3.743693
   28        3.750003
   29        3.979218
   30        3.993912
   31        4.323610
   32        4.327622
   33        4.518350
   34        4.524200
   35        4.912361
   36        5.789667
   37        5.796788
   38        5.797657
   39        5.804737
   40        6.182280
   41        6.188423
   42        7.794307
   43        8.003152
   44        9.138066
   45        9.146278
   46        9.285555
   47        9.288198
   48        9.344919
   49        9.494845
   50        9.503576
   51        9.507975
   52        9.511086
   53        9.822274
   54       10.733376
   55       10.872670
   56       11.349011
   57       11.356946
   58       14.192656
   59       14.195005
   60       14.556977
   61       14.559933
   62       14.563217
   63       14.566272
   64       15.208481
   65       15.210697
   66       15.213712
   67       15.216557
   68       15.276146
   69       15.280259
   70       15.411311
   71       15.788157
   72       15.795922
   73       17.357200
   74       17.362815
   75       17.768220
   76       19.380161
   77       19.383114
   78       19.411000
   79       19.614877
   80       19.956431
   81       20.412196
   82       20.730089
   83       20.739309
   84       20.948391
 
  0.1111111E+00  0.1111111E+00  0.0000000E+00  0.6172840E-02
    1      -11.091945
    2       -8.418505
    3       -8.410823
    4       -6.946113
    5       -6.941930
    6       -5.465591
    7       -4.350256
    8       -4.344421
    9       -4.342286
   10       -4.335867
   11       -4.097340
   12       -2.959503
   13       -2.951810
   14       -2.648582
   15       -2.644021
   16       -1.456591
   17       -1.449275
   18       -0.547519
   19       -0.537054
   20       -0.108047
   21       -0.102519
   22       -0.101508
   23       -0.093594
   24        2.396130
   25        2.558285
   26        2.560986
   27        3.649592
   28        3.653582
   29        3.720635
   30        3.723892
   31        4.196066
   32        4.216728
   33        4.572384
   34        4.914471
   35        4.921671
   36        5.514340
   37        5.518253
   38        5.938631
   39        5.944873
   40        5.948181
   41        5.950303
   42        7.022258
   43        7.433842
   44        8.635725
   45        8.643349
   46        8.684860
   47        9.144881
   48        9.153989
   49        9.256301
   50        9.260361
   51        9.551776
   52       10.439818
   53       10.444674
   54       10.629162
   55       10.860442
   56       11.524144
   57       11.531865
   58       14.101278
   59       14.104092
   60       14.105573
   61       14.110804
   62       15.028059
   63       15.032910
   64       15.413186
   65       15.417725
   66       15.610359
   67       15.611618
   68       15.614362
   69       15.619976
   70       15.946151
   71       15.953092
   72       16.379436
   73       16.968406
   74       17.466052
   75       17.469852
   76       18.819206
   77       18.824521
   78       19.103218
   79       19.281152
   80       19.775735
   81       20.088734
   82       21.209368
   83       21.221607
   84       21.797167
 
  0.2222222E+00  0.1111111E+00  0.0000000E+00  0.6172840E-02
    1      -10.776845
    2       -8.106668
    3       -8.098937
    4       -7.986434
    5       -7.309701
    6       -5.467600
    7       -5.360469
    8       -5.352822
    9       -4.700068
   10       -4.692461
   11       -3.532630
   12       -2.942105
   13       -2.934467
   14       -1.748560
   15       -1.097831
   16       -0.940137
   17       -0.932844
   18       -0.312569
   19       -0.188589
   20        0.744813
   21        0.751570
   22        1.223755
   23        1.377302
   24        1.384452
   25        1.811115
   26        2.157712
   27        2.732161
   28        3.045525
   29        3.368446
   30        3.792292
   31        3.799536
   32        3.942287
   33        4.018979
   34        4.696095
   35        4.884098
   36        5.223861
   37        5.230084
   38        5.714843
   39        6.213184
   40        6.237639
   41        6.244866
   42        6.565899
   43        6.611027
   44        7.530638
   45        7.539256
   46        8.032575
   47        8.539039
   48        8.548394
   49        8.911234
   50        9.484226
   51        9.996517
   52       10.242535
   53       10.745459
   54       11.258523
   55       11.803005
   56       11.810300
   57       11.878445
   58       13.587962
   59       13.592304
   60       14.092160
   61       14.095924
   62       15.126301
   63       15.139483
   64       15.144890
   65       16.016958
   66       16.023147
   67       16.055729
   68       16.061046
   69       16.247767
   70       16.252003
   71       16.271449
   72       16.652554
   73       17.269716
   74       17.678706
   75       18.135181
   76       18.213595
   77       18.219511
   78       18.687676
   79       19.024980
   80       19.035886
   81       20.513134
   82       21.992282
   83       22.001577
   84       23.111441
 
  0.3333333E+00  0.1111111E+00  0.0000000E+00  0.6172840E-02
    1      -10.305650
    2       -8.905037
    3       -7.640666
    4       -7.633015
    5       -7.532830
    6       -6.260518
    7       -6.252882
    8       -5.595464
    9       -4.916550
   10       -4.908945
   11       -3.049897
   12       -3.042326
   13       -2.604894
   14       -0.772603
   15       -0.099674
   16       -0.092400
   17        0.003471
   18        0.035334
   19        0.327659
   20        0.474755
   21        1.232785
   22        1.529475
   23        1.637551
   24        1.644033
   25        1.817391
   26        2.494383
   27        2.652475
   28        2.659648
   29        2.953467
   30        2.960455
   31        3.184283
   32        3.772278
   33        4.097210
   34        4.318405
   35        4.324689
   36        4.480625
   37        4.733587
   38        5.636472
   39        5.805590
   40        6.123340
   41        6.131142
   42        6.671263
   43        6.678454
   44        6.934221
   45        7.272568
   46        7.622559
   47        7.864172
   48        7.872636
   49        8.370847
   50        9.537289
   51        9.798219
   52       10.502198
   53       10.706168
   54       12.123413
   55       12.160305
   56       12.167151
   57       13.071315
   58       13.076780
   59       13.518949
   60       13.900440
   61       14.072675
   62       14.076769
   63       15.166818
   64       15.171132
   65       15.691119
   66       16.503477
   67       16.509732
   68       16.534934
   69       16.540921
   70       16.752944
   71       16.790731
   72       16.890982
   73       16.895675
   74       17.620593
   75       17.626929
   76       17.973991
   77       18.168364
   78       18.691552
   79       19.119899
   80       20.751161
   81       21.589609
   82       22.914664
   83       22.919855
   84       23.691125
 
  0.4444444E+00  0.1111111E+00  0.0000000E+00  0.6172840E-02
    1       -9.682471
    2       -9.678547
    3       -7.607758
    4       -7.027315
    5       -7.020523
    6       -7.018680
    7       -7.012988
    8       -5.649563
    9       -4.989440
   10       -4.981833
   11       -3.097915
   12       -3.090366
   13       -1.860744
   14       -0.835500
   15       -0.068607
   16        0.478446
   17        0.481257
   18        0.495835
   19        0.501813
   20        0.886930
   21        1.000345
   22        1.004984
   23        1.962687
   24        1.968970
   25        2.185425
   26        2.191998
   27        2.350275
   28        2.383369
   29        2.388309
   30        3.120801
   31        3.714390
   32        3.751433
   33        3.758456
   34        4.559610
   35        4.560980
   36        4.563918
   37        4.571799
   38        4.738110
   39        5.080756
   40        5.087189
   41        6.321015
   42        6.580298
   43        7.216777
   44        7.229928
   45        7.230249
   46        7.233218
   47        7.504706
   48        7.855255
   49        8.632157
   50        8.637506
   51       10.155799
   52       10.162446
   53       11.194663
   54       12.580354
   55       12.589028
   56       12.592465
   57       12.597237
   58       12.599178
   59       13.237393
   60       14.062326
   61       14.066515
   62       15.170349
   63       15.173781
   64       15.177275
   65       15.200586
   66       15.206852
   67       16.680394
   68       16.686137
   69       17.052666
   70       17.060654
   71       17.061831
   72       17.065392
   73       17.161958
   74       17.167040
   75       17.389415
   76       17.393778
   77       18.323165
   78       18.326624
   79       21.213182
   80       21.402544
   81       22.939680
   82       23.065098
   83       23.076965
   84       23.096541
 
 -0.4444444E+00  0.1111111E+00  0.0000000E+00  0.6172840E-02
    1      -10.305758
    2       -8.904871
    3       -7.640801
    4       -7.633215
    5       -7.532883
    6       -6.260372
    7       -6.252752
    8       -5.595393
    9       -4.916735
   10       -4.909125
   11       -3.049898
   12       -3.042344
   13       -2.602001
   14       -0.775505
   15       -0.096322
   16       -0.089717
   17        0.000341
   18        0.035314
   19        0.327652
   20        0.474677
   21        1.232927
   22        1.530871
   23        1.634247
   24        1.641418
   25        1.817374
   26        2.496217
   27        2.649534
   28        2.655890
   29        2.953489
   30        2.960684
   31        3.184574
   32        3.772403
   33        4.096357
   34        4.321540
   35        4.329082
   36        4.481979
   37        4.732868
   38        5.639941
   39        5.804818
   40        6.122618
   41        6.128950
   42        6.670935
   43        6.678503
   44        6.929975
   45        7.268232
   46        7.620445
   47        7.866836
   48        7.873295
   49        8.375944
   50        9.539755
   51        9.798509
   52       10.502017
   53       10.710661
   54       12.119911
   55       12.159970
   56       12.166658
   57       13.071678
   58       13.077133
   59       13.519573
   60       13.896820
   61       14.072728
   62       14.076875
   63       15.167115
   64       15.170104
   65       15.694008
   66       16.503879
   67       16.509005
   68       16.533526
   69       16.539676
   70       16.752677
   71       16.789516
   72       16.891972
   73       16.896448
   74       17.623582
   75       17.629126
   76       17.973601
   77       18.168539
   78       18.692138
   79       19.126385
   80       20.744187
   81       21.596469
   82       22.916633
   83       22.920604
   84       23.684962
 
 -0.3333333E+00  0.1111111E+00  0.0000000E+00  0.6172840E-02
    1      -10.776923
    2       -8.106744
    3       -8.099018
    4       -7.986243
    5       -7.310070
    6       -5.467753
    7       -5.360251
    8       -5.352561
    9       -4.700420
   10       -4.692810
   11       -3.529375
   12       -2.942257
   13       -2.934668
   14       -1.751520
   15       -1.098073
   16       -0.936372
   17       -0.929535
   18       -0.312672
   19       -0.188596
   20        0.741378
   21        0.748617
   22        1.220547
   23        1.377185
   24        1.384405
   25        1.811155
   26        2.156691
   27        2.732135
   28        3.050203
   29        3.369046
   30        3.788594
   31        3.795080
   32        3.942596
   33        4.020496
   34        4.694795
   35        4.887154
   36        5.227881
   37        5.235211
   38        5.712515
   39        6.209149
   40        6.237704
   41        6.244980
   42        6.563978
   43        6.612111
   44        7.528971
   45        7.533984
   46        8.027704
   47        8.545077
   48        8.550108
   49        8.916759
   50        9.484455
   51       10.002263
   52       10.244314
   53       10.746029
   54       11.253978
   55       11.802456
   56       11.809742
   57       11.878891
   58       13.588296
   59       13.592648
   60       14.092304
   61       14.096053
   62       15.121863
   63       15.140148
   64       15.143197
   65       16.017478
   66       16.021741
   67       16.054814
   68       16.060110
   69       16.249180
   70       16.253679
   71       16.271067
   72       16.656060
   73       17.275926
   74       17.678442
   75       18.133914
   76       18.218003
   77       18.222072
   78       18.680992
   79       19.025520
   80       19.036055
   81       20.518585
   82       21.993738
   83       21.997895
   84       23.104825
 
 -0.2222222E+00  0.1111111E+00  0.0000000E+00  0.6172840E-02
    1      -11.091991
    2       -8.418550
    3       -8.410870
    4       -6.944579
    5       -6.943783
    6       -5.465749
    7       -4.349566
    8       -4.344748
    9       -4.341747
   10       -4.337343
   11       -4.093920
   12       -2.959785
   13       -2.952156
   14       -2.649714
   15       -2.645944
   16       -1.452585
   17       -1.445827
   18       -0.547601
   19       -0.537063
   20       -0.110020
   21       -0.103348
   22       -0.102738
   23       -0.096048
   24        2.393063
   25        2.557515
   26        2.559658
   27        3.650964
   28        3.653174
   29        3.723780
   30        3.728140
   31        4.197519
   32        4.218070
   33        4.570626
   34        4.910406
   35        4.916742
   36        5.512548
   37        5.514847
   38        5.940579
   39        5.947866
   40        5.948179
   41        5.955494
   42        7.015481
   43        7.439862
   44        8.631729
   45        8.634133
   46        8.678885
   47        9.156059
   48        9.158055
   49        9.257132
   50        9.265328
   51        9.557930
   52       10.435755
   53       10.443853
   54       10.626563
   55       10.864737
   56       11.523504
   57       11.531230
   58       14.101619
   59       14.104695
   60       14.106794
   61       14.109771
   62       15.028103
   63       15.031503
   64       15.412689
   65       15.416239
   66       15.610316
   67       15.614462
   68       15.614697
   69       15.618929
   70       15.948712
   71       15.956282
   72       16.375436
   73       16.962024
   74       17.467327
   75       17.472017
   76       18.825298
   77       18.827737
   78       19.102150
   79       19.281637
   80       19.779574
   81       20.089004
   82       21.207270
   83       21.212528
   84       21.791794
 
 -0.1111111E+00  0.1111111E+00  0.0000000E+00  0.6172840E-02
    1      -11.249759
    2       -8.574919
    3       -8.567236
    4       -6.452502
    5       -5.888504
    6       -5.885093
    7       -3.963960
    8       -3.960749
    9       -3.876531
   10       -3.868737
   11       -3.410511
   12       -3.347644
   13       -3.344992
   14       -3.340401
   15       -3.335909
   16       -1.346893
   17       -1.344253
   18       -1.341626
   19       -1.334792
   20       -0.832057
   21       -0.824742
   22       -0.712077
   23       -0.665552
   24        2.972444
   25        3.224538
   26        3.225998
   27        3.747154
   28        3.749825
   29        3.984114
   30        3.995312
   31        4.322934
   32        4.326537
   33        4.518899
   34        4.522239
   35        4.909883
   36        5.788237
   37        5.794053
   38        5.797395
   39        5.799413
   40        6.186806
   41        6.194143
   42        7.786332
   43        8.011137
   44        9.137253
   45        9.141607
   46        9.275515
   47        9.284149
   48        9.350026
   49        9.499752
   50        9.505563
   51        9.511956
   52        9.521918
   53        9.816577
   54       10.727702
   55       10.878742
   56       11.348617
   57       11.356562
   58       14.192944
   59       14.195588
   60       14.557710
   61       14.559702
   62       14.562850
   63       14.565550
   64       15.208548
   65       15.209741
   66       15.212933
   67       15.214756
   68       15.277401
   69       15.282137
   70       15.417129
   71       15.785688
   72       15.792274
   73       17.357162
   74       17.358987
   75       17.771874
   76       19.383071
   77       19.388317
   78       19.411251
   79       19.614525
   80       19.962453
   81       20.406380
   82       20.719605
   83       20.734184
   84       20.947402
 
 -0.3388132E-20  0.2222222E+00  0.0000000E+00  0.6172840E-02
    1      -11.013059
    2       -8.340460
    3       -8.332782
    4       -7.534724
    5       -6.236831
    6       -6.232155
    7       -4.919960
    8       -4.912357
    9       -3.667857
   10       -3.663149
   11       -3.659732
   12       -3.655098
   13       -3.202699
   14       -3.196138
   15       -1.936601
   16       -0.636642
   17       -0.629414
   18       -0.628262
   19       -0.621189
   20       -0.488503
   21       -0.449398
   22        0.575529
   23        0.582369
   24        2.152634
   25        2.404748
   26        2.408867
   27        3.145967
   28        3.376811
   29        3.382150
   30        4.193382
   31        4.197870
   32        4.220381
   33        4.985795
   34        4.992740
   35        4.993975
   36        5.000868
   37        5.173095
   38        5.179733
   39        5.943719
   40        6.404189
   41        6.410238
   42        6.562015
   43        7.338312
   44        8.284382
   45        8.288181
   46        8.735438
   47        8.743563
   48        9.056343
   49        9.059988
   50        9.520647
   51       10.053791
   52       10.062415
   53       10.431901
   54       10.930323
   55       11.070837
   56       11.593400
   57       11.601100
   58       13.734336
   59       13.738099
   60       14.636668
   61       14.640137
   62       14.644830
   63       14.648418
   64       15.655459
   65       15.664156
   66       15.669281
   67       15.770412
   68       15.771858
   69       15.776567
   70       15.777797
   71       16.442821
   72       16.450224
   73       17.037118
   74       17.045816
   75       17.912575
   76       18.565979
   77       18.571047
   78       18.797288
   79       19.150284
   80       19.277177
   81       20.951640
   82       21.662833
   83       21.672129
   84       21.751433
 
  0.1111111E+00  0.2222222E+00  0.0000000E+00  0.6172840E-02
    1      -10.776850
    2       -8.106600
    3       -8.098926
    4       -7.986558
    5       -7.309692
    6       -5.467729
    7       -5.360346
    8       -5.352790
    9       -4.700130
   10       -4.692515
   11       -3.532562
   12       -2.942134
   13       -2.934497
   14       -1.747441
   15       -1.098916
   16       -0.939894
   17       -0.932723
   18       -0.312577
   19       -0.188560
   20        0.746208
   21        0.753301
   22        1.223605
   23        1.376029
   24        1.382742
   25        1.810240
   26        2.157878
   27        2.732879
   28        3.045138
   29        3.367515
   30        3.792212
   31        3.799311
   32        3.943677
   33        4.020343
   34        4.695906
   35        4.882753
   36        5.221315
   37        5.228413
   38        5.712658
   39        6.213502
   40        6.240648
   41        6.246704
   42        6.564767
   43        6.613497
   44        7.530412
   45        7.536142
   46        8.032556
   47        8.542727
   48        8.548647
   49        8.908777