  32  32   0   0
  0.8555981E+01  0.4932875E-09  0.4932875E-09  0.1299823E-08  0.5000000E-15
  1.000000000000000E-004
  CAR 
 graphite                                
     16.33295852    -16.70664001  301      4.94892393      1.00000000
    -16.707  0.0000E+00  0.0000E+00
    -16.597  0.0000E+00  0.0000E+00
    -16.486  0.0000E+00  0.0000E+00
    -16.376  0.0000E+00  0.0000E+00
    -16.266  0.0000E+00  0.0000E+00
    -16.156  0.0000E+00  0.0000E+00
    -16.046  0.0000E+00  0.0000E+00
    -15.936  0.0000E+00  0.0000E+00
    -15.826  0.0000E+00  0.0000E+00
    -15.715  0.0000E+00  0.0000E+00
    -15.605  0.0000E+00  0.0000E+00
    -15.495  0.0000E+00  0.0000E+00
    -15.385  0.0000E+00  0.0000E+00
    -15.275  0.0000E+00  0.0000E+00
    -15.165  0.0000E+00  0.0000E+00
    -15.055  0.0000E+00  0.0000E+00
    -14.945  0.0000E+00  0.0000E+00
    -14.834  0.0000E+00  0.0000E+00
    -14.724  0.0000E+00  0.0000E+00
    -14.614  0.9653E+00  0.3465E-01
    -14.504  0.2297E+01  0.2390E+00
    -14.394  0.3104E+01  0.5317E+00
    -14.284  0.4557E+01  0.9452E+00
    -14.174  0.5136E+01  0.1502E+01
    -14.063  0.4903E+01  0.2040E+01
    -13.953  0.4949E+01  0.2582E+01
    -13.843  0.4970E+01  0.3129E+01
    -13.733  0.4913E+01  0.3671E+01
    -13.623  0.5131E+01  0.4222E+01
    -13.513  0.6437E+01  0.4829E+01
    -13.403  0.7197E+01  0.5589E+01
    -13.293  0.6858E+01  0.6367E+01
    -13.182  0.6616E+01  0.7128E+01
    -13.072  0.2382E+01  0.7551E+01
    -12.962  0.1840E+01  0.7777E+01
    -12.852  0.1973E+01  0.7980E+01
    -12.742  0.2419E+01  0.8222E+01
    -12.632  0.4431E+01  0.8551E+01
    -12.522  0.6702E+01  0.9447E+01
    -12.411  0.7438E+01  0.1021E+02
    -12.301  0.6750E+01  0.1102E+02
    -12.191  0.4075E+01  0.1157E+02
    -12.081  0.4198E+01  0.1203E+02
    -11.971  0.4364E+01  0.1250E+02
    -11.861  0.4541E+01  0.1299E+02
    -11.751  0.4702E+01  0.1350E+02
    -11.641  0.4839E+01  0.1402E+02
    -11.530  0.5184E+01  0.1458E+02
    -11.420  0.5457E+01  0.1516E+02
    -11.310  0.6109E+01  0.1579E+02
    -11.200  0.5949E+01  0.1646E+02
    -11.090  0.5668E+01  0.1710E+02
    -10.980  0.5604E+01  0.1772E+02
    -10.870  0.5776E+01  0.1835E+02
    -10.760  0.5949E+01  0.1899E+02
    -10.649  0.5886E+01  0.1965E+02
    -10.539  0.5750E+01  0.2029E+02
    -10.429  0.5672E+01  0.2092E+02
    -10.319  0.5357E+01  0.2153E+02
    -10.209  0.4102E+01  0.2206E+02
    -10.099  0.3829E+01  0.2248E+02
     -9.989  0.4669E+01  0.2295E+02
     -9.878  0.4973E+01  0.2349E+02
     -9.768  0.5926E+01  0.2406E+02
     -9.658  0.7269E+01  0.2478E+02
     -9.548  0.1065E+02  0.2574E+02
     -9.438  0.9248E+01  0.2688E+02
     -9.328  0.6862E+01  0.2777E+02
     -9.218  0.4999E+01  0.2841E+02
     -9.108  0.4454E+01  0.2893E+02
     -8.997  0.3940E+01  0.2939E+02
     -8.887  0.5672E+01  0.2998E+02
     -8.777  0.5056E+01  0.3053E+02
     -8.667  0.2002E+01  0.3096E+02
     -8.557  0.1789E+01  0.3117E+02
     -8.447  0.1577E+01  0.3135E+02
     -8.337  0.1364E+01  0.3152E+02
     -8.226  0.1308E+01  0.3166E+02
     -8.116  0.1763E+01  0.3183E+02
     -8.006  0.2266E+01  0.3205E+02
     -7.896  0.2770E+01  0.3232E+02
     -7.786  0.5264E+01  0.3272E+02
     -7.676  0.1127E+02  0.3363E+02
     -7.566  0.5016E+01  0.3446E+02
     -7.456  0.5062E+01  0.3503E+02
     -7.345  0.6279E+01  0.3565E+02
     -7.235  0.7496E+01  0.3641E+02
     -7.125  0.8713E+01  0.3730E+02
     -7.015  0.9129E+01  0.3832E+02
     -6.905  0.7131E+01  0.3921E+02
     -6.795  0.5604E+01  0.3987E+02
     -6.685  0.5549E+01  0.4048E+02
     -6.574  0.5521E+01  0.4109E+02
     -6.464  0.5359E+01  0.4169E+02
     -6.354  0.5168E+01  0.4227E+02
     -6.244  0.5031E+01  0.4283E+02
     -6.134  0.4912E+01  0.4338E+02
     -6.024  0.4793E+01  0.4391E+02
     -5.914  0.4674E+01  0.4444E+02
     -5.804  0.4555E+01  0.4494E+02
     -5.693  0.4436E+01  0.4544E+02
     -5.583  0.4326E+01  0.4592E+02
     -5.473  0.4843E+01  0.4642E+02
     -5.363  0.5452E+01  0.4698E+02
     -5.253  0.6061E+01  0.4762E+02
     -5.143  0.6670E+01  0.4832E+02
     -5.033  0.7280E+01  0.4909E+02
     -4.923  0.7889E+01  0.4992E+02
     -4.812  0.8498E+01  0.5083E+02
     -4.702  0.7910E+01  0.5179E+02
     -4.592  0.4420E+01  0.5247E+02
     -4.482  0.6082E+01  0.5302E+02
     -4.372  0.6743E+01  0.5376E+02
     -4.262  0.5212E+01  0.5442E+02
     -4.152  0.3680E+01  0.5491E+02
     -4.041  0.2149E+01  0.5523E+02
     -3.931  0.1085E+01  0.5539E+02
     -3.821  0.2493E+01  0.5558E+02
     -3.711  0.4089E+01  0.5595E+02
     -3.601  0.5869E+01  0.5649E+02
     -3.491  0.9889E+01  0.5736E+02
     -3.381  0.1290E+02  0.5866E+02
     -3.271  0.1289E+02  0.6008E+02
     -3.160  0.1017E+02  0.6141E+02
     -3.050  0.4700E+01  0.6218E+02
     -2.940  0.5534E+01  0.6274E+02
     -2.830  0.6460E+01  0.6340E+02
     -2.720  0.8047E+01  0.6417E+02
     -2.610  0.1393E+02  0.6538E+02
     -2.500  0.2556E+02  0.6728E+02
     -2.389  0.6959E+01  0.6915E+02
     -2.279  0.7617E+01  0.6996E+02
     -2.169  0.7407E+01  0.7078E+02
     -2.059  0.7693E+01  0.7161E+02
     -1.949  0.8404E+01  0.7249E+02
     -1.839  0.1603E+02  0.7371E+02
     -1.729  0.1302E+02  0.7533E+02
     -1.619  0.1011E+02  0.7661E+02
     -1.508  0.1431E+02  0.7776E+02
     -1.398  0.3508E+02  0.8054E+02
     -1.288  0.2164E+02  0.8273E+02
     -1.178  0.1449E+02  0.8471E+02
     -1.068  0.1587E+02  0.8638E+02
     -0.958  0.1577E+02  0.8812E+02
     -0.848  0.9622E+01  0.8952E+02
     -0.738  0.6665E+01  0.9040E+02
     -0.627  0.7009E+01  0.9114E+02
     -0.517  0.7849E+01  0.9196E+02
     -0.407  0.9045E+01  0.9289E+02
     -0.297  0.1049E+02  0.9396E+02
     -0.187  0.1190E+02  0.9516E+02
     -0.077  0.1271E+02  0.9645E+02
      0.033  0.1213E+02  0.9828E+02
      0.144  0.1258E+02  0.9965E+02
      0.254  0.1134E+02  0.1010E+03
      0.364  0.9212E+01  0.1021E+03
      0.474  0.9069E+01  0.1031E+03
      0.584  0.8962E+01  0.1042E+03
      0.694  0.8906E+01  0.1051E+03
      0.804  0.9994E+01  0.1062E+03
      0.914  0.9668E+01  0.1073E+03
      1.025  0.9649E+01  0.1084E+03
      1.135  0.9533E+01  0.1094E+03
      1.245  0.9475E+01  0.1105E+03
      1.355  0.1015E+02  0.1115E+03
      1.465  0.9923E+01  0.1126E+03
      1.575  0.8997E+01  0.1137E+03
      1.685  0.1026E+02  0.1147E+03
      1.796  0.9753E+01  0.1158E+03
      1.906  0.8956E+01  0.1169E+03
      2.016  0.7123E+01  0.1177E+03
      2.126  0.5754E+01  0.1185E+03
      2.236  0.4414E+01  0.1190E+03
      2.346  0.3121E+01  0.1194E+03
      2.456  0.2895E+01  0.1198E+03
      2.566  0.3731E+01  0.1201E+03
      2.677  0.5202E+01  0.1206E+03
      2.787  0.7380E+01  0.1213E+03
      2.897  0.7608E+01  0.1222E+03
      3.007  0.8383E+01  0.1231E+03
      3.117  0.7949E+01  0.1239E+03
      3.227  0.5984E+01  0.1247E+03
      3.337  0.4621E+01  0.1253E+03
      3.448  0.3737E+01  0.1257E+03
      3.558  0.3238E+01  0.1261E+03
      3.668  0.2829E+01  0.1265E+03
      3.778  0.2436E+01  0.1267E+03
      3.888  0.2102E+01  0.1270E+03
      3.998  0.1813E+01  0.1272E+03
      4.108  0.1555E+01  0.1274E+03
      4.218  0.1309E+01  0.1276E+03
      4.329  0.1075E+01  0.1277E+03
      4.439  0.8580E+00  0.1278E+03
      4.549  0.6532E+00  0.1279E+03
      4.659  0.4586E+00  0.1279E+03
      4.769  0.2731E+00  0.1280E+03
      4.879  0.9594E-01  0.1280E+03
      4.989  0.2739E-01  0.1280E+03
      5.099  0.1513E+00  0.1280E+03
      5.210  0.2847E+00  0.1280E+03
      5.320  0.4279E+00  0.1281E+03
      5.430  0.5835E+00  0.1281E+03
      5.540  0.7519E+00  0.1282E+03
      5.650  0.9374E+00  0.1283E+03
      5.760  0.1147E+01  0.1284E+03
      5.870  0.1406E+01  0.1285E+03
      5.981  0.1678E+01  0.1287E+03
      6.091  0.2574E+01  0.1290E+03
      6.201  0.3146E+01  0.1293E+03
      6.311  0.3617E+01  0.1296E+03
      6.421  0.4508E+01  0.1301E+03
      6.531  0.8468E+01  0.1307E+03
      6.641  0.1291E+02  0.1321E+03
      6.751  0.9021E+01  0.1332E+03
      6.862  0.7449E+01  0.1342E+03
      6.972  0.6112E+01  0.1349E+03
      7.082  0.5341E+01  0.1355E+03
      7.192  0.4957E+01  0.1361E+03
      7.302  0.4597E+01  0.1366E+03
      7.412  0.4084E+01  0.1371E+03
      7.522  0.3544E+01  0.1375E+03
      7.633  0.3620E+01  0.1379E+03
      7.743  0.3905E+01  0.1383E+03
      7.853  0.4336E+01  0.1388E+03
      7.963  0.4664E+01  0.1393E+03
      8.073  0.4902E+01  0.1398E+03
      8.183  0.4775E+01  0.1403E+03
      8.293  0.4571E+01  0.1409E+03
      8.403  0.4449E+01  0.1414E+03
      8.514  0.4329E+01  0.1418E+03
      8.624  0.4223E+01  0.1423E+03
      8.734  0.4138E+01  0.1428E+03
      8.844  0.4060E+01  0.1432E+03
      8.954  0.3988E+01  0.1437E+03
      9.064  0.3701E+01  0.1441E+03
      9.174  0.3455E+01  0.1445E+03
      9.285  0.3333E+01  0.1449E+03
      9.395  0.3274E+01  0.1452E+03
      9.505  0.3178E+01  0.1456E+03
      9.615  0.3145E+01  0.1459E+03
      9.725  0.3345E+01  0.1463E+03
      9.835  0.3504E+01  0.1467E+03
      9.945  0.3501E+01  0.1470E+03
     10.055  0.3521E+01  0.1474E+03
     10.166  0.3572E+01  0.1478E+03
     10.276  0.3600E+01  0.1482E+03
     10.386  0.3593E+01  0.1486E+03
     10.496  0.3541E+01  0.1490E+03
     10.606  0.4553E+01  0.1495E+03
     10.716  0.4866E+01  0.1500E+03
     10.826  0.4980E+01  0.1505E+03
     10.936  0.4882E+01  0.1511E+03
     11.047  0.5095E+01  0.1516E+03
     11.157  0.5522E+01  0.1522E+03
     11.267  0.4887E+01  0.1528E+03
     11.377  0.4619E+01  0.1534E+03
     11.487  0.2980E+01  0.1538E+03
     11.597  0.2780E+01  0.1541E+03
     11.707  0.2383E+01  0.1544E+03
     11.818  0.2369E+01  0.1547E+03
     11.928  0.2479E+01  0.1550E+03
     12.038  0.3214E+01  0.1553E+03
     12.148  0.4116E+01  0.1557E+03
     12.258  0.5230E+01  0.1562E+03
     12.368  0.5721E+01  0.1568E+03
     12.478  0.8183E+01  0.1575E+03
     12.588  0.1047E+02  0.1586E+03
     12.699  0.1367E+02  0.1599E+03
     12.809  0.1507E+02  0.1615E+03
     12.919  0.1419E+02  0.1631E+03
     13.029  0.1078E+02  0.1646E+03
     13.139  0.8990E+01  0.1656E+03
     13.249  0.1028E+02  0.1666E+03
     13.359  0.5205E+01  0.1676E+03
     13.470  0.3924E+00  0.1679E+03
     13.580  0.2533E+00  0.1679E+03
     13.690  0.1846E+00  0.1680E+03
     13.800  0.1268E+00  0.1680E+03
     13.910  0.7982E-01  0.1680E+03
     14.020  0.4366E-01  0.1680E+03
     14.130  0.1833E-01  0.1680E+03
     14.240  0.3820E-02  0.1680E+03
     14.351  0.0000E+00  0.1680E+03
     14.461  0.0000E+00  0.1680E+03
     14.571  0.0000E+00  0.1680E+03
     14.681  0.0000E+00  0.1680E+03
     14.791  0.0000E+00  0.1680E+03
     14.901  0.0000E+00  0.1680E+03
     15.011  0.0000E+00  0.1680E+03
     15.122  0.0000E+00  0.1680E+03
     15.232  0.0000E+00  0.1680E+03
     15.342  0.0000E+00  0.1680E+03
     15.452  0.0000E+00  0.1680E+03
     15.562  0.0000E+00  0.1680E+03
     15.672  0.0000E+00  0.1680E+03
     15.782  0.0000E+00  0.1680E+03
     15.892  0.0000E+00  0.1680E+03
     16.003  0.0000E+00  0.1680E+03
     16.113  0.0000E+00  0.1680E+03
     16.223  0.0000E+00  0.1680E+03
     16.333  0.0000E+00  0.1680E+03
