 vasp.5.3.5 31Mar14 (build Nov 02 2014 15:17:37) complex                        
  
 executed on        ion-Intel-MKL date 2016.10.11  15:42:00
 running on    2 total cores
 distrk:  each k-point on    2 cores,    1 groups
 distr:  one band on NCORES_PER_BAND=   1 cores,    2 groups


--------------------------------------------------------------------------------------------------------


 INCAR:
 POTCAR:   PAW_PBE C 08Apr2002                    
 POTCAR:   PAW_PBE C 08Apr2002                    
   VRHFIN =C: s2p2                                                              
   LEXCH  = PE                                                                  
   EATOM  =   147.1560 eV,   10.8157 Ry                                         
                                                                                
   TITEL  = PAW_PBE C 08Apr2002                                                 
   LULTRA =        F    use ultrasoft PP ?                                      
   IUNSCR =        0    unscreen: 0-lin 1-nonlin 2-no                           
   RPACOR =     .000    partial core radius                                     
   POMASS =   12.011; ZVAL   =    4.000    mass and valenz                      
   RCORE  =    1.500    outmost cutoff radius                                   
   RWIGS  =    1.630; RWIGS  =     .863    wigner-seitz radius (au A)           
   ENMAX  =  400.000; ENMIN  =  300.000 eV                                      
   ICORE  =        2    local potential                                         
   LCOR   =        T    correct aug charges                                     
   LPAW   =        T    paw PP                                                  
   EAUG   =  644.873                                                            
   DEXC   =     .000                                                            
   RMAX   =    2.266    core radius for proj-oper                               
   RAUG   =    1.300    factor for augmentation sphere                          
   RDEP   =    1.501    radius for radial grids                                 
   RDEPT  =    1.300    core radius for aug-charge                              
   QCUT   =   -5.516; QGAM   =   11.032    optimization parameters              
                                                                                
   Description                                                                  
     l     E      TYP  RCUT    TYP  RCUT                                        
     0   .000     23  1.200                                                     
     0   .000     23  1.200                                                     
     1   .000     23  1.500                                                     
     1  2.500     23  1.500                                                     
     2   .000      7  1.500                                                     
  local pseudopotential read in
  atomic valenz-charges read in
  non local Contribution for L=           0  read in
    real space projection operators read in
  non local Contribution for L=           0  read in
    real space projection operators read in
  non local Contribution for L=           1  read in
    real space projection operators read in
  non local Contribution for L=           1  read in
    real space projection operators read in
    PAW grid and wavefunctions read in
 
   number of l-projection  operators is LMAX  =           4
   number of lm-projection operators is LMMAX =           8
 
 PAW_PBE C 08Apr2002                    :
 energy of atom  1       EATOM= -147.1560
 kinetic energy error for atom=    0.0057 (will be added to EATOM!!)
 
 
 POSCAR: C                                       
  positions in direct lattice
  No initial velocities read in
 exchange correlation table for  LEXCH =        8
   RHO(1)=    0.500       N(1)  =     2000
   RHO(2)=  100.500       N(2)  =     4000
 


--------------------------------------------------------------------------------------------------------


 ion  position               nearest neighbor table
   1  0.499  0.000  0.041-  11 1.42  10 1.42  12 1.43
   2  1.000  0.000  0.041-   9 1.42  12 1.42  11 1.42
   3  0.500  0.500  0.041-  12 1.42   9 1.42  10 1.42
   4  1.000  0.500  0.041-  11 1.42  10 1.42   9 1.42
   5  0.500  0.000  0.541-  14 1.42  15 1.42  16 1.42
   6  1.000  0.000  0.541-  13 1.42  16 1.42  15 1.42
   7  0.500  0.500  0.541-  16 1.42  13 1.42  14 1.42
   8  1.000  0.500  0.541-  15 1.42  14 1.42  13 1.42
   9  0.166  0.334  0.041-   2 1.42   3 1.42   4 1.42
  10  0.666  0.334  0.041-   4 1.42   1 1.42   3 1.42
  11  0.166  0.834  0.041-   1 1.42   4 1.42   2 1.42
  12  0.666  0.834  0.041-   3 1.42   2 1.42   1 1.43
  13  0.166  0.334  0.541-   6 1.42   7 1.42   8 1.42
  14  0.666  0.334  0.541-   5 1.42   8 1.42   7 1.42
  15  0.166  0.834  0.541-   8 1.42   5 1.42   6 1.42
  16  0.666  0.834  0.541-   7 1.42   6 1.42   5 1.42
 
  LATTYP: Found a base centered orthorhombic cell.
 ALAT       =     4.9295499439
 B/A-ratio  =     1.7336082085
 C/A-ratio  =     8.1143310150
  
  Lattice vectors:
  
 A1 = (   4.9328746796,   0.0000000000,   0.0000000000)
 A2 = (  -2.4697609550,   4.2700741714,   0.0000000000)
 A3 = (   0.0000000000,   0.0000000000,  40.0000000000)


Analysis of symmetry for initial positions (statically):
=====================================================================
 Subroutine PRICEL returns:
 Original cell was already a primitive cell.
 

 Routine SETGRP: Setting up the symmetry group for a 
 base centered orthorhombic supercell.


 Subroutine GETGRP returns: Found  1 space group operations
 (whereof  1 operations were pure point group operations)
 out of a pool of  8 trial point group operations.


The static configuration has the point symmetry C_1 .


Analysis of symmetry for dynamics (positions and initial velocities):
=====================================================================
 Subroutine PRICEL returns:
 Original cell was already a primitive cell.
 

 Routine SETGRP: Setting up the symmetry group for a 
 base centered orthorhombic supercell.


 Subroutine GETGRP returns: Found  1 space group operations
 (whereof  1 operations were pure point group operations)
 out of a pool of  8 trial point group operations.


The dynamic configuration has the point symmetry C_1 .
 
 
 KPOINTS: B4C B11C-CBC                            

Automatic generation of k-mesh.
Space group operators:
 irot       det(A)        alpha          n_x          n_y          n_z        tau_x        tau_y        tau_z
    1     1.000000     0.000000     1.000000     0.000000     0.000000     0.000000     0.000000     0.000000
 
 Subroutine IBZKPT returns following result:
 ===========================================
 
 Found     76 irreducible k-points:
 
 Following reciprocal coordinates:
            Coordinates               Weight
  0.000000  0.000000  0.000000      1.000000
  0.166667  0.000000  0.000000      2.000000
  0.333333  0.000000  0.000000      2.000000
  0.500000  0.000000  0.000000      1.000000
  0.000000  0.166667  0.000000      2.000000
  0.166667  0.166667  0.000000      2.000000
  0.333333  0.166667  0.000000      2.000000
  0.500000  0.166667  0.000000      2.000000
 -0.333333  0.166667  0.000000      2.000000
 -0.166667  0.166667  0.000000      2.000000
  0.000000  0.333333  0.000000      2.000000
  0.166667  0.333333  0.000000      2.000000
  0.333333  0.333333  0.000000      2.000000
  0.500000  0.333333  0.000000      2.000000
 -0.333333  0.333333  0.000000      2.000000
 -0.166667  0.333333  0.000000      2.000000
  0.000000  0.500000  0.000000      1.000000
  0.166667  0.500000  0.000000      2.000000
  0.333333  0.500000  0.000000      2.000000
  0.500000  0.500000  0.000000      1.000000
  0.000000  0.000000  0.250000      2.000000
  0.166667  0.000000  0.250000      2.000000
  0.333333  0.000000  0.250000      2.000000
  0.500000  0.000000  0.250000      2.000000
 -0.333333 -0.000000  0.250000      2.000000
 -0.166667 -0.000000  0.250000      2.000000
  0.000000  0.166667  0.250000      2.000000
  0.166667  0.166667  0.250000      2.000000
  0.333333  0.166667  0.250000      2.000000
  0.500000  0.166667  0.250000      2.000000
 -0.333333  0.166667  0.250000      2.000000
 -0.166667  0.166667  0.250000      2.000000
  0.000000  0.333333  0.250000      2.000000
  0.166667  0.333333  0.250000      2.000000
  0.333333  0.333333  0.250000      2.000000
  0.500000  0.333333  0.250000      2.000000
 -0.333333  0.333333  0.250000      2.000000
 -0.166667  0.333333  0.250000      2.000000
  0.000000  0.500000  0.250000      2.000000
  0.166667  0.500000  0.250000      2.000000
  0.333333  0.500000  0.250000      2.000000
  0.500000  0.500000  0.250000      2.000000
 -0.333333  0.500000  0.250000      2.000000
 -0.166667  0.500000  0.250000      2.000000
  0.000000 -0.333333  0.250000      2.000000
  0.166667 -0.333333  0.250000      2.000000
  0.333333 -0.333333  0.250000      2.000000
  0.500000 -0.333333  0.250000      2.000000
 -0.333333 -0.333333  0.250000      2.000000
 -0.166667 -0.333333  0.250000      2.000000
  0.000000 -0.166667  0.250000      2.000000
  0.166667 -0.166667  0.250000      2.000000
  0.333333 -0.166667  0.250000      2.000000
  0.500000 -0.166667  0.250000      2.000000
 -0.333333 -0.166667  0.250000      2.000000
 -0.166667 -0.166667  0.250000      2.000000
  0.000000  0.000000  0.500000      1.000000
  0.166667  0.000000  0.500000      2.000000
  0.333333  0.000000  0.500000      2.000000
  0.500000  0.000000  0.500000      1.000000
  0.000000  0.166667  0.500000      2.000000
  0.166667  0.166667  0.500000      2.000000
  0.333333  0.166667  0.500000      2.000000
  0.500000  0.166667  0.500000      2.000000
 -0.333333  0.166667  0.500000      2.000000
 -0.166667  0.166667  0.500000      2.000000
  0.000000  0.333333  0.500000      2.000000
  0.166667  0.333333  0.500000      2.000000
  0.333333  0.333333  0.500000      2.000000
  0.500000  0.333333  0.500000      2.000000
 -0.333333  0.333333  0.500000      2.000000
 -0.166667  0.333333  0.500000      2.000000
  0.000000  0.500000  0.500000      1.000000
  0.166667  0.500000  0.500000      2.000000
  0.333333  0.500000  0.500000      2.000000
  0.500000  0.500000  0.500000      1.000000
 
 Following cartesian coordinates:
            Coordinates               Weight
  0.000000  0.000000  0.000000      1.000000
  0.033787  0.019542  0.000000      2.000000
  0.067574  0.039084  0.000000      2.000000
  0.101361  0.058626  0.000000      1.000000
  0.000000  0.039031  0.000000      2.000000
  0.033787  0.058573  0.000000      2.000000
  0.067574  0.078115  0.000000      2.000000
  0.101361  0.097657  0.000000      2.000000
 -0.067574 -0.000053  0.000000      2.000000
 -0.033787  0.019489  0.000000      2.000000
  0.000000  0.078063  0.000000      2.000000
  0.033787  0.097605  0.000000      2.000000
  0.067574  0.117147  0.000000      2.000000
  0.101361  0.136689  0.000000      2.000000
 -0.067574  0.038979  0.000000      2.000000
 -0.033787  0.058521  0.000000      2.000000
  0.000000  0.117094  0.000000      1.000000
  0.033787  0.136636  0.000000      2.000000
  0.067574  0.156178  0.000000      2.000000
  0.101361  0.175720  0.000000      1.000000
  0.000000  0.000000  0.006250      2.000000
  0.033787  0.019542  0.006250      2.000000
  0.067574  0.039084  0.006250      2.000000
  0.101361  0.058626  0.006250      2.000000
 -0.067574 -0.039084  0.006250      2.000000
 -0.033787 -0.019542  0.006250      2.000000
  0.000000  0.039031  0.006250      2.000000
  0.033787  0.058573  0.006250      2.000000
  0.067574  0.078115  0.006250      2.000000
  0.101361  0.097657  0.006250      2.000000
 -0.067574 -0.000053  0.006250      2.000000
 -0.033787  0.019489  0.006250      2.000000
  0.000000  0.078063  0.006250      2.000000
  0.033787  0.097605  0.006250      2.000000
  0.067574  0.117147  0.006250      2.000000
  0.101361  0.136689  0.006250      2.000000
 -0.067574  0.038979  0.006250      2.000000
 -0.033787  0.058521  0.006250      2.000000
  0.000000  0.117094  0.006250      2.000000
  0.033787  0.136636  0.006250      2.000000
  0.067574  0.156178  0.006250      2.000000
  0.101361  0.175720  0.006250      2.000000
 -0.067574  0.078010  0.006250      2.000000
 -0.033787  0.097552  0.006250      2.000000
  0.000000 -0.078063  0.006250      2.000000
  0.033787 -0.058521  0.006250      2.000000
  0.067574 -0.038979  0.006250      2.000000
  0.101361 -0.019437  0.006250      2.000000
 -0.067574 -0.117147  0.006250      2.000000
 -0.033787 -0.097605  0.006250      2.000000
  0.000000 -0.039031  0.006250      2.000000
  0.033787 -0.019489  0.006250      2.000000
  0.067574  0.000053  0.006250      2.000000
  0.101361  0.019595  0.006250      2.000000
 -0.067574 -0.078115  0.006250      2.000000
 -0.033787 -0.058573  0.006250      2.000000
  0.000000  0.000000  0.012500      1.000000
  0.033787  0.019542  0.012500      2.000000
  0.067574  0.039084  0.012500      2.000000
  0.101361  0.058626  0.012500      1.000000
  0.000000  0.039031  0.012500      2.000000
  0.033787  0.058573  0.012500      2.000000
  0.067574  0.078115  0.012500      2.000000
  0.101361  0.097657  0.012500      2.000000
 -0.067574 -0.000053  0.012500      2.000000
 -0.033787  0.019489  0.012500      2.000000
  0.000000  0.078063  0.012500      2.000000
  0.033787  0.097605  0.012500      2.000000
  0.067574  0.117147  0.012500      2.000000
  0.101361  0.136689  0.012500      2.000000
 -0.067574  0.038979  0.012500      2.000000
 -0.033787  0.058521  0.012500      2.000000
  0.000000  0.117094  0.012500      1.000000
  0.033787  0.136636  0.012500      2.000000
  0.067574  0.156178  0.012500      2.000000
  0.101361  0.175720  0.012500      1.000000
 
 TETIRR: Found    432 inequivalent tetrahedra from      864


--------------------------------------------------------------------------------------------------------




 Dimension of arrays:
   k-points           NKPTS =     76   k-points in BZ     NKDIM =     76   number of bands    NBANDS=     42
   number of dos      NEDOS =    301   number of ions     NIONS =     16
   non local maximal  LDIM  =      4   non local SUM 2l+1 LMDIM =      8
   total plane-waves  NPLWV = 512000
   max r-space proj   IRMAX =      1   max aug-charges    IRDMAX=   7370
   dimension x,y,z NGX =    40 NGY =   40 NGZ =  320
   dimension x,y,z NGXF=    80 NGYF=   80 NGZF=  640
   support grid    NGXF=    80 NGYF=   80 NGZF=  640
   ions per type =              16
 NGX,Y,Z   is equivalent  to a cutoff of  13.48, 13.48, 13.30 a.u.
 NGXF,Y,Z  is equivalent  to a cutoff of  26.96, 26.96, 26.60 a.u.


 I would recommend the setting:
   dimension x,y,z NGX =    39 NGY =   39 NGZ =  320
 SYSTEM =  graphite                                
 POSCAR =  C                                       

 Startparameter for this run:
   NWRITE =      2    write-flag & timer
   PREC   = accura    normal or accurate (medium, high low for compatibility)
   ISTART =      0    job   : 0-new  1-cont  2-samecut
   ICHARG =      2    charge: 1-file 2-atom 10-const
   ISPIN  =      1    spin polarized calculation?
   LNONCOLLINEAR =      F non collinear calculations
   LSORBIT =      F    spin-orbit coupling
   INIWAV =      1    electr: 0-lowe 1-rand  2-diag
   LASPH  =      F    aspherical Exc in radial PAW
   METAGGA=      F    non-selfconsistent MetaGGA calc.

 Electronic Relaxation 1
   ENCUT  =  600.0 eV  44.10 Ry    6.64 a.u.   9.85  9.85 79.89*2*pi/ulx,y,z
   ENINI  =  600.0     initial cutoff
   ENAUG  =  644.9 eV  augmentation charge cutoff
   NELM   =    200;   NELMIN=  2; NELMDL=  0     # of ELM steps 
   EDIFF  = 0.1E-05   stopping-criterion for ELM
   LREAL  =      F    real-space projection
   NLSPLINE    = F    spline interpolate recip. space projectors
   LCOMPAT=      F    compatible to vasp.4.4
   GGA_COMPAT  = T    GGA compatible to vasp.4.4-vasp.4.6
   LMAXPAW     = -100 max onsite density
   LMAXMIX     =    2 max onsite mixed and CHGCAR
   VOSKOWN=      0    Vosko Wilk Nusair interpolation
   ROPT   =    0.00000
 Ionic relaxation
   EDIFFG = 0.1E-02   stopping-criterion for IOM
   NSW    =      0    number of steps for IOM
   NBLOCK =      1;   KBLOCK =      1    inner block; outer block 
   IBRION =     -1    ionic relax: 0-MD 1-quasi-New 2-CG
   NFREE  =      0    steps in history (QN), initial steepest desc. (CG)
   ISIF   =      2    stress and relaxation
   IWAVPR =     10    prediction:  0-non 1-charg 2-wave 3-comb
   ISYM   =      2    0-nonsym 1-usesym 2-fastsym
   LCORR  =      T    Harris-Foulkes like correction to forces

   POTIM  = 0.5000    time-step for ionic-motion
   TEIN   =    0.0    initial temperature
   TEBEG  =    0.0;   TEEND  =   0.0 temperature during run
   SMASS  =  -3.00    Nose mass-parameter (am)
   estimated Nose-frequenzy (Omega)   =  0.10E-29 period in steps =****** mass=  -0.556E-27a.u.
   SCALEE = 1.0000    scale energy and forces
   NPACO  =    256;   APACO  = 16.0  distance and # of slots for P.C.
   PSTRESS=    0.0 pullay stress

  Mass of Ions in am
   POMASS =  12.01
  Ionic Valenz
   ZVAL   =   4.00
  Atomic Wigner-Seitz radii
   RWIGS  =  -1.00
  virtual crystal weights 
   VCA    =   1.00
   NELECT =      64.0000    total number of electrons
   NUPDOWN=      -1.0000    fix difference up-down

 DOS related values:
   EMIN   =  10.00;   EMAX   =-10.00  energy-range for DOS
   EFERMI =   0.00
   ISMEAR =    -5;   SIGMA  =   0.20  broadening in eV -4-tet -1-fermi 0-gaus

 Electronic relaxation 2 (details)
   IALGO  =     38    algorithm
   LDIAG  =      T    sub-space diagonalisation (order eigenvalues)
   LSUBROT=      F    optimize rotation matrix (better conditioning)
   TURBO    =      0    0=normal 1=particle mesh
   IRESTART =      0    0=no restart 2=restart with 2 vectors
   NREBOOT  =      0    no. of reboots
   NMIN     =      0    reboot dimension
   EREF     =   0.00    reference energy to select bands
   IMIX   =      4    mixing-type and parameters
     AMIX     =   0.40;   BMIX     =  1.00
     AMIX_MAG =   1.60;   BMIX_MAG =  1.00
     AMIN     =   0.10
     WC   =   100.;   INIMIX=   1;  MIXPRE=   1;  MAXMIX= -45

 Intra band minimization:
   WEIMIN = 0.0000     energy-eigenvalue tresh-hold
   EBREAK =  0.60E-08  absolut break condition
   DEPER  =   0.30     relativ break condition  

   TIME   =   0.40     timestep for ELM

  volume/ion in A,a.u.               =      52.66       355.36
  Fermi-wavevector in a.u.,A,eV,Ry     =   0.693324  1.310193  6.540298  0.480698
  Thomas-Fermi vector in A             =   1.775506
 
 Write flags
   LWAVE  =      F    write WAVECAR
   LCHARG =      F    write CHGCAR
   LVTOT  =      F    write LOCPOT, total local potential
   LVHAR  =      F    write LOCPOT, Hartree potential only
   LELF   =      F    write electronic localiz. function (ELF)
   LORBIT =      0    0 simple, 1 ext, 2 COOP (PROOUT)


 Dipole corrections
   LMONO  =      F    monopole corrections only (constant potential shift)
   LDIPOL =      F    correct potential (dipole corrections)
   IDIPOL =      0    1-x, 2-y, 3-z, 4-all directions 
   EPSILON=  1.0000000 bulk dielectric constant

 Exchange correlation treatment:
   GGA     =    PE    GGA type
   LEXCH   =     8    internal setting for exchange type
   VOSKOWN=      0    Vosko Wilk Nusair interpolation
   LHFCALC =     F    Hartree Fock is set to
   LHFONE  =     F    Hartree Fock one center treatment
   AEXX    =    0.0000 exact exchange contribution

 Linear response parameters
   LEPSILON=     F    determine dielectric tensor
   LRPA    =     F    only Hartree local field effects (RPA)
   LNABLA  =     F    use nabla operator in PAW spheres
   LVEL    =     F    velocity operator in full k-point grid
   LINTERFAST=   F  fast interpolation
   KINTER  =     0    interpolate to denser k-point grid
   CSHIFT  =0.1000    complex shift for real part using Kramers Kronig
   OMEGAMAX=  -1.0    maximum frequency
   DEG_THRESHOLD= 0.2000000E-02 threshold for treating states as degnerate
   RTIME   =    0.100 relaxation time in fs

 Orbital magnetization related:
   ORBITALMAG=     F  switch on orbital magnetization
   LCHIMAG   =     F  perturbation theory with respect to B field
   DQ        =  0.001000  dq finite difference perturbation B field



--------------------------------------------------------------------------------------------------------


 Static calculation
 charge density and potential will be updated during run
 non-spin polarized calculation
 Variant of blocked Davidson
 Davidson routine will perform the subspace rotation
 perform sub-space diagonalisation
    after iterative eigenvector-optimisation
 modified Broyden-mixing scheme, WC =      100.0
 initial mixing is a Kerker type mixing with AMIX =  0.4000 and BMIX =      1.0000
 Hartree-type preconditioning will be used
 using additional bands           10
 reciprocal scheme for non local part
 calculate Harris-corrections to forces 
   (improved forces if not selfconsistent)
 use gradient corrections 
 use of overlap-Matrix (Vanderbilt PP)
 Fermi weights with tetrahedron method with Bloechl corrections


--------------------------------------------------------------------------------------------------------


  energy-cutoff  :      600.00
  volume of cell :      842.55
      direct lattice vectors                 reciprocal lattice vectors
     4.932874680  0.000000000  0.000000000     0.202721550  0.117251773  0.000000000
    -2.469760955  4.270074171  0.000000000     0.000000000  0.234187970  0.000000000
     0.000000000  0.000000000 40.000000000     0.000000000  0.000000000  0.025000000

  length of vectors
     4.932874680  4.932874680 40.000000000     0.234187970  0.234187970  0.025000000


 
 k-points in units of 2pi/SCALE and weight: B4C B11C-CBC                            
   0.00000000  0.00000000  0.00000000       0.007
   0.03378692  0.01954196  0.00000000       0.014
   0.06757385  0.03908392  0.00000000       0.014
   0.10136077  0.05862589  0.00000000       0.007
   0.00000000  0.03903133  0.00000000       0.014
   0.03378692  0.05857329  0.00000000       0.014
   0.06757385  0.07811525  0.00000000       0.014
   0.10136077  0.09765721  0.00000000       0.014
  -0.06757385 -0.00005260  0.00000000       0.014
  -0.03378692  0.01948937  0.00000000       0.014
   0.00000000  0.07806266  0.00000000       0.014
   0.03378692  0.09760462  0.00000000       0.014
   0.06757385  0.11714658  0.00000000       0.014
   0.10136077  0.13668854  0.00000000       0.014
  -0.06757385  0.03897873  0.00000000       0.014
  -0.03378692  0.05852069  0.00000000       0.014
   0.00000000  0.11709398  0.00000000       0.007
   0.03378692  0.13663595  0.00000000       0.014
   0.06757385  0.15617791  0.00000000       0.014
   0.10136077  0.17571987  0.00000000       0.007
   0.00000000  0.00000000  0.00625000       0.014
   0.03378692  0.01954196  0.00625000       0.014
   0.06757385  0.03908392  0.00625000       0.014
   0.10136077  0.05862589  0.00625000       0.014
  -0.06757385 -0.03908392  0.00625000       0.014
  -0.03378692 -0.01954196  0.00625000       0.014
   0.00000000  0.03903133  0.00625000       0.014
   0.03378692  0.05857329  0.00625000       0.014
   0.06757385  0.07811525  0.00625000       0.014
   0.10136077  0.09765721  0.00625000       0.014
  -0.06757385 -0.00005260  0.00625000       0.014
  -0.03378692  0.01948937  0.00625000       0.014
   0.00000000  0.07806266  0.00625000       0.014
   0.03378692  0.09760462  0.00625000       0.014
   0.06757385  0.11714658  0.00625000       0.014
   0.10136077  0.13668854  0.00625000       0.014
  -0.06757385  0.03897873  0.00625000       0.014
  -0.03378692  0.05852069  0.00625000       0.014
   0.00000000  0.11709398  0.00625000       0.014
   0.03378692  0.13663595  0.00625000       0.014
   0.06757385  0.15617791  0.00625000       0.014
   0.10136077  0.17571987  0.00625000       0.014
  -0.06757385  0.07801006  0.00625000       0.014
  -0.03378692  0.09755202  0.00625000       0.014
   0.00000000 -0.07806266  0.00625000       0.014
   0.03378692 -0.05852069  0.00625000       0.014
   0.06757385 -0.03897873  0.00625000       0.014
   0.10136077 -0.01943677  0.00625000       0.014
  -0.06757385 -0.11714658  0.00625000       0.014
  -0.03378692 -0.09760462  0.00625000       0.014
   0.00000000 -0.03903133  0.00625000       0.014
   0.03378692 -0.01948937  0.00625000       0.014
   0.06757385  0.00005260  0.00625000       0.014
   0.10136077  0.01959456  0.00625000       0.014
  -0.06757385 -0.07811525  0.00625000       0.014
  -0.03378692 -0.05857329  0.00625000       0.014
   0.00000000  0.00000000  0.01250000       0.007
   0.03378692  0.01954196  0.01250000       0.014
   0.06757385  0.03908392  0.01250000       0.014
   0.10136077  0.05862589  0.01250000       0.007
   0.00000000  0.03903133  0.01250000       0.014
   0.03378692  0.05857329  0.01250000       0.014
   0.06757385  0.07811525  0.01250000       0.014
   0.10136077  0.09765721  0.01250000       0.014
  -0.06757385 -0.00005260  0.01250000       0.014
  -0.03378692  0.01948937  0.01250000       0.014
   0.00000000  0.07806266  0.01250000       0.014
   0.03378692  0.09760462  0.01250000       0.014
   0.06757385  0.11714658  0.01250000       0.014
   0.10136077  0.13668854  0.01250000       0.014
  -0.06757385  0.03897873  0.01250000       0.014
  -0.03378692  0.05852069  0.01250000       0.014
   0.00000000  0.11709398  0.01250000       0.007
   0.03378692  0.13663595  0.01250000       0.014
   0.06757385  0.15617791  0.01250000       0.014
   0.10136077  0.17571987  0.01250000       0.007
 
 k-points in reciprocal lattice and weights: B4C B11C-CBC                            
   0.00000000  0.00000000  0.00000000       0.007
   0.16666667  0.00000000  0.00000000       0.014
   0.33333333  0.00000000  0.00000000       0.014
   0.50000000  0.00000000  0.00000000       0.007
   0.00000000  0.16666667  0.00000000       0.014
   0.16666667  0.16666667  0.00000000       0.014
   0.33333333  0.16666667  0.00000000       0.014
   0.50000000  0.16666667  0.00000000       0.014
  -0.33333333  0.16666667  0.00000000       0.014
  -0.16666667  0.16666667  0.00000000       0.014
   0.00000000  0.33333333  0.00000000       0.014
   0.16666667  0.33333333  0.00000000       0.014
   0.33333333  0.33333333  0.00000000       0.014
   0.50000000  0.33333333  0.00000000       0.014
  -0.33333333  0.33333333  0.00000000       0.014
  -0.16666667  0.33333333  0.00000000       0.014
   0.00000000  0.50000000  0.00000000       0.007
   0.16666667  0.50000000  0.00000000       0.014
   0.33333333  0.50000000  0.00000000       0.014
   0.50000000  0.50000000  0.00000000       0.007
   0.00000000  0.00000000  0.25000000       0.014
   0.16666667  0.00000000  0.25000000       0.014
   0.33333333  0.00000000  0.25000000       0.014
   0.50000000  0.00000000  0.25000000       0.014
  -0.33333333 -0.00000000  0.25000000       0.014
  -0.16666667 -0.00000000  0.25000000       0.014
   0.00000000  0.16666667  0.25000000       0.014
   0.16666667  0.16666667  0.25000000       0.014
   0.33333333  0.16666667  0.25000000       0.014
   0.50000000  0.16666667  0.25000000       0.014
  -0.33333333  0.16666667  0.25000000       0.014
  -0.16666667  0.16666667  0.25000000       0.014
   0.00000000  0.33333333  0.25000000       0.014
   0.16666667  0.33333333  0.25000000       0.014
   0.33333333  0.33333333  0.25000000       0.014
   0.50000000  0.33333333  0.25000000       0.014
  -0.33333333  0.33333333  0.25000000       0.014
  -0.16666667  0.33333333  0.25000000       0.014
   0.00000000  0.50000000  0.25000000       0.014
   0.16666667  0.50000000  0.25000000       0.014
   0.33333333  0.50000000  0.25000000       0.014
   0.50000000  0.50000000  0.25000000       0.014
  -0.33333333  0.50000000  0.25000000       0.014
  -0.16666667  0.50000000  0.25000000       0.014
   0.00000000 -0.33333333  0.25000000       0.014
   0.16666667 -0.33333333  0.25000000       0.014
   0.33333333 -0.33333333  0.25000000       0.014
   0.50000000 -0.33333333  0.25000000       0.014
  -0.33333333 -0.33333333  0.25000000       0.014
  -0.16666667 -0.33333333  0.25000000       0.014
   0.00000000 -0.16666667  0.25000000       0.014
   0.16666667 -0.16666667  0.25000000       0.014
   0.33333333 -0.16666667  0.25000000       0.014
   0.50000000 -0.16666667  0.25000000       0.014
  -0.33333333 -0.16666667  0.25000000       0.014
  -0.16666667 -0.16666667  0.25000000       0.014
   0.00000000  0.00000000  0.50000000       0.007
   0.16666667  0.00000000  0.50000000       0.014
   0.33333333  0.00000000  0.50000000       0.014
   0.50000000  0.00000000  0.50000000       0.007
   0.00000000  0.16666667  0.50000000       0.014
   0.16666667  0.16666667  0.50000000       0.014
   0.33333333  0.16666667  0.50000000       0.014
   0.50000000  0.16666667  0.50000000       0.014
  -0.33333333  0.16666667  0.50000000       0.014
  -0.16666667  0.16666667  0.50000000       0.014
   0.00000000  0.33333333  0.50000000       0.014
   0.16666667  0.33333333  0.50000000       0.014
   0.33333333  0.33333333  0.50000000       0.014
   0.50000000  0.33333333  0.50000000       0.014
  -0.33333333  0.33333333  0.50000000       0.014
  -0.16666667  0.33333333  0.50000000       0.014
   0.00000000  0.50000000  0.50000000       0.007
   0.16666667  0.50000000  0.50000000       0.014
   0.33333333  0.50000000  0.50000000       0.014
   0.50000000  0.50000000  0.50000000       0.007
 
 position of ions in fractional coordinates (direct lattice) 
   0.49942519  0.00032672  0.04120032
   0.99967331  0.00032672  0.04144844
   0.49967331  0.50032672  0.04144844
   0.99967331  0.50032672  0.04144844
   0.49967331  0.00032672  0.54144844
   0.99967331  0.00032672  0.54144844
   0.49967331  0.50032672  0.54144844
   0.99967331  0.50032672  0.54144844
   0.16629246  0.33370754  0.04144844
   0.66629246  0.33370754  0.04144844
   0.16629246  0.83370754  0.04144844
   0.66629246  0.83370754  0.04144844
   0.16629246  0.33370754  0.54144844
   0.66629246  0.33370754  0.54144844
   0.16629246  0.83370754  0.54144844
   0.66629246  0.83370754  0.54144844
 
 position of ions in cartesian coordinates  (Angst):
   2.46279494  0.00139511  1.64801283
   4.93045623  0.00139511  1.65793765
   1.22913841  2.13643220  1.65793765
   3.69557575  2.13643220  1.65793765
   2.46401889  0.00139511 21.65793765
   4.93045623  0.00139511 21.65793765
   1.22913841  2.13643220 21.65793765
   3.69557575  2.13643220 21.65793765
  -0.00387800  1.42495595  1.65793765
   2.46255934  1.42495595  1.65793765
  -1.23875847  3.55999304  1.65793765
   1.22767887  3.55999304  1.65793765
  -0.00387800  1.42495595 21.65793765
   2.46255934  1.42495595 21.65793765
  -1.23875847  3.55999304 21.65793765
   1.22767887  3.55999304 21.65793765
 


--------------------------------------------------------------------------------------------------------


 k-point  1 :   0.0000 0.0000 0.0000  plane waves:   27951
 k-point  2 :   0.1667 0.0000 0.0000  plane waves:   28063
 k-point  3 :   0.3333 0.0000 0.0000  plane waves:   28153
 k-point  4 :   0.5000 0.0000 0.0000  plane waves:   28162
 k-point  5 :   0.0000 0.1667 0.0000  plane waves:   28063
 k-point  6 :   0.1667 0.1667 0.0000  plane waves:   28108
 k-point  7 :   0.3333 0.1667 0.0000  plane waves:   28137
 k-point  8 :   0.5000 0.1667 0.0000  plane waves:   28145
 k-point  9 :  -0.3333 0.1667 0.0000  plane waves:   28122
 k-point 10 :  -0.1667 0.1667 0.0000  plane waves:   28069
 k-point 11 :   0.0000 0.3333 0.0000  plane waves:   28153
 k-point 12 :   0.1667 0.3333 0.0000  plane waves:   28137
 k-point 13 :   0.3333 0.3333 0.0000  plane waves:   28136
 k-point 14 :   0.5000 0.3333 0.0000  plane waves:   28143
 k-point 15 :  -0.3333 0.3333 0.0000  plane waves:   28159
 k-point 16 :  -0.1667 0.3333 0.0000  plane waves:   28122
 k-point 17 :   0.0000 0.5000 0.0000  plane waves:   28162
 k-point 18 :   0.1667 0.5000 0.0000  plane waves:   28145
 k-point 19 :   0.3333 0.5000 0.0000  plane waves:   28143
 k-point 20 :   0.5000 0.5000 0.0000  plane waves:   28164
 k-point 21 :   0.0000 0.0000 0.2500  plane waves:   27926
 k-point 22 :   0.1667 0.0000 0.2500  plane waves:   28081
 k-point 23 :   0.3333 0.0000 0.2500  plane waves:   28146
 k-point 24 :   0.5000 0.0000 0.2500  plane waves:   28148
 k-point 25 :  -0.3333-0.0000 0.2500  plane waves:   28146
 k-point 26 :  -0.1667-0.0000 0.2500  plane waves:   28081
 k-point 27 :   0.0000 0.1667 0.2500  plane waves:   28081
 k-point 28 :   0.1667 0.1667 0.2500  plane waves:   28089
 k-point 29 :   0.3333 0.1667 0.2500  plane waves:   28134
 k-point 30 :   0.5000 0.1667 0.2500  plane waves:   28131
 k-point 31 :  -0.3333 0.1667 0.2500  plane waves:   28092
 k-point 32 :  -0.1667 0.1667 0.2500  plane waves:   28081
 k-point 33 :   0.0000 0.3333 0.2500  plane waves:   28146
 k-point 34 :   0.1667 0.3333 0.2500  plane waves:   28134
 k-point 35 :   0.3333 0.3333 0.2500  plane waves:   28148
 k-point 36 :   0.5000 0.3333 0.2500  plane waves:   28124
 k-point 37 :  -0.3333 0.3333 0.2500  plane waves:   28150
 k-point 38 :  -0.1667 0.3333 0.2500  plane waves:   28092
 k-point 39 :   0.0000 0.5000 0.2500  plane waves:   28148
 k-point 40 :   0.1667 0.5000 0.2500  plane waves:   28131
 k-point 41 :   0.3333 0.5000 0.2500  plane waves:   28124
 k-point 42 :   0.5000 0.5000 0.2500  plane waves:   28152
 k-point 43 :  -0.3333 0.5000 0.2500  plane waves:   28124
 k-point 44 :  -0.1667 0.5000 0.2500  plane waves:   28131
 k-point 45 :   0.0000-0.3333 0.2500  plane waves:   28146
 k-point 46 :   0.1667-0.3333 0.2500  plane waves:   28092
 k-point 47 :   0.3333-0.3333 0.2500  plane waves:   28150
 k-point 48 :   0.5000-0.3333 0.2500  plane waves:   28124
 k-point 49 :  -0.3333-0.3333 0.2500  plane waves:   28148
 k-point 50 :  -0.1667-0.3333 0.2500  plane waves:   28134
 k-point 51 :   0.0000-0.1667 0.2500  plane waves:   28081
 k-point 52 :   0.1667-0.1667 0.2500  plane waves:   28081
 k-point 53 :   0.3333-0.1667 0.2500  plane waves:   28092
 k-point 54 :   0.5000-0.1667 0.2500  plane waves:   28131
 k-point 55 :  -0.3333-0.1667 0.2500  plane waves:   28134
 k-point 56 :  -0.1667-0.1667 0.2500  plane waves:   28089
 k-point 57 :   0.0000 0.0000 0.5000  plane waves:   27960
 k-point 58 :   0.1667 0.0000 0.5000  plane waves:   28060
 k-point 59 :   0.3333 0.0000 0.5000  plane waves:   28162
 k-point 60 :   0.5000 0.0000 0.5000  plane waves:   28148
 k-point 61 :   0.0000 0.1667 0.5000  plane waves:   28060
 k-point 62 :   0.1667 0.1667 0.5000  plane waves:   28106
 k-point 63 :   0.3333 0.1667 0.5000  plane waves:   28124
 k-point 64 :   0.5000 0.1667 0.5000  plane waves:   28126
 k-point 65 :  -0.3333 0.1667 0.5000  plane waves:   28098
 k-point 66 :  -0.1667 0.1667 0.5000  plane waves:   28062
 k-point 67 :   0.0000 0.3333 0.5000  plane waves:   28162
 k-point 68 :   0.1667 0.3333 0.5000  plane waves:   28124
 k-point 69 :   0.3333 0.3333 0.5000  plane waves:   28170
 k-point 70 :   0.5000 0.3333 0.5000  plane waves:   28110
 k-point 71 :  -0.3333 0.3333 0.5000  plane waves:   28146
 k-point 72 :  -0.1667 0.3333 0.5000  plane waves:   28098
 k-point 73 :   0.0000 0.5000 0.5000  plane waves:   28148
 k-point 74 :   0.1667 0.5000 0.5000  plane waves:   28126
 k-point 75 :   0.3333 0.5000 0.5000  plane waves:   28110
 k-point 76 :   0.5000 0.5000 0.5000  plane waves:   28144

 maximum and minimum number of plane-waves per node :     28170    27926

 maximum number of plane-waves:     28170
 maximum index in each direction: 
   IXMAX=   10   IYMAX=   10   IZMAX=   79
   IXMIN=  -10   IYMIN=  -10   IZMIN=  -80

 WARNING: aliasing errors must be expected set NGX to  42 to avoid them
 WARNING: aliasing errors must be expected set NGY to  42 to avoid them
 NGZ is ok and might be reduce to 320
 aliasing errors are usually negligible using standard VASP settings
 and one can safely disregard these warnings

 serial   3D FFT for wavefunctions
 parallel 3D FFT for charge:
    minimum data exchange during FFTs selected (reduces bandwidth)


 total amount of memory used by VASP on root node  1086796. kBytes
========================================================================

   base      :      30000. kBytes
   nonl-proj :     144230. kBytes
   fftplans  :      70886. kBytes
   grid      :     119014. kBytes
   one-center:         49. kBytes
   wavefun   :     722617. kBytes
 
     INWAV:  cpu time    0.00: real time    0.00
 Broyden mixing: mesh for mixing (old mesh)
   NGX = 19   NGY = 19   NGZ =159
  (NGX  = 80   NGY  = 80   NGZ  =640)
  gives a total of  57399 points

 initial charge density was supplied:
 charge density of overlapping atoms calculated
 number of electron      64.0000000 magnetization 
 keeping initial charge density in first step


--------------------------------------------------------------------------------------------------------


 Maximum index for augmentation-charges         3490 (set IRDMAX)


--------------------------------------------------------------------------------------------------------


 First call to EWALD:  gamma=   0.188
 Maximum number of real-space cells 5x 5x 1
 Maximum number of reciprocal cells 2x 2x10

 FEWALD executed in parallel
    FEWALD:  cpu time    0.00: real time    0.01


----------------------------------------- Iteration    1(   1)  ---------------------------------------


    POTLOK:  cpu time    1.92: real time    3.05
    SETDIJ:  cpu time    0.02: real time    0.03
     EDDAV:  cpu time  388.58: real time  576.14
 BZINTS: Fermi energy:  7.518330; 64.000000 electrons
         Band energy:-245.498117;  BLOECHL correction: -0.235793
       DOS:  cpu time    0.05: real time    0.05
    --------------------------------------------
      LOOP:  cpu time  390.56: real time  579.26

 eigenvalue-minimisations  :  6912
 total energy-change (2. order) : 0.6348014E+03  (-0.2432428E+04)
 number of electron      64.0000000 magnetization 
 augmentation part       64.0000000 magnetization 

 Free energy of the ion-electron system (eV)
  ---------------------------------------------------
  alpha Z        PSCENC =        24.75690598
  Ewald energy   TEWEN  =     10359.33408569
  -Hartree energ DENC   =    -12060.23063012
  -exchange      EXHF   =         0.00000000
  -V(xc)+E(xc)   XCENC  =       220.44224336
  PAW double counting   =       605.30308954     -623.71076428
  entropy T*S    EENTRO =         0.00000000
  eigenvalues    EBANDS =      -245.49811703
  atomic energy  EATOM  =      2354.40460413
  ---------------------------------------------------
  free energy    TOTEN  =       634.80141726 eV

  energy without entropy =      634.80141726  energy(sigma->0) =      634.80141726


--------------------------------------------------------------------------------------------------------




----------------------------------------- Iteration    1(   2)  ---------------------------------------


     EDDAV:  cpu time  495.81: real time  737.85
 BZINTS: Fermi energy: -2.338560; 64.000000 electrons
         Band energy:-910.669186;  BLOECHL correction: -0.005043
       DOS:  cpu time    0.04: real time    0.06
    --------------------------------------------
      LOOP:  cpu time  495.85: real time  737.92

 eigenvalue-minimisations  :  9906
 total energy-change (2. order) :-0.6651711E+03  (-0.6311784E+03)
 number of electron      64.0000000 magnetization 
 augmentation part       64.0000000 magnetization 

 Free energy of the ion-electron system (eV)
  ---------------------------------------------------
  alpha Z        PSCENC =        24.75690598
  Ewald energy   TEWEN  =     10359.33408569
  -Hartree energ DENC   =    -12060.23063012
  -exchange      EXHF   =         0.00000000
  -V(xc)+E(xc)   XCENC  =       220.44224336
  PAW double counting   =       605.30308954     -623.71076428
  entropy T*S    EENTRO =         0.00000000
  eigenvalues    EBANDS =      -910.66918631
  atomic energy  EATOM  =      2354.40460413
  ---------------------------------------------------
  free energy    TOTEN  =       -30.36965202 eV

  energy without entropy =      -30.36965202  energy(sigma->0) =      -30.36965202


--------------------------------------------------------------------------------------------------------




----------------------------------------- Iteration    1(   3)  ---------------------------------------


     EDDAV:  cpu time  413.63: real time  611.20
 BZINTS: Fermi energy: -6.236904; 64.000000 electrons
         Band energy:***********;  BLOECHL correction:  0.000000
       DOS:  cpu time    0.02: real time    0.05
    --------------------------------------------
      LOOP:  cpu time  413.65: real time  611.28

 eigenvalue-minimisations  :  7466
 total energy-change (2. order) :-0.1226661E+03  (-0.1220367E+03)
 number of electron      64.0000000 magnetization 
 augmentation part       64.0000000 magnetization 

 Free energy of the ion-electron system (eV)
  ---------------------------------------------------
  alpha Z        PSCENC =        24.75690598
  Ewald energy   TEWEN  =     10359.33408569
  -Hartree energ DENC   =    -12060.23063012
  -exchange      EXHF   =         0.00000000
  -V(xc)+E(xc)   XCENC  =       220.44224336
  PAW double counting   =       605.30308954     -623.71076428
  entropy T*S    EENTRO =         0.00000000
  eigenvalues    EBANDS =     -1033.33530274
  atomic energy  EATOM  =      2354.40460413
  ---------------------------------------------------
  free energy    TOTEN  =      -153.03576844 eV

  energy without entropy =     -153.03576844  energy(sigma->0) =     -153.03576844


--------------------------------------------------------------------------------------------------------




----------------------------------------- Iteration    1(   4)  ---------------------------------------


     EDDAV:  cpu time  429.64: real time  631.67
 BZINTS: Fermi energy: -6.349037; 64.000000 electrons
         Band energy:***********;  BLOECHL correction: -0.000000
       DOS:  cpu time    0.02: real time    0.02
    --------------------------------------------
      LOOP:  cpu time  429.66: real time  631.69

 eigenvalue-minimisations  :  7982
 total energy-change (2. order) :-0.4602135E+01  (-0.4579248E+01)
 number of electron      64.0000000 magnetization 
 augmentation part       64.0000000 magnetization 

 Free energy of the ion-electron system (eV)
  ---------------------------------------------------
  alpha Z        PSCENC =        24.75690598
  Ewald energy   TEWEN  =     10359.33408569
  -Hartree energ DENC   =    -12060.23063012
  -exchange      EXHF   =         0.00000000
  -V(xc)+E(xc)   XCENC  =       220.44224336
  PAW double counting   =       605.30308954     -623.71076428
  entropy T*S    EENTRO =         0.00000000
  eigenvalues    EBANDS =     -1037.93743736
  atomic energy  EATOM  =      2354.40460413
  ---------------------------------------------------
  free energy    TOTEN  =      -157.63790306 eV

  energy without entropy =     -157.63790306  energy(sigma->0) =     -157.63790306


--------------------------------------------------------------------------------------------------------




----------------------------------------- Iteration    1(   5)  ---------------------------------------


     EDDAV:  cpu time  460.77: real time  674.11
 BZINTS: Fermi energy: -6.351598; 64.000000 electrons
         Band energy:***********;  BLOECHL correction:  0.000000
       DOS:  cpu time    0.01: real time    0.01
    CHARGE:  cpu time   16.66: real time   24.37
    MIXING:  cpu time    0.04: real time    0.04
    --------------------------------------------
      LOOP:  cpu time  477.49: real time  698.55

 eigenvalue-minimisations  :  8750
 total energy-change (2. order) :-0.1238788E+00  (-0.1236281E+00)
 number of electron      63.9999995 magnetization 
 augmentation part        1.7046037 magnetization 

 Broyden mixing:
  rms(total) = 0.15629E+01    rms(broyden)= 0.15627E+01
  rms(prec ) = 0.15991E+01
  weight for this iteration     100.00

 Free energy of the ion-electron system (eV)
  ---------------------------------------------------
  alpha Z        PSCENC =        24.75690598
  Ewald energy   TEWEN  =     10359.33408569
  -Hartree energ DENC   =    -12060.23063012
  -exchange      EXHF   =         0.00000000
  -V(xc)+E(xc)   XCENC  =       220.44224336
  PAW double counting   =       605.30308954     -623.71076428
  entropy T*S    EENTRO =         0.00000000
  eigenvalues    EBANDS =     -1038.06131619
  atomic energy  EATOM  =      2354.40460413
  ---------------------------------------------------
  free energy    TOTEN  =      -157.76178190 eV

  energy without entropy =     -157.76178190  energy(sigma->0) =     -157.76178190


--------------------------------------------------------------------------------------------------------




----------------------------------------- Iteration    1(   6)  ---------------------------------------


    POTLOK:  cpu time    1.57: real time    2.29
    SETDIJ:  cpu time    0.02: real time    0.04
     EDDAV:  cpu time  408.32: real time  596.03
 BZINTS: Fermi energy: -5.187654; 64.000000 electrons
         Band energy:-943.627186;  BLOECHL correction:  0.000000
       DOS:  cpu time    0.02: real time    0.04
    CHARGE:  cpu time   17.30: real time   26.04
    MIXING:  cpu time    0.04: real time    0.04
    --------------------------------------------
      LOOP:  cpu time  427.27: real time  624.50

 eigenvalue-minimisations  :  7370
 total energy-change (2. order) : 0.7351208E+01  (-0.6950890E+00)
 number of electron      63.9999996 magnetization 
 augmentation part        1.6336997 magnetization 

 Broyden mixing:
  rms(total) = 0.82568E+00    rms(broyden)= 0.82567E+00
  rms(prec ) = 0.84584E+00
  weight for this iteration     100.00

 eigenvalues of (default mixing * dielectric matrix)
  average eigenvalue GAMMA=   2.0482
  2.0482

 Free energy of the ion-electron system (eV)
  ---------------------------------------------------
  alpha Z        PSCENC =        24.75690598
  Ewald energy   TEWEN  =     10359.33408569
  -Hartree energ DENC   =    -12149.83146083
  -exchange      EXHF   =         0.00000000
  -V(xc)+E(xc)   XCENC  =       224.43893381
  PAW double counting   =       822.46529424     -842.35175117
  entropy T*S    EENTRO =         0.00000000
  eigenvalues    EBANDS =      -943.62718589
  atomic energy  EATOM  =      2354.40460413
  ---------------------------------------------------
  free energy    TOTEN  =      -150.41057405 eV

  energy without entropy =     -150.41057405  energy(sigma->0) =     -150.41057405


--------------------------------------------------------------------------------------------------------




----------------------------------------- Iteration    1(   7)  ---------------------------------------


    POTLOK:  cpu time    1.80: real time    2.70
    SETDIJ:  cpu time    0.02: real time    0.03
     EDDAV:  cpu time  395.03: real time  589.46
 BZINTS: Fermi energy: -3.805556; 64.000000 electrons
         Band energy:-831.154531;  BLOECHL correction:  0.000000
       DOS:  cpu time    0.01: real time    0.03
    CHARGE:  cpu time   16.83: real time   25.92
    MIXING:  cpu time    0.05: real time    0.09
    --------------------------------------------
      LOOP:  cpu time  413.75: real time  618.22

 eigenvalue-minimisations  :  7016
 total energy-change (2. order) : 0.2817401E+01  (-0.8307181E+00)
 number of electron      63.9999997 magnetization 
 augmentation part        1.5495817 magnetization 

 Broyden mixing:
  rms(total) = 0.14344E+00    rms(broyden)= 0.14335E+00
  rms(prec ) = 0.14864E+00
  weight for this iteration     100.00

 eigenvalues of (default mixing * dielectric matrix)
  average eigenvalue GAMMA=   2.2316
  2.2316  2.2316

 Free energy of the ion-electron system (eV)
  ---------------------------------------------------
  alpha Z        PSCENC =        24.75690598
  Ewald energy   TEWEN  =     10359.33408569
  -Hartree energ DENC   =    -12263.17898192
  -exchange      EXHF   =         0.00000000
  -V(xc)+E(xc)   XCENC  =       229.37794661
  PAW double counting   =      1098.58588103    -1119.71908334
  entropy T*S    EENTRO =         0.00000000
  eigenvalues    EBANDS =      -831.15453116
  atomic energy  EATOM  =      2354.40460413
  ---------------------------------------------------
  free energy    TOTEN  =      -147.59317298 eV

  energy without entropy =     -147.59317298  energy(sigma->0) =     -147.59317298


--------------------------------------------------------------------------------------------------------




----------------------------------------- Iteration    1(   8)  ---------------------------------------


    POTLOK:  cpu time    1.71: real time    2.34
    SETDIJ:  cpu time    0.06: real time    0.07
     EDDAV:  cpu time  395.91: real time  588.64
 BZINTS: Fermi energy: -3.474325; 64.000000 electrons
         Band energy:-808.504045;  BLOECHL correction:  0.000000
       DOS:  cpu time    0.01: real time    0.03
    CHARGE:  cpu time   16.50: real time   25.38
    MIXING:  cpu time    0.10: real time    0.10
    --------------------------------------------
      LOOP:  cpu time  414.30: real time  616.57

 eigenvalue-minimisations  :  7252
 total energy-change (2. order) : 0.6295492E-01  (-0.1773414E-01)
 number of electron      63.9999997 magnetization 
 augmentation part        1.5415195 magnetization 

 Broyden mixing:
  rms(total) = 0.41760E-01    rms(broyden)= 0.41737E-01
  rms(prec ) = 0.47753E-01
  weight for this iteration     100.00

 eigenvalues of (default mixing * dielectric matrix)
  average eigenvalue GAMMA=   1.6530
  2.2523  2.2523  0.4544

 Free energy of the ion-electron system (eV)
  ---------------------------------------------------
  alpha Z        PSCENC =        24.75690598
  Ewald energy   TEWEN  =     10359.33408569
  -Hartree energ DENC   =    -12286.50981358
  -exchange      EXHF   =         0.00000000
  -V(xc)+E(xc)   XCENC  =       229.66830400
  PAW double counting   =      1109.64559259    -1130.32585187
  entropy T*S    EENTRO =         0.00000000
  eigenvalues    EBANDS =      -808.50404500
  atomic energy  EATOM  =      2354.40460413
  ---------------------------------------------------
  free energy    TOTEN  =      -147.53021806 eV

  energy without entropy =     -147.53021806  energy(sigma->0) =     -147.53021806


--------------------------------------------------------------------------------------------------------




----------------------------------------- Iteration    1(   9)  ---------------------------------------


    POTLOK:  cpu time    1.56: real time    2.27
    SETDIJ:  cpu time    0.06: real time    0.07
     EDDAV:  cpu time  425.51: real time  636.85
 BZINTS: Fermi energy: -3.401978; 64.000000 electrons
         Band energy:-803.592193;  BLOECHL correction:  0.000000
       DOS:  cpu time    0.01: real time    0.02
    CHARGE:  cpu time   16.78: real time   23.99
    MIXING:  cpu time    0.07: real time    0.13
    --------------------------------------------
      LOOP:  cpu time  444.00: real time  663.34

 eigenvalue-minimisations  :  8078
 total energy-change (2. order) : 0.8490196E-02  (-0.1054880E-02)
 number of electron      63.9999997 magnetization 
 augmentation part        1.5385824 magnetization 

 Broyden mixing:
  rms(total) = 0.37106E-01    rms(broyden)= 0.37078E-01
  rms(prec ) = 0.42455E-01
  weight for this iteration     100.00

 eigenvalues of (default mixing * dielectric matrix)
  average eigenvalue GAMMA=   1.5320
  2.5967  2.0349  1.2192  0.2771

 Free energy of the ion-electron system (eV)
  ---------------------------------------------------
  alpha Z        PSCENC =        24.75690598
  Ewald energy   TEWEN  =     10359.33408569
  -Hartree energ DENC   =    -12291.51444326
  -exchange      EXHF   =         0.00000000
  -V(xc)+E(xc)   XCENC  =       229.76897997
  PAW double counting   =      1112.31027566    -1132.98994291
  entropy T*S    EENTRO =         0.00000000
  eigenvalues    EBANDS =      -803.59219312
  atomic energy  EATOM  =      2354.40460413
  ---------------------------------------------------
  free energy    TOTEN  =      -147.52172787 eV

  energy without entropy =     -147.52172787  energy(sigma->0) =     -147.52172787


--------------------------------------------------------------------------------------------------------




----------------------------------------- Iteration    1(  10)  ---------------------------------------


    POTLOK:  cpu time    1.58: real time    2.54
    SETDIJ:  cpu time    0.04: real time    0.07
     EDDAV:  cpu time  391.58: real time  588.78
 BZINTS: Fermi energy: -3.285098; 64.000000 electrons
         Band energy:-795.545740;  BLOECHL correction:  0.000000
       DOS:  cpu time    0.01: real time    0.02
    CHARGE:  cpu time   16.07: real time   24.38
    MIXING:  cpu time    0.06: real time    0.13
    --------------------------------------------
      LOOP:  cpu time  409.34: real time  615.93

 eigenvalue-minimisations  :  7246
 total energy-change (2. order) : 0.1119908E-01  (-0.5881467E-03)
 number of electron      63.9999997 magnetization 
 augmentation part        1.5368372 magnetization 

 Broyden mixing:
  rms(total) = 0.26269E-01    rms(broyden)= 0.26252E-01
  rms(prec ) = 0.31030E-01
  weight for this iteration     100.00

 eigenvalues of (default mixing * dielectric matrix)
  average eigenvalue GAMMA=   1.4002
  2.7681  1.9348  1.6774  0.3587  0.2622

 Free energy of the ion-electron system (eV)
  ---------------------------------------------------
  alpha Z        PSCENC =        24.75690598
  Ewald energy   TEWEN  =     10359.33408569
  -Hartree energ DENC   =    -12299.69624943
  -exchange      EXHF   =         0.00000000
  -V(xc)+E(xc)   XCENC  =       229.91237350
  PAW double counting   =      1115.05853270    -1135.73504169
  entropy T*S    EENTRO =         0.00000000
  eigenvalues    EBANDS =      -795.54573966
  atomic energy  EATOM  =      2354.40460413
  ---------------------------------------------------
  free energy    TOTEN  =      -147.51052879 eV

  energy without entropy =     -147.51052879  energy(sigma->0) =     -147.51052879


--------------------------------------------------------------------------------------------------------




----------------------------------------- Iteration    1(  11)  ---------------------------------------


    POTLOK:  cpu time    1.55: real time    2.43
    SETDIJ:  cpu time    0.06: real time    0.06
     EDDAV:  cpu time  413.35: real time  622.38
 BZINTS: Fermi energy: -3.201566; 64.000000 electrons
         Band energy:-790.129699;  BLOECHL correction:  0.000000
       DOS:  cpu time    0.02: real time    0.03
    CHARGE:  cpu time   16.34: real time   24.64
    MIXING:  cpu time    0.05: real time    0.09
    --------------------------------------------
      LOOP:  cpu time  431.37: real time  649.65

 eigenvalue-minimisations  :  7506
 total energy-change (2. order) : 0.4481005E-02  (-0.2074286E-03)
 number of electron      63.9999997 magnetization 
 augmentation part        1.5359382 magnetization 

 Broyden mixing:
  rms(total) = 0.27496E-01    rms(broyden)= 0.27475E-01
  rms(prec ) = 0.30997E-01
  weight for this iteration     100.00

 eigenvalues of (default mixing * dielectric matrix)
  average eigenvalue GAMMA=   1.4495
  3.0585  2.2937  1.9393  0.8879  0.2978  0.2201

 Free energy of the ion-electron system (eV)
  ---------------------------------------------------
  alpha Z        PSCENC =        24.75690598
  Ewald energy   TEWEN  =     10359.33408569
  -Hartree energ DENC   =    -12305.18187360
  -exchange      EXHF   =         0.00000000
  -V(xc)+E(xc)   XCENC  =       229.98226005
  PAW double counting   =      1115.02493972    -1135.69727029
  entropy T*S    EENTRO =         0.00000000
  eigenvalues    EBANDS =      -790.12969946
  atomic energy  EATOM  =      2354.40460413
  ---------------------------------------------------
  free energy    TOTEN  =      -147.50604778 eV

  energy without entropy =     -147.50604778  energy(sigma->0) =     -147.50604778


--------------------------------------------------------------------------------------------------------




----------------------------------------- Iteration    1(  12)  ---------------------------------------


    POTLOK:  cpu time    1.58: real time    2.39
    SETDIJ:  cpu time    0.02: real time    0.03
     EDDAV:  cpu time  374.63: real time  557.52
 BZINTS: Fermi energy: -3.021058; 64.000000 electrons
         Band energy:-778.200861;  BLOECHL correction:  0.000000
       DOS:  cpu time    0.01: real time    0.01
    CHARGE:  cpu time   15.67: real time   23.67
    MIXING:  cpu time    0.06: real time    0.10
    --------------------------------------------
      LOOP:  cpu time  391.98: real time  583.73

 eigenvalue-minimisations  :  6786
 total energy-change (2. order) : 0.3463569E-02  (-0.4337355E-03)
 number of electron      63.9999997 magnetization 
 augmentation part        1.5351756 magnetization 

 Broyden mixing:
  rms(total) = 0.12596E-01    rms(broyden)= 0.12576E-01
  rms(prec ) = 0.15114E-01
  weight for this iteration     100.00

 eigenvalues of (default mixing * dielectric matrix)
  average eigenvalue GAMMA=   1.7089
  4.2403  2.4822  2.1212  1.6102  0.9947  0.2963  0.2171

 Free energy of the ion-electron system (eV)
  ---------------------------------------------------
  alpha Z        PSCENC =        24.75690598
  Ewald energy   TEWEN  =     10359.33408569
  -Hartree energ DENC   =    -12317.22068456
  -exchange      EXHF   =         0.00000000
  -V(xc)+E(xc)   XCENC  =       230.08223111
  PAW double counting   =      1111.49744710    -1132.15631254
  entropy T*S    EENTRO =         0.00000000
  eigenvalues    EBANDS =      -778.20086111
  atomic energy  EATOM  =      2354.40460413
  ---------------------------------------------------
  free energy    TOTEN  =      -147.50258421 eV

  energy without entropy =     -147.50258421  energy(sigma->0) =     -147.50258421


--------------------------------------------------------------------------------------------------------




----------------------------------------- Iteration    1(  13)  ---------------------------------------


    POTLOK:  cpu time    1.80: real time    2.59
    SETDIJ:  cpu time    0.02: real time    0.02
     EDDAV:  cpu time  367.52: real time  542.23
 BZINTS: Fermi energy: -2.867595; 64.000000 electrons
         Band energy:-768.272414;  BLOECHL correction:  0.000000
       DOS:  cpu time    0.01: real time    0.01
    CHARGE:  cpu time   16.03: real time   23.96
    MIXING:  cpu time    0.06: real time    0.12
    --------------------------------------------
      LOOP:  cpu time  385.44: real time  568.95

 eigenvalue-minimisations  :  6778
 total energy-change (2. order) :-0.2536622E-02  (-0.2844026E-03)
 number of electron      63.9999997 magnetization 
 augmentation part        1.5341972 magnetization 

 Broyden mixing:
  rms(total) = 0.16922E-01    rms(broyden)= 0.16910E-01
  rms(prec ) = 0.17711E-01
  weight for this iteration     100.00

 eigenvalues of (default mixing * dielectric matrix)
  average eigenvalue GAMMA=   1.7927
  5.2133  2.6307  2.1747  1.9342  0.9383  0.9383  0.2963  0.2160

 Free energy of the ion-electron system (eV)
  ---------------------------------------------------
  alpha Z        PSCENC =        24.75690598
  Ewald energy   TEWEN  =     10359.33408569
  -Hartree energ DENC   =    -12327.21870638
  -exchange      EXHF   =         0.00000000
  -V(xc)+E(xc)   XCENC  =       230.15656843
  PAW double counting   =      1111.04354093    -1131.70970563
  entropy T*S    EENTRO =         0.00000000
  eigenvalues    EBANDS =      -768.27241398
  atomic energy  EATOM  =      2354.40460413
  ---------------------------------------------------
  free energy    TOTEN  =      -147.50512084 eV

  energy without entropy =     -147.50512084  energy(sigma->0) =     -147.50512084


--------------------------------------------------------------------------------------------------------




----------------------------------------- Iteration    1(  14)  ---------------------------------------


    POTLOK:  cpu time    1.64: real time    2.48
    SETDIJ:  cpu time    0.06: real time    0.07
     EDDAV:  cpu time  387.55: real time  567.19
 BZINTS: Fermi energy: -2.817441; 64.000000 electrons
         Band energy:-765.059332;  BLOECHL correction:  0.000000
       DOS:  cpu time    0.01: real time    0.04
    CHARGE:  cpu time   16.98: real time   23.99
    MIXING:  cpu time    0.05: real time    0.10
    --------------------------------------------
      LOOP:  cpu time  406.30: real time  593.87

 eigenvalue-minimisations  :  7374
 total energy-change (2. order) :-0.1726424E-02  (-0.4088198E-04)
 number of electron      63.9999997 magnetization 
 augmentation part        1.5340955 magnetization 

 Broyden mixing:
  rms(total) = 0.11323E-01    rms(broyden)= 0.11304E-01
  rms(prec ) = 0.11808E-01
  weight for this iteration     100.00

 eigenvalues of (default mixing * dielectric matrix)
  average eigenvalue GAMMA=   1.9559
  6.0630  3.1675  2.4083  2.1440  1.4533  1.0025  0.8525  0.2965  0.2159

 Free energy of the ion-electron system (eV)
  ---------------------------------------------------
  alpha Z        PSCENC =        24.75690598
  Ewald energy   TEWEN  =     10359.33408569
  -Hartree energ DENC   =    -12330.43696598
  -exchange      EXHF   =         0.00000000
  -V(xc)+E(xc)   XCENC  =       230.15618678
  PAW double counting   =      1110.56744764    -1131.22977926
  entropy T*S    EENTRO =         0.00000000
  eigenvalues    EBANDS =      -765.05933224
  atomic energy  EATOM  =      2354.40460413
  ---------------------------------------------------
  free energy    TOTEN  =      -147.50684726 eV

  energy without entropy =     -147.50684726  energy(sigma->0) =     -147.50684726


--------------------------------------------------------------------------------------------------------




----------------------------------------- Iteration    1(  15)  ---------------------------------------


    POTLOK:  cpu time    1.63: real time    2.57
    SETDIJ:  cpu time    0.05: real time    0.05
     EDDAV:  cpu time  367.28: real time  537.50
 BZINTS: Fermi energy: -2.779148; 64.000000 electrons
         Band energy:-762.619706;  BLOECHL correction:  0.000000
       DOS:  cpu time    0.01: real time    0.01
    CHARGE:  cpu time   16.55: real time   23.52
    MIXING:  cpu time    0.08: real time    0.10
    --------------------------------------------
      LOOP:  cpu time  385.59: real time  563.79

 eigenvalue-minimisations  :  6774
 total energy-change (2. order) :-0.5086318E-02  (-0.4342733E-04)
 number of electron      63.9999997 magnetization 
 augmentation part        1.5341782 magnetization 

 Broyden mixing:
  rms(total) = 0.16856E-01    rms(broyden)= 0.16844E-01
  rms(prec ) = 0.17216E-01
  weight for this iteration     100.00

 eigenvalues of (default mixing * dielectric matrix)
  average eigenvalue GAMMA=   1.9520
  6.6549  3.4182  2.5629  1.9871  1.7730  0.9290  0.8413  0.8413  0.2966  0.2158

 Free energy of the ion-electron system (eV)
  ---------------------------------------------------
  alpha Z        PSCENC =        24.75690598
  Ewald energy   TEWEN  =     10359.33408569
  -Hartree energ DENC   =    -12332.87589034
  -exchange      EXHF   =         0.00000000
  -V(xc)+E(xc)   XCENC  =       230.14473706
  PAW double counting   =      1110.38628934    -1131.04295931
  entropy T*S    EENTRO =         0.00000000
  eigenvalues    EBANDS =      -762.61970611
  atomic energy  EATOM  =      2354.40460413
  ---------------------------------------------------
  free energy    TOTEN  =      -147.51193358 eV

  energy without entropy =     -147.51193358  energy(sigma->0) =     -147.51193358


--------------------------------------------------------------------------------------------------------




----------------------------------------- Iteration    1(  16)  ---------------------------------------


    POTLOK:  cpu time    1.51: real time    2.36
    SETDIJ:  cpu time    0.02: real time    0.04
     EDDAV:  cpu time  369.83: real time  549.03
 BZINTS: Fermi energy: -2.764620; 64.000000 electrons
         Band energy:-761.673524;  BLOECHL correction:  0.000000
       DOS:  cpu time    0.02: real time    0.03
    CHARGE:  cpu time   15.53: real time   23.96
    MIXING:  cpu time    0.06: real time    0.09
    --------------------------------------------
      LOOP:  cpu time  386.97: real time  575.52

 eigenvalue-minimisations  :  7160
 total energy-change (2. order) :-0.1439496E-02  (-0.2141862E-04)
 number of electron      63.9999997 magnetization 
 augmentation part        1.5339671 magnetization 

 Broyden mixing:
  rms(total) = 0.79523E-02    rms(broyden)= 0.79331E-02
  rms(prec ) = 0.81255E-02
  weight for this iteration     100.00

 eigenvalues of (default mixing * dielectric matrix)
  average eigenvalue GAMMA=   2.1002
  7.2718  4.0753  2.5432  2.4138  1.9885  1.7177  1.0113  0.8520  0.7163  0.2966
  0.2158

 Free energy of the ion-electron system (eV)
  ---------------------------------------------------
  alpha Z        PSCENC =        24.75690598
  Ewald energy   TEWEN  =     10359.33408569
  -Hartree energ DENC   =    -12333.82933381
  -exchange      EXHF   =         0.00000000
  -V(xc)+E(xc)   XCENC  =       230.15484834
  PAW double counting   =      1110.84842199    -1131.50938103
  entropy T*S    EENTRO =         0.00000000
  eigenvalues    EBANDS =      -761.67352436
  atomic energy  EATOM  =      2354.40460413
  ---------------------------------------------------
  free energy    TOTEN  =      -147.51337307 eV

  energy without entropy =     -147.51337307  energy(sigma->0) =     -147.51337307


--------------------------------------------------------------------------------------------------------




----------------------------------------- Iteration    1(  17)  ---------------------------------------


    POTLOK:  cpu time    1.55: real time    2.48
    SETDIJ:  cpu time    0.05: real time    0.05
     EDDAV:  cpu time  351.49: real time  528.59
 BZINTS: Fermi energy: -2.756736; 64.000000 electrons
         Band energy:-761.177511;  BLOECHL correction:  0.000000
       DOS:  cpu time    0.01: real time    0.04
    CHARGE:  cpu time   16.89: real time   24.52
    MIXING:  cpu time    0.08: real time    0.12
    --------------------------------------------
      LOOP:  cpu time  370.08: real time  555.80

 eigenvalue-minimisations  :  6618
 total energy-change (2. order) :-0.1643576E-02  (-0.1437884E-04)
 number of electron      63.9999997 magnetization 
 augmentation part        1.5339874 magnetization 

 Broyden mixing:
  rms(total) = 0.54658E-02    rms(broyden)= 0.54596E-02
  rms(prec ) = 0.55796E-02
  weight for this iteration     100.00

 eigenvalues of (default mixing * dielectric matrix)
  average eigenvalue GAMMA=   2.0776
  7.6515  4.2975  2.6430  2.2114  2.2114  2.0394  1.0347  0.8898  0.8245  0.2966
  0.2158  0.6156

 Free energy of the ion-electron system (eV)
  ---------------------------------------------------
  alpha Z        PSCENC =        24.75690598
  Ewald energy   TEWEN  =     10359.33408569
  -Hartree energ DENC   =    -12334.32525823
  -exchange      EXHF   =         0.00000000
  -V(xc)+E(xc)   XCENC  =       230.15190038
  PAW double counting   =      1110.73180338    -1131.39154712
  entropy T*S    EENTRO =         0.00000000
  eigenvalues    EBANDS =      -761.17751087
  atomic energy  EATOM  =      2354.40460413
  ---------------------------------------------------
  free energy    TOTEN  =      -147.51501665 eV

  energy without entropy =     -147.51501665  energy(sigma->0) =     -147.51501665


--------------------------------------------------------------------------------------------------------




----------------------------------------- Iteration    1(  18)  ---------------------------------------


    POTLOK:  cpu time    1.81: real time    2.73
    SETDIJ:  cpu time    0.19: real time    0.26
     EDDAV:  cpu time  386.63: real time  569.38
 BZINTS: Fermi energy: -2.752063; 64.000000 electrons
         Band energy:-760.876817;  BLOECHL correction:  0.000000
       DOS:  cpu time    0.01: real time    0.04
    CHARGE:  cpu time   17.02: real time   24.38
    MIXING:  cpu time    0.14: real time    0.14
    --------------------------------------------
      LOOP:  cpu time  405.80: real time  596.95

 eigenvalue-minimisations  :  6830
 total energy-change (2. order) :-0.4582819E-03  (-0.2611554E-05)
 number of electron      63.9999997 magnetization 
 augmentation part        1.5339692 magnetization 

 Broyden mixing:
  rms(total) = 0.17923E-02    rms(broyden)= 0.17916E-02
  rms(prec ) = 0.18418E-02
  weight for this iteration     100.00

 eigenvalues of (default mixing * dielectric matrix)
  average eigenvalue GAMMA=   2.1063
  8.2289  4.5967  2.7637  2.2196  2.1614  1.6639  1.6639  1.0374  1.0374  0.8420
  0.6543  0.2966  0.2158

 Free energy of the ion-electron system (eV)
  ---------------------------------------------------
  alpha Z        PSCENC =        24.75690598
  Ewald energy   TEWEN  =     10359.33408569
  -Hartree energ DENC   =    -12334.62716454
  -exchange      EXHF   =         0.00000000
  -V(xc)+E(xc)   XCENC  =       230.15252231
  PAW double counting   =      1110.72560726    -1131.38521878
  entropy T*S    EENTRO =         0.00000000
  eigenvalues    EBANDS =      -760.87681697
  atomic energy  EATOM  =      2354.40460413
  ---------------------------------------------------
  free energy    TOTEN  =      -147.51547493 eV

  energy without entropy =     -147.51547493  energy(sigma->0) =     -147.51547493


--------------------------------------------------------------------------------------------------------




----------------------------------------- Iteration    1(  19)  ---------------------------------------


    POTLOK:  cpu time    1.65: real time    3.05
    SETDIJ:  cpu time    0.02: real time    0.04
     EDDAV:  cpu time  360.31: real time  539.66
 BZINTS: Fermi energy: -2.750133; 64.000000 electrons
         Band energy:-760.751986;  BLOECHL correction:  0.000000
       DOS:  cpu time    0.01: real time    0.03
    CHARGE:  cpu time   15.76: real time   24.99
    MIXING:  cpu time    0.06: real time    0.09
    --------------------------------------------
      LOOP:  cpu time  377.82: real time  567.87

 eigenvalue-minimisations  :  6574
 total energy-change (2. order) :-0.1724621E-03  (-0.9414877E-06)
 number of electron      63.9999997 magnetization 
 augmentation part        1.5339455 magnetization 

 Broyden mixing:
  rms(total) = 0.26771E-02    rms(broyden)= 0.26735E-02
  rms(prec ) = 0.27307E-02
  weight for this iteration     100.00

 eigenvalues of (default mixing * dielectric matrix)
  average eigenvalue GAMMA=   2.0779
  8.3188  4.6999  2.7763  2.4457  1.9834  1.8456  1.8456  1.2772  0.2158  0.2966
  0.9901  0.9114  0.8197  0.6647

 Free energy of the ion-electron system (eV)
  ---------------------------------------------------
  alpha Z        PSCENC =        24.75690598
  Ewald energy   TEWEN  =     10359.33408569
  -Hartree energ DENC   =    -12334.75249026
  -exchange      EXHF   =         0.00000000
  -V(xc)+E(xc)   XCENC  =       230.15329092
  PAW double counting   =      1110.76601459    -1131.42607287
  entropy T*S    EENTRO =         0.00000000
  eigenvalues    EBANDS =      -760.75198557
  atomic energy  EATOM  =      2354.40460413
  ---------------------------------------------------
  free energy    TOTEN  =      -147.51564739 eV

  energy without entropy =     -147.51564739  energy(sigma->0) =     -147.51564739


--------------------------------------------------------------------------------------------------------




----------------------------------------- Iteration    1(  20)  ---------------------------------------


    POTLOK:  cpu time    1.55: real time    2.12
    SETDIJ:  cpu time    0.02: real time    0.03
     EDDAV:  cpu time  356.76: real time  524.39
 BZINTS: Fermi energy: -2.749344; 64.000000 electrons
         Band energy:-760.701937;  BLOECHL correction:  0.000000
       DOS:  cpu time    0.01: real time    0.01
    CHARGE:  cpu time   15.73: real time   24.07
    MIXING:  cpu time    0.11: real time    0.17
    --------------------------------------------
      LOOP:  cpu time  374.18: real time  550.79

 eigenvalue-minimisations  :  6542
 total energy-change (2. order) :-0.6334377E-04  (-0.3218079E-06)
 number of electron      63.9999997 magnetization 
 augmentation part        1.5339520 magnetization 

 Broyden mixing:
  rms(total) = 0.23995E-02    rms(broyden)= 0.23965E-02
  rms(prec ) = 0.24468E-02
  weight for this iteration     100.00

 eigenvalues of (default mixing * dielectric matrix)
  average eigenvalue GAMMA=   2.1098
  8.4585  5.0942  3.3265  2.5327  2.5327  1.9869  1.4971  0.2158  0.2966  1.1791
  1.0068  1.0068  1.0343  0.7947  0.6839

 Free energy of the ion-electron system (eV)
  ---------------------------------------------------
  alpha Z        PSCENC =        24.75690598
  Ewald energy   TEWEN  =     10359.33408569
  -Hartree energ DENC   =    -12334.80245075
  -exchange      EXHF   =         0.00000000
  -V(xc)+E(xc)   XCENC  =       230.15279590
  PAW double counting   =      1110.73180867    -1131.39152358
  entropy T*S    EENTRO =         0.00000000
  eigenvalues    EBANDS =      -760.70193678
  atomic energy  EATOM  =      2354.40460413
  ---------------------------------------------------
  free energy    TOTEN  =      -147.51571074 eV

  energy without entropy =     -147.51571074  energy(sigma->0) =     -147.51571074


--------------------------------------------------------------------------------------------------------




----------------------------------------- Iteration    1(  21)  ---------------------------------------


    POTLOK:  cpu time    1.45: real time    2.42
    SETDIJ:  cpu time    0.02: real time    0.04
     EDDAV:  cpu time  329.28: real time  493.70
 BZINTS: Fermi energy: -2.747903; 64.000000 electrons
         Band energy:-760.607956;  BLOECHL correction:  0.000000
       DOS:  cpu time    0.01: real time    0.01
    CHARGE:  cpu time   15.78: real time   24.16
    MIXING:  cpu time    0.09: real time    0.19
    --------------------------------------------
      LOOP:  cpu time  346.63: real time  520.56

 eigenvalue-minimisations  :  5652
 total energy-change (2. order) :-0.7812059E-04  (-0.4755976E-06)
 number of electron      63.9999997 magnetization 
 augmentation part        1.5339485 magnetization 

 Broyden mixing:
  rms(total) = 0.64155E-03    rms(broyden)= 0.63830E-03
  rms(prec ) = 0.65621E-03
  weight for this iteration     100.00

 eigenvalues of (default mixing * dielectric matrix)
  average eigenvalue GAMMA=   2.0696
  8.4648  5.1968  3.3988  2.6804  2.5001  2.0159  1.4906  1.4906  1.2369  0.2158
  0.2966  0.9929  0.8196  0.8196  0.8064  0.6869

 Free energy of the ion-electron system (eV)
  ---------------------------------------------------
  alpha Z        PSCENC =        24.75690598
  Ewald energy   TEWEN  =     10359.33408569
  -Hartree energ DENC   =    -12334.89658816
  -exchange      EXHF   =         0.00000000
  -V(xc)+E(xc)   XCENC  =       230.15296916
  PAW double counting   =      1110.72088909    -1131.38069840
  entropy T*S    EENTRO =         0.00000000
  eigenvalues    EBANDS =      -760.60795635
  atomic energy  EATOM  =      2354.40460413
  ---------------------------------------------------
  free energy    TOTEN  =      -147.51578886 eV

  energy without entropy =     -147.51578886  energy(sigma->0) =     -147.51578886


--------------------------------------------------------------------------------------------------------




----------------------------------------- Iteration    1(  22)  ---------------------------------------


    POTLOK:  cpu time    1.65: real time    2.36
    SETDIJ:  cpu time    0.02: real time    0.04
     EDDAV:  cpu time  296.93: real time  442.14
 BZINTS: Fermi energy: -2.747514; 64.000000 electrons
         Band energy:-760.582366;  BLOECHL correction:  0.000000
       DOS:  cpu time    0.01: real time    0.02
    CHARGE:  cpu time   15.65: real time   23.04
    MIXING:  cpu time    0.10: real time    0.14
    --------------------------------------------
      LOOP:  cpu time  314.36: real time  467.76

 eigenvalue-minimisations  :  4928
 total energy-change (2. order) :-0.1846910E-04  (-0.3364529E-07)
 number of electron      63.9999997 magnetization 
 augmentation part        1.5339480 magnetization 

 Broyden mixing:
  rms(total) = 0.39061E-03    rms(broyden)= 0.39052E-03
  rms(prec ) = 0.40397E-03
  weight for this iteration     100.00

 eigenvalues of (default mixing * dielectric matrix)
  average eigenvalue GAMMA=   2.1585
  8.4355  5.7232  3.5623  3.5623  2.5010  2.3041  1.9493  1.4851  1.4851  0.2158
  0.2966  1.0004  1.0004  0.8523  0.8523  0.7817  0.6876

 Free energy of the ion-electron system (eV)
  ---------------------------------------------------
  alpha Z        PSCENC =        24.75690598
  Ewald energy   TEWEN  =     10359.33408569
  -Hartree energ DENC   =    -12334.92211130
  -exchange      EXHF   =         0.00000000
  -V(xc)+E(xc)   XCENC  =       230.15287628
  PAW double counting   =      1110.71939640    -1131.37919827
  entropy T*S    EENTRO =         0.00000000
  eigenvalues    EBANDS =      -760.58236623
  atomic energy  EATOM  =      2354.40460413
  ---------------------------------------------------
  free energy    TOTEN  =      -147.51580733 eV

  energy without entropy =     -147.51580733  energy(sigma->0) =     -147.51580733


--------------------------------------------------------------------------------------------------------




----------------------------------------- Iteration    1(  23)  ---------------------------------------


    POTLOK:  cpu time    1.59: real time    2.03
    SETDIJ:  cpu time    0.02: real time    0.04
     EDDAV:  cpu time  292.93: real time  439.04
 BZINTS: Fermi energy: -2.746510; 64.000000 electrons
         Band energy:-760.517097;  BLOECHL correction:  0.000000
       DOS:  cpu time    0.01: real time    0.01
    CHARGE:  cpu time   16.20: real time   23.62
    MIXING:  cpu time    0.10: real time    0.14
    --------------------------------------------
      LOOP:  cpu time  310.85: real time  464.90

 eigenvalue-minimisations  :  4798
 total energy-change (2. order) :-0.2447796E-04  (-0.7580410E-07)
 number of electron      63.9999997 magnetization 
 augmentation part        1.5339483 magnetization 

 Broyden mixing:
  rms(total) = 0.63655E-03    rms(broyden)= 0.63590E-03
  rms(prec ) = 0.64876E-03
  weight for this iteration     100.00

 eigenvalues of (default mixing * dielectric matrix)
  average eigenvalue GAMMA=   2.1002
  8.4431  5.7892  3.9304  3.2726  2.4758  2.4198  1.9636  1.4642  1.4642  0.2158
  0.2966  1.0987  1.0163  0.8226  0.8226  0.8447  0.7818  0.6820

 Free energy of the ion-electron system (eV)
  ---------------------------------------------------
  alpha Z        PSCENC =        24.75690598
  Ewald energy   TEWEN  =     10359.33408569
  -Hartree energ DENC   =    -12334.98728439
  -exchange      EXHF   =         0.00000000
  -V(xc)+E(xc)   XCENC  =       230.15272252
  PAW double counting   =      1110.72063808    -1131.38040701
  entropy T*S    EENTRO =         0.00000000
  eigenvalues    EBANDS =      -760.51709680
  atomic energy  EATOM  =      2354.40460413
  ---------------------------------------------------
  free energy    TOTEN  =      -147.51583180 eV

  energy without entropy =     -147.51583180  energy(sigma->0) =     -147.51583180


[...]
     31      -4.0976      2.00000
     32      -4.0967      2.00000
     33      -1.4516      0.00000
     34      -1.4502      0.00000
     35       1.6798      0.00000
     36       1.6821      0.00000
     37       2.0813      0.00000
     38       2.0814      0.00000
     39       2.8655      0.00000
     40       2.8657      0.00000
     41       3.1656      0.00000
     42       3.1658      0.00000

 k-point    71 :      -0.3333    0.3333    0.5000
  band No.  band energies     occupation 
      1     -21.6071      2.00000
      2     -21.6070      2.00000
      3     -19.6784      2.00000
      4     -19.6782      2.00000
      5     -17.8268      2.00000
      6     -17.8256      2.00000
      7     -17.8256      2.00000
      8     -17.8243      2.00000
      9     -14.1450      2.00000
     10     -14.1429      2.00000
     11     -14.1429      2.00000
     12     -14.1426      2.00000
     13     -12.3812      2.00000
     14     -12.3796      2.00000
     15     -10.7908      2.00000
     16     -10.7908      2.00000
     17     -10.7908      2.00000
     18     -10.7883      2.00000
     19      -9.5851      2.00000
     20      -9.5851      2.00000
     21      -8.5068      2.00000
     22      -8.5047      2.00000
     23      -8.0791      2.00000
     24      -8.0765      2.00000
     25      -7.3716      2.00000
     26      -7.3714      2.00000
     27      -6.8967      2.00000
     28      -6.8936      2.00000
     29      -5.3976      2.00000
     30      -5.3970      2.00000
     31      -5.3970      2.00000
     32      -5.3947      2.00000
     33      -0.2314      0.00000
     34      -0.2276      0.00000
     35      -0.2276      0.00000
     36      -0.2274      0.00000
     37       1.4135      0.00000
     38       1.4136      0.00000
     39       2.1540      0.00000
     40       2.1552      0.00000
     41       2.1911      0.00000
     42       2.1912      0.00000

 k-point    72 :      -0.1667    0.3333    0.5000
  band No.  band energies     occupation 
      1     -21.7699      2.00000
      2     -21.7698      2.00000
      3     -18.8961      2.00000
      4     -18.8954      2.00000
      5     -18.8902      2.00000
      6     -18.8893      2.00000
      7     -16.5961      2.00000
      8     -16.5958      2.00000
      9     -15.5739      2.00000
     10     -15.5729      2.00000
     11     -13.3806      2.00000
     12     -13.3796      2.00000
     13     -13.3685      2.00000
     14     -13.3684      2.00000
     15     -10.9762      2.00000
     16     -10.9750      2.00000
     17      -9.7778      2.00000
     18      -9.7778      2.00000
     19      -9.3167      2.00000
     20      -9.3161      2.00000
     21      -9.2986      2.00000
     22      -9.2970      2.00000
     23      -7.4672      2.00000
     24      -7.4647      2.00000
     25      -6.7900      2.00000
     26      -6.7869      2.00000
     27      -6.5226      2.00000
     28      -6.5219      2.00000
     29      -6.5172      2.00000
     30      -6.5162      2.00000
     31      -4.5072      2.00000
     32      -4.5056      2.00000
     33      -1.2956      0.00000
     34      -1.2930      0.00000
     35       0.9681      0.00000
     36       0.9686      0.00000
     37       0.9745      0.00000
     38       0.9758      0.00000
     39       1.1917      0.00000
     40       1.1927      0.00000
     41       1.9663      0.00000
     42       1.9664      0.00000

 k-point    73 :       0.0000    0.5000    0.5000
  band No.  band energies     occupation 
      1     -20.7946      2.00000
      2     -20.7946      2.00000
      3     -20.7946      2.00000
      4     -20.7945      2.00000
      5     -17.9806      2.00000
      6     -17.9786      2.00000
      7     -17.9786      2.00000
      8     -17.9766      2.00000
      9     -13.2732      2.00000
     10     -13.2713      2.00000
     11     -13.2713      2.00000
     12     -13.2674      2.00000
     13     -11.6911      2.00000
     14     -11.6894      2.00000
     15     -11.6894      2.00000
     16     -11.6892      2.00000
     17     -10.1618      2.00000
     18     -10.1617      2.00000
     19     -10.1612      2.00000
     20     -10.1612      2.00000
     21      -8.6346      2.00000
     22      -8.6346      2.00000
     23      -8.6345      2.00000
     24      -8.6344      2.00000
     25      -7.7928      2.00000
     26      -7.7928      2.00000
     27      -7.7923      2.00000
     28      -7.7922      2.00000
     29      -5.4873      2.00000
     30      -5.4851      2.00000
     31      -5.4851      2.00000
     32      -5.4829      2.00000
     33       0.0650      0.00000
     34       0.0680      0.00000
     35       0.0680      0.00000
     36       0.0709      0.00000
     37       2.5262      0.00000
     38       2.5264      0.00000
     39       2.5264      0.00000
     40       2.5264      0.00000
     41       3.3068      0.00000
     42       3.3069      0.00000

 k-point    74 :       0.1667    0.5000    0.5000
  band No.  band energies     occupation 
      1     -21.1190      2.00000
      2     -21.1189      2.00000
      3     -20.1517      2.00000
      4     -20.1516      2.00000
      5     -19.2072      2.00000
      6     -19.2071      2.00000
      7     -16.5565      2.00000
      8     -16.5565      2.00000
      9     -14.6868      2.00000
     10     -14.6867      2.00000
     11     -12.4038      2.00000
     12     -12.4033      2.00000
     13     -12.2409      2.00000
     14     -12.2392      2.00000
     15     -11.2444      2.00000
     16     -11.2435      2.00000
     17     -10.2008      2.00000
     18     -10.1991      2.00000
     19      -9.1702      2.00000
     20      -9.1696      2.00000
     21      -9.0109      2.00000
     22      -9.0108      2.00000
     23      -8.6820      2.00000
     24      -8.6809      2.00000
     25      -7.8950      2.00000
     26      -7.8948      2.00000
     27      -7.7947      2.00000
     28      -7.7940      2.00000
     29      -6.8258      2.00000
     30      -6.8258      2.00000
     31      -4.1007      2.00000
     32      -4.1000      2.00000
     33      -1.4498      0.00000
     34      -1.4486      0.00000
     35       1.6780      0.00000
     36       1.6780      0.00000
     37       2.0822      0.00000
     38       2.0823      0.00000
     39       2.8665      0.00000
     40       2.8666      0.00000
     41       3.1709      0.00000
     42       3.1727      0.00000

 k-point    75 :       0.3333    0.5000    0.5000
  band No.  band energies     occupation 
      1     -21.1197      2.00000
      2     -21.1196      2.00000
      3     -20.1551      2.00000
      4     -20.1550      2.00000
      5     -19.2024      2.00000
      6     -19.2024      2.00000
      7     -16.5508      2.00000
      8     -16.5505      2.00000
      9     -14.6922      2.00000
     10     -14.6909      2.00000
     11     -12.4053      2.00000
     12     -12.4039      2.00000
     13     -12.2316      2.00000
     14     -12.2302      2.00000
     15     -11.2580      2.00000
     16     -11.2562      2.00000
     17     -10.2147      2.00000
     18     -10.2130      2.00000
     19      -9.1836      2.00000
     20      -9.1812      2.00000
     21      -9.0115      2.00000
     22      -9.0115      2.00000
     23      -8.6653      2.00000
     24      -8.6633      2.00000
     25      -7.8984      2.00000
     26      -7.8982      2.00000
     27      -7.7819      2.00000
     28      -7.7791      2.00000
     29      -6.8217      2.00000
     30      -6.8211      2.00000
     31      -4.0976      2.00000
     32      -4.0961      2.00000
     33      -1.4525      0.00000
     34      -1.4502      0.00000
     35       1.6802      0.00000
     36       1.6821      0.00000
     37       2.0813      0.00000
     38       2.0814      0.00000
     39       2.8655      0.00000
     40       2.8657      0.00000
     41       3.1653      0.00000
     42       3.1656      0.00000

 k-point    76 :       0.5000    0.5000    0.5000
  band No.  band energies     occupation 
      1     -20.7986      2.00000
      2     -20.7967      2.00000
      3     -20.7967      2.00000
      4     -20.7946      2.00000
      5     -17.9740      2.00000
      6     -17.9728      2.00000
      7     -17.9728      2.00000
      8     -17.9715      2.00000
      9     -13.2716      2.00000
     10     -13.2687      2.00000
     11     -13.2683      2.00000
     12     -13.2683      2.00000
     13     -11.6982      2.00000
     14     -11.6982      2.00000
     15     -11.6970      2.00000
     16     -11.6950      2.00000
     17     -10.1784      2.00000
     18     -10.1782      2.00000
     19     -10.1782      2.00000
     20     -10.1739      2.00000
     21      -8.6383      2.00000
     22      -8.6366      2.00000
     23      -8.6366      2.00000
     24      -8.6350      2.00000
     25      -7.7782      2.00000
     26      -7.7724      2.00000
     27      -7.7724      2.00000
     28      -7.7714      2.00000
     29      -5.4813      2.00000
     30      -5.4806      2.00000
     31      -5.4806      2.00000
     32      -5.4783      2.00000
     33       0.0645      0.00000
     34       0.0684      0.00000
     35       0.0684      0.00000
     36       0.0685      0.00000
     37       2.5234      0.00000
     38       2.5238      0.00000
     39       2.5238      0.00000
     40       2.5238      0.00000
     41       3.3039      0.00000
     42       3.3041      0.00000


--------------------------------------------------------------------------------------------------------


 soft charge-density along one line, spin component           1
         0         1         2         3         4         5         6         7         8         9
 total charge-density along one line
 
 pseudopotential strength for first ion, spin component:           1
 10.228   0.019  -0.000   0.000   0.000   0.000  -0.000  -0.000
  0.019  -0.002   0.000  -0.000  -0.000   0.000  -0.000  -0.000
 -0.000   0.000  -4.343  -0.000   0.000  -0.018  -0.000  -0.000
  0.000  -0.000  -0.000  -4.337   0.000  -0.000  -0.015   0.000
  0.000  -0.000   0.000   0.000  -4.343  -0.000   0.000  -0.018
  0.000   0.000  -0.018  -0.000  -0.000  -0.772  -0.000   0.000
 -0.000  -0.000  -0.000  -0.015   0.000  -0.000  -0.772   0.000
 -0.000  -0.000  -0.000   0.000  -0.018   0.000   0.000  -0.772
 total augmentation occupancy for first ion, spin component:           1
  1.468  -1.110   0.000  -0.001  -0.001   0.000   0.001  -0.000
 -1.110   1.041  -0.000  -0.007   0.001  -0.000  -0.002   0.000
  0.000  -0.000   1.224   0.000   0.001   0.225   0.000   0.000
 -0.001  -0.007   0.000   0.932  -0.000   0.000   0.103  -0.000
 -0.001   0.001   0.001  -0.000   1.223   0.000  -0.000   0.225
  0.000  -0.000   0.225   0.000   0.000   0.047   0.000   0.000
  0.001  -0.002   0.000   0.103  -0.000   0.000   0.013  -0.000
 -0.000   0.000   0.000  -0.000   0.225   0.000  -0.000   0.047


------------------------ aborting loop because EDIFF is reached ----------------------------------------


    CHARGE:  cpu time   15.65: real time   23.55
    FORLOC:  cpu time    0.23: real time    0.34
    FORNL :  cpu time   50.76: real time   71.57
    STRESS:  cpu time   93.57: real time  135.39
    FORHAR:  cpu time    0.55: real time    0.77
    MIXING:  cpu time    0.09: real time    0.10
    OFIELD:  cpu time    0.00: real time    0.00

 ---------------------------------------------------------------------------------------------

         DFTD3 V3.0 Rev 1        
 IVDW         = 12
 DF pbe       
 parameters
 VDW_S6       =    1.0000
 VDW_S8       =    0.7875
 VDW_A1       =    0.4289
 VDW_A2       =    4.4407
 k1-k3        =   16.0000    1.3333   -4.0000
 VDW_RADIUS   =   50.2022 A
 VDW_CNRADIUS =   21.1671 A
 Edisp (eV)   -1.41780

 E6    (eV) :    -0.9742
 E8    (eV) :    -0.4436
 % E8        : 31.29
    FORVDW:  cpu time    0.04: real time    0.06

  FORCE on cell =-STRESS in cart. coord.  units (eV):
  Direction    XX          YY          ZZ          XY          YZ          ZX
  --------------------------------------------------------------------------------------
  Alpha Z    24.75691    24.75691    24.75691
  Ewald   12510.51936 12510.29047-14661.48031     0.06974     0.00062    -0.00414
  Hartree 12244.40143 12244.58874-12153.94899     0.24288     0.00008    -0.00075
  E(xc)    -233.42298  -233.41887  -242.77627     0.00641    -0.00000     0.00000
  Local  -25443.61710-25443.93510 25990.80087    -0.64980    -0.00010     0.00256
  n-local   -56.29481   -56.39812   -51.25154    -0.09933     0.00001     0.00001
  augment    -6.18836    -6.18631    -5.66926     0.00176    -0.00000     0.00002
  Kinetic   960.90495   960.51583  1099.26023    -0.58234    -0.00122     0.00337
  Fock        0.00000     0.00000     0.00000     0.00000     0.00000     0.00000
  vdW        -0.34516    -0.34258    -0.00360     0.00215    -0.00000    -0.00000
  -------------------------------------------------------------------------------------
  Total       0.71424    -0.12904    -0.31197    -1.00853    -0.00062     0.00108
  in kB       1.35818    -0.24538    -0.59325    -1.91780    -0.00119     0.00205
  external pressure =        0.17 kB  Pullay stress =        0.00 kB


 VOLUME and BASIS-vectors are now :
 -----------------------------------------------------------------------------
  energy-cutoff  :      600.00
  volume of cell :      842.55
      direct lattice vectors                 reciprocal lattice vectors
     4.932874680  0.000000000  0.000000000     0.202721550  0.117251773  0.000000000
    -2.469760955  4.270074171  0.000000000     0.000000000  0.234187970  0.000000000
     0.000000000  0.000000000 40.000000000     0.000000000  0.000000000  0.025000000

  length of vectors
     4.932874680  4.932874680 40.000000000     0.234187970  0.234187970  0.025000000


 FORCES acting on ions
    electron-ion (+dipol)            ewald-force                    non-local-force                 convergence-correction
 -----------------------------------------------------------------------------------------------
   -.513E+00 0.109E+00 0.445E+01   0.417E+00 -.621E-01 -.449E+01   -.130E-01 0.164E-01 0.188E+00   -.140E-04 0.388E-05 0.515E-05
   -.176E+00 0.110E+00 -.474E+00   0.309E-01 -.624E-01 0.457E+00   -.530E-01 0.165E-01 0.257E-01   -.992E-05 0.222E-05 0.225E-05
   -.237E+00 0.738E-01 -.474E+00   0.101E+00 -.216E-01 0.457E+00   -.493E-01 0.186E-01 0.253E-01   -.106E-04 0.358E-05 0.242E-05
   -.238E+00 0.145E+00 -.477E+00   0.102E+00 -.103E+00 0.457E+00   -.492E-01 0.142E-01 0.273E-01   -.134E-04 0.587E-05 0.131E-05
   -.236E+00 0.136E+00 0.341E-01   0.108E+00 -.624E-01 -.341E-01   -.432E-01 0.249E-01 0.246E-04   0.292E-04 -.177E-04 0.877E-07
   -.236E+00 0.136E+00 0.341E-01   0.108E+00 -.624E-01 -.341E-01   -.432E-01 0.249E-01 0.254E-04   0.296E-04 -.171E-04 0.148E-06
   -.236E+00 0.136E+00 0.341E-01   0.108E+00 -.624E-01 -.341E-01   -.432E-01 0.249E-01 0.255E-04   0.286E-04 -.160E-04 -.239E-06
   -.236E+00 0.136E+00 0.341E-01   0.108E+00 -.624E-01 -.341E-01   -.432E-01 0.249E-01 0.255E-04   0.300E-04 -.158E-04 -.863E-07
   0.274E+00 -.110E+00 -.409E+00   -.135E+00 0.624E-01 0.407E+00   0.463E-01 -.164E-01 -.106E-01   0.110E-04 -.399E-05 0.222E-05
   0.163E+00 -.103E+00 -.961E+00   -.256E-01 0.545E-01 0.996E+00   0.374E-01 -.160E-01 -.858E-01   0.132E-04 -.399E-05 0.223E-05
   0.357E+00 0.259E-02 -.963E+00   -.238E+00 -.602E-01 0.998E+00   0.400E-01 -.149E-01 -.865E-01   0.119E-04 -.440E-05 0.251E-05
   0.369E+00 -.228E+00 -.961E+00   -.252E+00 0.193E+00 0.993E+00   0.406E-01 -.183E-01 -.835E-01   0.120E-04 -.311E-05 0.164E-05
   0.236E+00 -.136E+00 0.341E-01   -.108E+00 0.624E-01 -.341E-01   0.432E-01 -.249E-01 0.269E-05   -.311E-04 0.174E-04 -.968E-07
   0.236E+00 -.136E+00 0.341E-01   -.108E+00 0.624E-01 -.341E-01   0.432E-01 -.249E-01 0.261E-05   -.314E-04 0.168E-04 0.413E-06
   0.236E+00 -.136E+00 0.341E-01   -.108E+00 0.624E-01 -.341E-01   0.432E-01 -.249E-01 0.272E-05   -.310E-04 0.188E-04 0.407E-09
   0.236E+00 -.136E+00 0.341E-01   -.108E+00 0.624E-01 -.341E-01   0.432E-01 -.249E-01 0.271E-05   -.317E-04 0.186E-04 -.691E-07
 -----------------------------------------------------------------------------------------------
   0.136E-04 -.139E-05 -.120E-03   -.289E-14 -.171E-13 0.881E-15   -.108E-03 0.569E-04 0.197E-03   -.769E-05 0.508E-05 0.199E-04
 
 
 POSITION                                       TOTAL-FORCE (eV/Angst)
 -----------------------------------------------------------------------------------
      2.46279      0.00140      1.64801        -0.109018      0.063362      0.142005
      4.93046      0.00140      1.65794        -0.197966      0.063594      0.008129
      1.22914      2.13643      1.65794        -0.185258      0.070903      0.008225
      3.69558      2.13643      1.65794        -0.185392      0.056077      0.007950
      2.46402      0.00140     21.65794        -0.170879      0.098593      0.000018
      4.93046      0.00140     21.65794        -0.170879      0.098593      0.000019
      1.22914      2.13643     21.65794        -0.170879      0.098593      0.000019
      3.69558      2.13643     21.65794        -0.170879      0.098593      0.000018
     -0.00388      1.42496      1.65794         0.184856     -0.063619     -0.012541
      2.46256      1.42496      1.65794         0.175198     -0.063979     -0.051525
     -1.23876      3.55999      1.65794         0.159324     -0.072558     -0.051642
      1.22768      3.55999      1.65794         0.158261     -0.053783     -0.050663
     -0.00388      1.42496     21.65794         0.170878     -0.098592     -0.000003
      2.46256      1.42496     21.65794         0.170878     -0.098593     -0.000003
     -1.23876      3.55999     21.65794         0.170878     -0.098592     -0.000003
      1.22768      3.55999     21.65794         0.170878     -0.098592     -0.000003
 -----------------------------------------------------------------------------------
    total drift:                               -0.000102      0.000061      0.000097


--------------------------------------------------------------------------------------------------------



  FREE ENERGIE OF THE ION-ELECTRON SYSTEM (eV)
  ---------------------------------------------------
  free  energy   TOTEN  =      -148.93364134 eV

  energy  without entropy=     -148.93364134  energy(sigma->0) =     -148.93364134
 


--------------------------------------------------------------------------------------------------------


    POTLOK:  cpu time    1.81: real time    2.63


--------------------------------------------------------------------------------------------------------


     LOOP+:  cpu time10572.64: real time15681.55
    4ORBIT:  cpu time    0.00: real time    0.00
 BZINTS: Fermi energy: -2.745703; 64.000000 electrons
         Band energy:-760.463984;  BLOECHL correction:  0.000000

 total amount of memory used by VASP on root node  1086796. kBytes
========================================================================

   base      :      30000. kBytes
   nonl-proj :     144230. kBytes
   fftplans  :      70886. kBytes
   grid      :     119014. kBytes
   one-center:         49. kBytes
   wavefun   :     722617. kBytes
 
  
  
 General timing and accounting informations for this job:
 ========================================================
  
                  Total CPU time used (sec):    10620.979
                            User time (sec):     8013.539
                          System time (sec):     2607.440
                         Elapsed time (sec):    15755.331
  
                   Maximum memory used (kb):     1228956.
                   Average memory used (kb):           0.
  
                          Minor page faults:     84840187
                          Major page faults:            0
                 Voluntary context switches:         1120
