   32   32    1    1
  0.9254429E+01  0.4932875E-09  0.4932875E-09  0.1405931E-08  0.5000000E-15
  1.000000000000000E-004
  CAR 
 graphite                                
    128     76     84
 
  0.0000000E+00  0.0000000E+00  0.0000000E+00  0.6944444E-02
    1      -15.314327
    2      -15.213826
    3      -15.212518
    4      -15.106990
    5      -10.015585
    6      -10.007183
    7      -10.004175
    8       -9.976327
    9       -9.975604
   10       -9.968409
   11       -9.964136
   12       -9.964127
   13       -9.963046
   14       -9.940619
   15       -9.930133
   16       -9.927714
   17       -8.952382
   18       -8.948552
   19       -8.946929
   20       -8.930484
   21       -8.926164
   22       -8.924842
   23       -8.923243
   24       -8.923231
   25       -8.920913
   26       -8.895056
   27       -8.890480
   28       -8.888085
   29       -4.040734
   30       -3.338542
   31       -3.336783
   32       -2.499996
   33       -2.125657
   34       -2.122774
   35       -2.110083
   36       -2.106066
   37       -2.105326
   38       -2.105322
   39       -2.102943
   40       -2.089922
   41       -2.088404
   42       -2.086530
   43       -2.084649
   44       -2.068203
   45        1.257124
   46        1.267100
   47        1.271230
   48        1.275203
   49        1.282672
   50        1.287680
   51        1.289953
   52        1.298884
   53        1.623453
   54        1.624312
   55        1.626551
   56        1.920767
   57        1.921564
   58        1.924025
   59        1.928295
   60        1.928328
   61        1.928757
   62        2.145774
   63        2.157920
   64        2.159801
   65        5.786216
   66        5.787616
   67        5.788796
   68        5.933111
   69        5.939298
   70        5.943289
   71        5.944641
   72        5.945076
   73        5.949697
   74        6.338832
   75        6.351567
   76        6.354550
   77        8.231857
   78       10.521768
   79       10.524345
   80       11.527209
   81       11.530889
   82       11.564453
   83       11.666555
   84       11.669938
 
  0.1666667E+00 -0.1387779E-16  0.0000000E+00  0.1388889E-01
    1      -15.149048
    2      -15.049536
    3      -15.048235
    4      -14.943829
    5      -11.303455
    6      -11.228702
    7      -11.227380
    8      -11.149860
    9      -10.434842
   10      -10.427895
   11      -10.369755
   12      -10.368246
   13      -10.361994
   14      -10.361216
   15      -10.301398
   16      -10.294047
   17       -8.319621
   18       -8.311453
   19       -8.268431
   20       -8.265024
   21       -8.258965
   22       -8.257825
   23       -8.211217
   24       -8.202927
   25       -7.470816
   26       -7.417394
   27       -7.416952
   28       -7.361644
   29       -3.840399
   30       -3.142819
   31       -3.141052
   32       -2.613422
   33       -2.594896
   34       -2.591757
   35       -2.590871
   36       -2.572905
   37       -2.572309
   38       -2.568736
   39       -2.550009
   40       -2.310486
   41       -1.962325
   42       -1.946736
   43       -1.943065
   44       -1.927326
   45        0.572162
   46        0.622139
   47        0.631829
   48        0.634666
   49        0.645362
   50        0.922687
   51        0.931929
   52        0.936761
   53        0.943409
   54        1.078779
   55        1.081329
   56        1.415460
   57        1.418765
   58        1.628365
   59        1.813382
   60        1.813842
   61        1.819279
   62        1.819963
   63        2.189616
   64        2.199141
   65        5.997850
   66        6.001218
   67        6.213527
   68        6.219383
   69        6.223697
   70        6.225813
   71        6.617652
   72        6.627687
   73        6.728098
   74        7.045360
   75        7.048168
   76        7.502379
   77        8.435723
   78       10.707054
   79       10.709615
   80       11.616978
   81       11.747345
   82       11.749796
   83       11.877296
   84       12.262234
 
  0.3333333E+00 -0.2775558E-16  0.0000000E+00  0.1388889E-01
    1      -14.654936
    2      -14.558482
    3      -14.557199
    4      -14.456254
    5      -12.710339
    6      -12.625972
    7      -12.624758
    8      -12.536930
    9      -10.855583
   10      -10.851978
   11      -10.784210
   12      -10.782171
   13      -10.779522
   14      -10.778920
   15      -10.708351
   16      -10.704661
   17       -7.147098
   18       -7.136349
   19       -7.100127
   20       -7.096694
   21       -7.088414
   22       -7.086926
   23       -7.048472
   24       -7.037948
   25       -5.358527
   26       -5.314835
   27       -5.314214
   28       -5.269755
   29       -3.767149
   30       -3.751234
   31       -3.738375
   32       -3.737520
   33       -3.722410
   34       -3.721265
   35       -3.707863
   36       -3.691701
   37       -3.244081
   38       -2.560706
   39       -2.558905
   40       -1.748167
   41       -1.489047
   42       -1.474139
   43       -1.470197
   44       -1.455383
   45       -1.028284
   46       -1.008196
   47       -1.006425
   48       -0.986254
   49       -0.951889
   50       -0.343861
   51       -0.341873
   52        0.127240
   53        0.138571
   54        0.143365
   55        0.153946
   56        0.362373
   57        1.128457
   58        1.131219
   59        1.624357
   60        1.625137
   61        1.628238
   62        1.629494
   63        2.163655
   64        2.168488
   65        6.534465
   66        6.539961
   67        6.788905
   68        6.794215
   69        6.797058
   70        6.798976
   71        7.111777
   72        7.116782
   73        8.885964
   74        9.048056
   75        9.183536
   76        9.186180
   77        9.570904
   78       11.252567
   79       11.255221
   80       11.429215
   81       11.902590
   82       11.970164
   83       11.972857
   84       12.188968
 
  0.5000000E+00  0.0000000E+00  0.0000000E+00  0.6944444E-02
    1      -13.839286
    2      -13.836590
    3      -13.749188
    4      -13.745295
    5      -13.745277
    6      -13.743792
    7      -13.651248
    8      -13.648535
    9      -11.003556
   10      -11.001869
   11      -10.931202
   12      -10.928223
   13      -10.928180
   14      -10.927797
   15      -10.853363
   16      -10.851684
   17       -6.245312
   18       -6.242778
   19       -6.221626
   20       -6.217785
   21       -6.216180
   22       -6.216179
   23       -6.193556
   24       -6.191981
   25       -4.656126
   26       -4.655182
   27       -4.638801
   28       -4.638725
   29       -4.638706
   30       -4.636168
   31       -4.618339
   32       -4.616545
   33       -3.142376
   34       -3.139866
   35       -3.110883
   36       -3.109132
   37       -3.109128
   38       -3.105049
   39       -3.077292
   40       -3.073738
   41       -2.268792
   42       -2.266618
   43       -1.613251
   44       -1.609683
   45       -1.609381
   46       -1.607933
   47       -0.837470
   48       -0.835028
   49       -0.759801
   50       -0.751734
   51       -0.744043
   52       -0.736733
   53       -0.736714
   54       -0.736591
   55       -0.724657
   56       -0.721656
   57        1.014247
   58        1.016143
   59        1.539816
   60        1.541761
   61        1.542073
   62        1.544352
   63        2.131207
   64        2.133432
   65        6.870139
   66        6.872810
   67        7.093768
   68        7.098900
   69        7.099757
   70        7.099768
   71        7.325229
   72        7.327698
   73       10.064039
   74       10.064886
   75       11.298902
   76       11.301747
   77       11.428683
   78       11.434411
   79       11.435971
   80       11.443737
   81       11.768211
   82       11.771412
   83       12.098818
   84       12.104921
 
  0.0000000E+00  0.1666667E+00  0.0000000E+00  0.1388889E-01
    1      -15.149051
    2      -15.049543
    3      -15.048235
    4      -14.943832
    5      -11.303463
    6      -11.228716
    7      -11.227379
    8      -11.149864
    9      -10.434923
   10      -10.427988
   11      -10.370005
   12      -10.368247
   13      -10.362018
   14      -10.361220
   15      -10.301424
   16      -10.294137
   17       -8.319799
   18       -8.310413
   19       -8.268810
   20       -8.265024
   21       -8.257828
   22       -8.256584
   23       -8.211287
   24       -8.201723
   25       -7.471631
   26       -7.418642
   27       -7.417376
   28       -7.362500
   29       -3.840389
   30       -3.142800
   31       -3.141047
   32       -2.614718
   33       -2.595174
   34       -2.593663
   35       -2.590875
   36       -2.572905
   37       -2.572228
   38       -2.570040
   39       -2.550149
   40       -2.310472
   41       -1.960802
   42       -1.944313
   43       -1.943062
   44       -1.926289
   45        0.572678
   46        0.620560
   47        0.630327
   48        0.631825
   49        0.641538
   50        0.927514
   51        0.935791
   52        0.936765
   53        0.944868
   54        1.080111
   55        1.081413
   56        1.415217
   57        1.417922
   58        1.629193
   59        1.813170
   60        1.813633
   61        1.817637
   62        1.819741
   63        2.189581
   64        2.198002
   65        5.998078
   66        6.002860
   67        6.213951
   68        6.219350
   69        6.224871
   70        6.228237
   71        6.617808
   72        6.629625
   73        6.726573
   74        7.044016
   75        7.046587
   76        7.500910
   77        8.435731
   78       10.707086
   79       10.709644
   80       11.617466
   81       11.748298
   82       11.749807
   83       11.877770
   84       12.261899
 
  0.1666667E+00  0.1666667E+00  0.0000000E+00  0.1388889E-01
    1      -14.819051
    2      -14.721638
    3      -14.720350
    4      -14.618236
    5      -11.923822
    6      -11.920966
    7      -11.845924
    8      -11.841825
    9      -11.841806
   10      -11.840235
   11      -11.760982
   12      -11.758128
   13       -9.590863
   14       -9.552928
   15       -9.552811
   16       -9.519423
   17       -8.550476
   18       -8.531022
   19       -8.526921
   20       -8.499859
   21       -6.364492
   22       -6.361279
   23       -6.318211
   24       -6.314369
   25       -6.314350
   26       -6.311654
   27       -6.267055
   28       -6.263642
   29       -3.937302
   30       -3.906817
   31       -3.906099
   32       -3.874967
   33       -3.441747
   34       -2.753548
   35       -2.751762
   36       -2.287110
   37       -2.283897
   38       -2.268071
   39       -2.263179
   40       -2.263175
   41       -2.262722
   42       -2.243987
   43       -2.241551
   44       -1.934067
   45       -0.412262
   46       -0.402716
   47       -0.400237
   48       -0.390039
   49       -0.060435
   50       -0.058074
   51        0.245158
   52        0.253520
   53        0.257913
   54        0.263829
   55        0.504440
   56        0.507848
   57        0.508052
   58        0.509346
   59        1.148365
   60        1.150700
   61        2.223694
   62        2.518471
   63        2.519802
   64        2.734929
   65        5.681201
   66        5.719131
   67        5.724260
   68        5.947976
   69        7.685800
   70        7.688061
   71        7.994140
   72        7.996697
   73        7.997448
   74        8.000093
   75        8.386382
   76        8.388848
   77        8.845512
   78       11.078971
   79       11.081535
   80       12.337440
   81       12.340578
   82       12.523207
   83       12.548543
   84       12.561732
 
  0.3333333E+00  0.1666667E+00  0.0000000E+00  0.1388889E-01
    1      -14.163266
    2      -14.069860
    3      -14.068597
    4      -13.971071
    5      -13.192196
    6      -13.104883
    7      -13.103632
    8      -13.012686
    9      -12.238579
   10      -12.157432
   11      -12.156064
   12      -12.071533
   13       -9.568372
   14       -9.508639
   15       -9.507789
   16       -9.446911
   17       -7.682981
   18       -7.644395
   19       -7.640748
   20       -7.600991
   21       -5.371888
   22       -5.341569
   23       -5.340729
   24       -5.308392
   25       -5.210787
   26       -5.177852
   27       -5.175171
   28       -5.142013
   29       -4.225124
   30       -4.189486
   31       -4.188894
   32       -4.152470
   33       -3.183483
   34       -3.160673
   35       -3.160341
   36       -3.136399
   37       -2.654262
   38       -2.138090
   39       -2.117364
   40       -2.114988
   41       -2.092932
   42       -1.985323
   43       -1.983670
   44       -1.649283
   45       -1.632073
   46       -1.628381
   47       -1.610950
   48       -1.504945
   49       -1.195205
   50       -0.872725
   51       -0.870895
   52       -0.756533
   53       -0.743918
   54       -0.738838
   55       -0.726836
   56       -0.391430
   57       -0.132234
   58        0.200268
   59        0.201511
   60        0.883207
   61        2.530461
   62        2.926800
   63        2.927851
   64        3.309037
   65        5.402325
   66        5.575656
   67        5.580023
   68        5.816056
   69        8.480936
   70        8.708791
   71        8.711870
   72        8.953736
   73        9.664122
   74        9.972653
   75       10.203639
   76       10.206076
   77       10.493819
   78       10.878741
   79       11.784605
   80       11.789637
   81       12.091243
   82       12.214745
   83       12.385485
   84       12.389679
 
  0.5000000E+00  0.1666667E+00  0.0000000E+00  0.1388889E-01
    1      -14.164496
    2      -14.071106
    3      -14.069805
    4      -13.972295
    5      -13.190471
    6      -13.103135
    7      -13.101938
    8      -13.010965
    9      -12.239803
   10      -12.158687
   11      -12.157289
   12      -12.072769
   13       -9.565852
   14       -9.506113
   15       -9.504926
   16       -9.444015
   17       -7.676490
   18       -7.637201
   19       -7.635107
   20       -7.594675
   21       -5.381552
   22       -5.351371
   23       -5.350815
   24       -5.318596
   25       -5.221390
   26       -5.188773
   27       -5.184912
   28       -5.152008
   29       -4.228132
   30       -4.192789
   31       -4.191568
   32       -4.155426
   33       -3.170843
   34       -3.148438
   35       -3.146680
   36       -3.123114
   37       -2.655445
   38       -2.137962
   39       -2.116577
   40       -2.115975
   41       -2.093361
   42       -1.986428
   43       -1.984870
   44       -1.646755
   45       -1.629703
   46       -1.625325
   47       -1.608153
   48       -1.503379
   49       -1.196320
   50       -0.871284
   51       -0.869317
   52       -0.755714
   53       -0.743302
   54       -0.739923
   55       -0.727383
   56       -0.392489
   57       -0.130804
   58        0.199147
   59        0.200298
   60        0.881890
   61        2.530876
   62        2.929326
   63        2.929833
   64        3.314697
   65        5.402205
   66        5.578035
   67        5.580731
   68        5.817053
   69        8.476269
   70        8.704652
   71        8.708426
   72        8.951636
   73        9.662506
   74        9.973528
   75       10.203366
   76       10.205819
   77       10.492627
   78       10.880961
   79       11.783780
   80       11.788782
   81       12.089788
   82       12.211710
   83       12.383793
   84       12.387928
 
 -0.3333333E+00  0.1666667E+00  0.0000000E+00  0.1388889E-01
    1      -14.819789
    2      -14.722367
    3      -14.721056
    4      -14.618967
    5      -11.926077
    6      -11.920117
    7      -11.846903
    8      -11.845512
    9      -11.840842
   10      -11.839628
   11      -11.763389
   12      -11.757407
   13       -9.581642
   14       -9.543470
   15       -9.542194
   16       -9.508565
   17       -8.547629
   18       -8.526458
   19       -8.525151
   20       -8.496285
   21       -6.375122
   22       -6.365684
   23       -6.328473
   24       -6.325359
   25       -6.317844
   26       -6.317257
   27       -6.277812
   28       -6.268400
   29       -3.952895
   30       -3.922762
   31       -3.921493
   32       -3.890685
   33       -3.442477
   34       -2.754225
   35       -2.752483
   36       -2.283891
   37       -2.265549
   38       -2.264637
   39       -2.260806
   40       -2.245170
   41       -2.243936
   42       -2.241281
   43       -2.223080
   44       -1.934765
   45       -0.421859
   46       -0.412092
   47       -0.410550
   48       -0.400984
   49       -0.062086
   50       -0.057697
   51        0.257875
   52        0.264415
   53        0.265641
   54        0.272803
   55        0.503704
   56        0.504741
   57        0.507798
   58        0.510000
   59        1.145843
   60        1.150689
   61        2.224262
   62        2.524059
   63        2.525210
   64        2.747624
   65        5.679637
   66        5.724773
   67        5.726974
   68        5.954772
   69        7.678304
   70        7.687195
   71        7.985946
   72        7.990342
   73        7.995502
   74        7.997842
   75        8.379829
   76        8.386464
   77        8.844514
   78       11.078091
   79       11.080648
   80       12.338162
   81       12.351258
   82       12.523800
   83       12.546863
   84       12.559101
 
 -0.1666667E+00  0.1666667E+00  0.0000000E+00  0.1388889E-01
    1      -15.149296
    2      -15.049792
    3      -15.048475
    4      -14.944076
    5      -11.309751
    6      -11.235034
    7      -11.233718
    8      -11.156240
    9      -10.426730
   10      -10.424729
   11      -10.362307
   12      -10.358905
   13      -10.358888
   14      -10.358331
   15      -10.292952
   16      -10.290989
   17       -8.314566
   18       -8.312906
   19       -8.262654
   20       -8.260653
   21       -8.260643
   22       -8.259202
   23       -8.206192
   24       -8.204405
   25       -7.480691
   26       -7.428468
   27       -7.425564
   28       -7.371447
   29       -3.840636
   30       -3.143036
   31       -3.141297
   32       -2.614737
   33       -2.612150
   34       -2.594621
   35       -2.590316
   36       -2.590041
   37       -2.590036
   38       -2.569828
   39       -2.567905
   40       -2.310708
   41       -1.941233
   42       -1.924547
   43       -1.923441
   44       -1.906432
   45        0.567938
   46        0.604180
   47        0.614138
   48        0.619036
   49        0.627624
   50        0.941703
   51        0.949682
   52        0.952287
   53        0.961656
   54        1.075021
   55        1.075984
   56        1.418173
   57        1.420443
   58        1.622455
   59        1.816315
   60        1.820611
   61        1.820853
   62        1.821066
   63        2.197939
   64        2.200038
   65        6.000599
   66        6.002866
   67        6.221817
   68        6.223724
   69        6.224130
   70        6.228324
   71        6.625715
   72        6.628537
   73        6.720197
   74        7.034439
   75        7.039158
   76        7.491890
   77        8.435389
   78       10.706764
   79       10.709321
   80       11.651513
   81       11.782999
   82       11.783435
   83       11.911639
   84       12.257807
 
 -0.2710505E-19  0.3333333E+00  0.0000000E+00  0.1388889E-01
    1      -14.654949
    2      -14.558508
    3      -14.557199
    4      -14.456268
    5      -12.710390
    6      -12.626075
    7      -12.624759
    8      -12.536981
    9      -10.855860
   10      -10.851739
   11      -10.784918
   12      -10.782173
   13      -10.778978
   14      -10.778690
   15      -10.708549
   16      -10.704366
   17       -7.147146
   18       -7.135329
   19       -7.100249
   20       -7.096693
   21       -7.086928
   22       -7.085923
   23       -7.048347
   24       -7.036678
   25       -5.359440
   26       -5.316127
   27       -5.314827
   28       -5.270749
   29       -3.768475
   30       -3.751489
   31       -3.740743
   32       -3.737526
   33       -3.722413
   34       -3.721768
   35       -3.708986
   36       -3.691997
   37       -3.244036
   38       -2.560621
   39       -2.558886
   40       -1.748103
   41       -1.487317
   42       -1.471509
   43       -1.470194
   44       -1.454284
   45       -1.029817
   46       -1.009894
   47       -1.008199
   48       -0.988215
   49       -0.951726
   50       -0.343324
   51       -0.341795
   52        0.130273
   53        0.142110
   54        0.143369
   55        0.155318
   56        0.362746
   57        1.127814
   58        1.130947
   59        1.622850
   60        1.625179
   61        1.628178
   62        1.629000
   63        2.163208
   64        2.167792
   65        6.534833
   66        6.541674
   67        6.789528
   68        6.794206
   69        6.798549
   70        6.800950
   71        7.112041
   72        7.118532
   73        8.884884
   74        9.048069
   75        9.182565
   76        9.185224
   77        9.569944
   78       11.252695
   79       11.255343
   80       11.429298
   81       11.903272
   82       11.971510
   83       11.972861
   84       12.189550
 
  0.1666667E+00  0.3333333E+00  0.0000000E+00  0.1388889E-01
    1      -14.163274
    2      -14.069874
    3      -14.068597
    4      -13.971078
    5      -13.192252
    6      -13.104995
    7      -13.103633
    8      -13.012742
    9      -12.238522
   10      -12.157320
   11      -12.156063
   12      -12.071476
   13       -9.568417
   14       -9.508733
   15       -9.507791
   16       -9.446963
   17       -7.682564
   18       -7.643638
   19       -7.640744
   20       -7.600632
   21       -5.372234
   22       -5.341594
   23       -5.341458
   24       -5.308803
   25       -5.209424
   26       -5.175223
   27       -5.175118
   28       -5.140690
   29       -4.226359
   30       -4.191447
   31       -4.189483
   32       -4.153787
   33       -3.185104
   34       -3.163504
   35       -3.160674
   36       -3.137954
   37       -2.654222
   38       -2.138855
   39       -2.117397
   40       -2.116873
   41       -2.094190
   42       -1.985250
   43       -1.983664
   44       -1.647386
   45       -1.628822
   46       -1.628375
   47       -1.609485
   48       -1.504741
   49       -1.195150
   50       -0.872337
   51       -0.870824
   52       -0.754653
   53       -0.742094
   54       -0.738836
   55       -0.726171
   56       -0.391736
   57       -0.131954
   58        0.199693
   59        0.201381
   60        0.882786
   61        2.530020
   62        2.926647
   63        2.927098
   64        3.308617
   65        5.402883
   66        5.576969
   67        5.580038
   68        5.816778
   69        8.482171
   70        8.710860
   71        8.712029
   72        8.954742
   73        9.664120
   74        9.971583
   75       10.202276
   76       10.205577
   77       10.492914
   78       10.878780
   79       11.784789
   80       11.789810
   81       12.091210
   82       12.214426
   83       12.385079
   84       12.389308
 
  0.3333333E+00  0.3333333E+00  0.0000000E+00  0.1388889E-01
    1      -13.356294
    2      -13.353678
    3      -13.351107
    4      -13.269713
    5      -13.265156
    6      -13.265054
    7      -13.264962
    8      -13.262163
    9      -13.261251
   10      -13.174505
   11      -13.172001
   12      -13.169355
   13       -8.351101
   14       -8.291738
   15       -8.291363
   16       -8.286467
   17       -8.284623
   18       -8.282170
   19       -8.279733
   20       -8.223430
   21       -6.242514
   22       -6.241263
   23       -6.240577
   24       -6.239115
   25       -3.474755
   26       -3.470480
   27       -3.467701
   28       -3.458056
   29       -3.452919
   30       -3.451875
   31       -3.451867
   32       -3.450804
   33       -3.447453
   34       -3.436701
   35       -3.434667
   36       -3.430608
   37       -2.118422
   38       -2.111628
   39       -2.108998
   40       -2.105653
   41       -2.100472
   42       -2.099867
   43       -2.097779
   44       -2.097762
   45       -2.093637
   46       -2.088859
   47       -2.085174
   48       -2.079461
   49       -1.693163
   50       -1.691074
   51       -1.688823
   52       -1.054854
   53       -1.051243
   54       -1.050805
   55       -1.050235
   56       -1.048377
   57       -1.046771
   58       -0.302232
   59       -0.299926
   60       -0.297763
   61        3.799434
   62        4.267478
   63        4.274130
   64        4.278387
   65        4.278683
   66        4.290302
   67        4.291577
   68        4.816530
   69       10.477540
   70       10.480643
   71       10.486192
   72       10.641230
   73       10.654270
   74       10.655890
   75       10.655991
   76       10.657112
   77       10.657791
   78       10.683958
   79       10.686280
   80       10.697420
   81       10.835649
   82       10.836638
   83       10.840099
   84       12.702356
 
  0.5000000E+00  0.3333333E+00  0.0000000E+00  0.1388889E-01
    1      -14.165238
    2      -14.071868
    3      -14.070525
    4      -13.973035
    5      -13.194191
    6      -13.106936
    7      -13.105555
    8      -13.014676
    9      -12.234599
   10      -12.153385
   11      -12.152189
   12      -12.067571
   13       -9.558752
   14       -9.499181
   15       -9.497783
   16       -9.437056
   17       -7.683298
   18       -7.643548
   19       -7.642999
   20       -7.602091
   21       -5.381447
   22       -5.352019
   23       -5.349999
   24       -5.318530
   25       -5.214421
   26       -5.180913
   27       -5.179560
   28       -5.145736
   29       -4.240148
   30       -4.205917
   31       -4.202112
   32       -4.167124
   33       -3.183030
   34       -3.161933
   35       -3.157607
   36       -3.135525
   37       -2.656125
   38       -2.150926
   39       -2.130407
   40       -2.127201
   41       -2.105652
   42       -1.987141
   43       -1.985677
   44       -1.629741
   45       -1.611567
   46       -1.609780
   47       -1.591313
   48       -1.506566
   49       -1.196977
   50       -0.874102
   51       -0.872754
   52       -0.741296
   53       -0.727604
   54       -0.726737
   55       -0.712755
   56       -0.388387
   57       -0.133875
   58        0.202713
   59        0.204776
   60        0.885813
   61        2.534492
   62        2.931533
   63        2.933650
   64        3.316285
   65        5.406357
   66        5.577605
   67        5.578408
   68        5.810671
   69        8.484665
   70        8.710459
   71        8.711699
   72        8.951336
   73        9.661567
   74        9.963727
   75       10.194857
   76       10.198968
   77       10.488037
   78       10.876469
   79       11.782098
   80       11.787168
   81       12.096357
   82       12.206825
   83       12.382063
   84       12.386815
 
 -0.3333333E+00  0.3333333E+00  0.0000000E+00  0.1388889E-01
    1      -14.655928
    2      -14.559502
    3      -14.558161
    4      -14.457244
    5      -12.714303
    6      -12.630025
    7      -12.628637
    8      -12.541154
    9      -10.848296
   10      -10.846568
   11      -10.777205
   12      -10.774237
   13      -10.774212
   14      -10.773728
   15      -10.700996
   16      -10.699268
   17       -7.142833
   18       -7.141121
   19       -7.095261
   20       -7.093346
   21       -7.093338
   22       -7.091660
   23       -7.044612
   24       -7.042718
   25       -5.371483
   26       -5.328909
   27       -5.325736
   28       -5.282488
   29       -3.766856
   30       -3.764744
   31       -3.739662
   32       -3.736014
   33       -3.735149
   34       -3.735145
   35       -3.707274
   36       -3.705627
   37       -3.245009
   38       -2.561548
   39       -2.559874
   40       -1.749044
   41       -1.468470
   42       -1.452503
   43       -1.451191
   44       -1.435060
   45       -1.045617
   46       -1.026553
   47       -1.021639
   48       -1.002834
   49       -0.955398
   50       -0.346768
   51       -0.345553
   52        0.146366
   53        0.158042
   54        0.160385
   55        0.172616
   56        0.358973
   57        1.132761
   58        1.134819
   59        1.627441
   60        1.631565
   61        1.631870
   62        1.632266
   63        2.169020
   64        2.171237
   65        6.539863
   66        6.542255
   67        6.794310
   68        6.796063
   69        6.796261
   70        6.799909
   71        7.112099
   72        7.114667
   73        8.875824
   74        9.046747
   75        9.173236
   76        9.177041
   77        9.562586
   78       11.251629
   79       11.254278
   80       11.427840
   81       11.935148
   82       12.003413
   83       12.003520
   84       12.219142
 
 -0.1666667E+00  0.3333333E+00  0.0000000E+00  0.1388889E-01
    1      -14.819799
    2      -14.722388
    3      -14.721057
    4      -14.618977
    5      -11.926437
    6      -11.919884
    7      -11.847967
    8      -11.845517
    9      -11.839823
   10      -11.839573
   11      -11.763624
   12      -11.757051
   13       -9.582378
   14       -9.544839
   15       -9.542203
   16       -9.509196
   17       -8.546319
   18       -8.525142
   19       -8.523437
   20       -8.494622
   21       -6.375444
   22       -6.366329
   23       -6.329177
   24       -6.325358
   25       -6.318016
   26       -6.317810
   27       -6.277845
   28       -6.268889
   29       -3.954024
   30       -3.924805
   31       -3.921498
   32       -3.891630
   33       -3.442446
   34       -2.754167
   35       -2.752469
   36       -2.282676
   37       -2.266278
   38       -2.262126
   39       -2.260803
   40       -2.245171
   41       -2.244474
   42       -2.239710
   43       -2.223019
   44       -1.934721
   45       -0.425703
   46       -0.415567
   47       -0.410555
   48       -0.402256
   49       -0.062371