  32  32   0   0
  0.8905205E+01  0.4932875E-09  0.4932875E-09  0.1352877E-08  0.5000000E-15
  1.000000000000000E-004
  CAR 
 graphite                                
     15.48249698    -17.01689552  301      4.60347874      1.00000000
    -17.017  0.0000E+00  0.0000E+00
    -16.909  0.0000E+00  0.0000E+00
    -16.800  0.0000E+00  0.0000E+00
    -16.692  0.0000E+00  0.0000E+00
    -16.584  0.0000E+00  0.0000E+00
    -16.475  0.0000E+00  0.0000E+00
    -16.367  0.0000E+00  0.0000E+00
    -16.259  0.0000E+00  0.0000E+00
    -16.150  0.0000E+00  0.0000E+00
    -16.042  0.0000E+00  0.0000E+00
    -15.934  0.0000E+00  0.0000E+00
    -15.825  0.0000E+00  0.0000E+00
    -15.717  0.0000E+00  0.0000E+00
    -15.609  0.0000E+00  0.0000E+00
    -15.500  0.0000E+00  0.0000E+00
    -15.392  0.0000E+00  0.0000E+00
    -15.284  0.0000E+00  0.0000E+00
    -15.175  0.0000E+00  0.0000E+00
    -15.067  0.0000E+00  0.0000E+00
    -14.959  0.1249E+01  0.2814E-01
    -14.850  0.2523E+01  0.2388E+00
    -14.742  0.4071E+01  0.5933E+00
    -14.634  0.4794E+01  0.1108E+01
    -14.525  0.5037E+01  0.1643E+01
    -14.417  0.4899E+01  0.2177E+01
    -14.309  0.4949E+01  0.2711E+01
    -14.200  0.4913E+01  0.3246E+01
    -14.092  0.4973E+01  0.3782E+01
    -13.984  0.4979E+01  0.4321E+01
    -13.875  0.5008E+01  0.4862E+01
    -13.767  0.5629E+01  0.5435E+01
    -13.659  0.5891E+01  0.6063E+01
    -13.550  0.6807E+01  0.6780E+01
    -13.442  0.4591E+01  0.7364E+01
    -13.334  0.1804E+01  0.7725E+01
    -13.225  0.3402E+01  0.7974E+01
    -13.117  0.4240E+01  0.8418E+01
    -13.009  0.4697E+01  0.8902E+01
    -12.900  0.5868E+01  0.9654E+01
    -12.792  0.6664E+01  0.1034E+02
    -12.684  0.4358E+01  0.1090E+02
    -12.575  0.4537E+01  0.1138E+02
    -12.467  0.4674E+01  0.1188E+02
    -12.359  0.4791E+01  0.1240E+02
    -12.250  0.5143E+01  0.1293E+02
    -12.142  0.5474E+01  0.1351E+02
    -12.034  0.5671E+01  0.1414E+02
    -11.925  0.5525E+01  0.1473E+02
    -11.817  0.5121E+01  0.1530E+02
    -11.709  0.4946E+01  0.1585E+02
    -11.600  0.4934E+01  0.1638E+02
    -11.492  0.5031E+01  0.1692E+02
    -11.384  0.5089E+01  0.1747E+02
    -11.275  0.5248E+01  0.1802E+02
    -11.167  0.5505E+01  0.1861E+02
    -11.059  0.5902E+01  0.1922E+02
    -10.950  0.5792E+01  0.1985E+02
    -10.842  0.5751E+01  0.2048E+02
    -10.734  0.5814E+01  0.2110E+02
    -10.625  0.5265E+01  0.2172E+02
    -10.517  0.4527E+01  0.2223E+02
    -10.409  0.5137E+01  0.2276E+02
    -10.300  0.5333E+01  0.2333E+02
    -10.192  0.5442E+01  0.2391E+02
    -10.084  0.5642E+01  0.2451E+02
     -9.975  0.5892E+01  0.2514E+02
     -9.867  0.7327E+01  0.2584E+02
     -9.759  0.1051E+02  0.2680E+02
     -9.650  0.7099E+01  0.2775E+02
     -9.542  0.7187E+01  0.2841E+02
     -9.434  0.5955E+01  0.2911E+02
     -9.325  0.3617E+01  0.2963E+02
     -9.217  0.3246E+01  0.3001E+02
     -9.109  0.2875E+01  0.3034E+02
     -9.000  0.2504E+01  0.3063E+02
     -8.892  0.2447E+01  0.3089E+02
     -8.784  0.2964E+01  0.3121E+02
     -8.675  0.1971E+01  0.3148E+02
     -8.567  0.1615E+01  0.3164E+02
     -8.459  0.2512E+01  0.3186E+02
     -8.350  0.6801E+01  0.3229E+02
     -8.242  0.4427E+01  0.3303E+02
     -8.134  0.3910E+01  0.3347E+02
     -8.025  0.4242E+01  0.3391E+02
     -7.917  0.6753E+01  0.3454E+02
     -7.809  0.6243E+01  0.3531E+02
     -7.700  0.7307E+01  0.3605E+02
     -7.592  0.8418E+01  0.3690E+02
     -7.484  0.8119E+01  0.3785E+02
     -7.375  0.6294E+01  0.3860E+02
     -7.267  0.6031E+01  0.3927E+02
     -7.159  0.5772E+01  0.3991E+02
     -7.050  0.5542E+01  0.4052E+02
     -6.942  0.5350E+01  0.4111E+02
     -6.834  0.5170E+01  0.4168E+02
     -6.725  0.4975E+01  0.4223E+02
     -6.617  0.4848E+01  0.4276E+02
     -6.509  0.4821E+01  0.4329E+02
     -6.400  0.4790E+01  0.4381E+02
     -6.292  0.4628E+01  0.4432E+02
     -6.184  0.4428E+01  0.4481E+02
     -6.075  0.4211E+01  0.4529E+02
     -5.967  0.4065E+01  0.4569E+02
     -5.859  0.4318E+01  0.4614E+02
     -5.750  0.4948E+01  0.4664E+02
     -5.642  0.5761E+01  0.4722E+02
     -5.534  0.6594E+01  0.4789E+02
     -5.425  0.1061E+02  0.4881E+02
     -5.317  0.8608E+01  0.4987E+02
     -5.209  0.6301E+01  0.5067E+02
     -5.100  0.3994E+01  0.5123E+02
     -4.992  0.2610E+01  0.5156E+02
     -4.884  0.3053E+01  0.5186E+02
     -4.775  0.4306E+01  0.5226E+02
     -4.667  0.5649E+01  0.5279E+02
     -4.559  0.7294E+01  0.5349E+02
     -4.450  0.8035E+01  0.5435E+02
     -4.342  0.6811E+01  0.5515E+02
     -4.234  0.5656E+01  0.5582E+02
     -4.125  0.7231E+01  0.5647E+02
     -4.017  0.7287E+01  0.5728E+02
     -3.909  0.6765E+01  0.5804E+02
     -3.800  0.6514E+01  0.5875E+02
     -3.692  0.6429E+01  0.5946E+02
     -3.584  0.8302E+01  0.6019E+02
     -3.475  0.1243E+02  0.6138E+02
     -3.367  0.8742E+01  0.6239E+02
     -3.259  0.7884E+01  0.6330E+02
     -3.150  0.7199E+01  0.6412E+02
     -3.042  0.6852E+01  0.6486E+02
     -2.934  0.7700E+01  0.6565E+02
     -2.825  0.8803E+01  0.6654E+02
     -2.717  0.1105E+02  0.6758E+02
     -2.609  0.1412E+02  0.6899E+02
     -2.501  0.1178E+02  0.7048E+02
     -2.392  0.1276E+02  0.7173E+02
     -2.284  0.1243E+02  0.7307E+02
     -2.176  0.1481E+02  0.7446E+02
     -2.067  0.1298E+02  0.7604E+02
     -1.959  0.1968E+02  0.7757E+02
     -1.851  0.1134E+02  0.7929E+02
     -1.742  0.1639E+02  0.8056E+02
     -1.634  0.1691E+02  0.8268E+02
     -1.526  0.1852E+02  0.8465E+02
     -1.417  0.1448E+02  0.8643E+02
     -1.309  0.1191E+02  0.8786E+02
     -1.201  0.1073E+02  0.8906E+02
     -1.092  0.8880E+01  0.9014E+02
     -0.984  0.7712E+01  0.9102E+02
     -0.876  0.1131E+02  0.9204E+02
     -0.767  0.1339E+02  0.9345E+02
     -0.659  0.1856E+02  0.9500E+02
     -0.551  0.8698E+01  0.9631E+02
     -0.442  0.9896E+01  0.9732E+02
     -0.334  0.1081E+02  0.9844E+02
     -0.226  0.1061E+02  0.9957E+02
     -0.117  0.1080E+02  0.1008E+03
     -0.009  0.9423E+01  0.1018E+03
      0.099  0.9642E+01  0.1028E+03
      0.208  0.9520E+01  0.1039E+03
      0.316  0.9738E+01  0.1050E+03
      0.424  0.9294E+01  0.1060E+03
      0.533  0.9261E+01  0.1070E+03
      0.641  0.9410E+01  0.1080E+03
      0.749  0.9373E+01  0.1090E+03
      0.858  0.9234E+01  0.1101E+03
      0.966  0.9351E+01  0.1111E+03
      1.074  0.9204E+01  0.1121E+03
      1.183  0.9530E+01  0.1131E+03
      1.291  0.9440E+01  0.1141E+03
      1.399  0.9466E+01  0.1152E+03
      1.508  0.9550E+01  0.1162E+03
      1.616  0.6731E+01  0.1171E+03
      1.724  0.6486E+01  0.1178E+03
      1.833  0.5925E+01  0.1185E+03
      1.941  0.4693E+01  0.1191E+03
      2.049  0.3817E+01  0.1195E+03
      2.158  0.4756E+01  0.1200E+03
      2.266  0.8092E+01  0.1206E+03
      2.374  0.1031E+02  0.1215E+03
      2.483  0.5673E+01  0.1223E+03
      2.591  0.8387E+01  0.1231E+03
      2.699  0.6472E+01  0.1239E+03
      2.808  0.5090E+01  0.1246E+03
      2.916  0.4247E+01  0.1251E+03
      3.024  0.3635E+01  0.1255E+03
      3.133  0.3263E+01  0.1259E+03
      3.241  0.3118E+01  0.1262E+03
      3.349  0.2744E+01  0.1265E+03
      3.458  0.2346E+01  0.1268E+03
      3.566  0.2003E+01  0.1270E+03
      3.674  0.1773E+01  0.1272E+03
      3.783  0.1534E+01  0.1274E+03
      3.891  0.1294E+01  0.1276E+03
      3.999  0.1062E+01  0.1277E+03
      4.108  0.8746E+00  0.1278E+03
      4.216  0.6589E+00  0.1279E+03
      4.324  0.4580E+00  0.1279E+03
      4.433  0.2697E+00  0.1280E+03
      4.541  0.9168E-01  0.1280E+03
      4.649  0.3979E-01  0.1280E+03
      4.758  0.1673E+00  0.1280E+03
      4.866  0.3061E+00  0.1280E+03
      4.974  0.4594E+00  0.1281E+03
      5.083  0.6293E+00  0.1281E+03
      5.191  0.8249E+00  0.1282E+03
      5.299  0.1097E+01  0.1283E+03
      5.408  0.1460E+01  0.1285E+03
      5.516  0.1829E+01  0.1286E+03
      5.624  0.2178E+01  0.1289E+03
      5.733  0.2594E+01  0.1291E+03
      5.841  0.3165E+01  0.1294E+03
      5.949  0.3702E+01  0.1298E+03
      6.058  0.4681E+01  0.1302E+03
      6.166  0.1033E+02  0.1310E+03
      6.274  0.8468E+01  0.1321E+03
      6.383  0.7967E+01  0.1330E+03
      6.491  0.8089E+01  0.1338E+03
      6.599  0.6845E+01  0.1347E+03
      6.708  0.6109E+01  0.1354E+03
      6.816  0.6016E+01  0.1360E+03
      6.924  0.5427E+01  0.1367E+03
      7.033  0.4746E+01  0.1372E+03
      7.141  0.3988E+01  0.1377E+03
      7.249  0.3562E+01  0.1381E+03
      7.358  0.3615E+01  0.1385E+03
      7.466  0.4052E+01  0.1389E+03
      7.574  0.4471E+01  0.1394E+03
      7.683  0.4773E+01  0.1399E+03
      7.791  0.4664E+01  0.1404E+03
      7.899  0.4500E+01  0.1409E+03
      8.008  0.4341E+01  0.1413E+03
      8.116  0.4178E+01  0.1418E+03
      8.224  0.3992E+01  0.1422E+03
      8.333  0.3820E+01  0.1427E+03
      8.441  0.3679E+01  0.1431E+03
      8.549  0.3576E+01  0.1435E+03
      8.658  0.3507E+01  0.1439E+03
      8.766  0.3406E+01  0.1442E+03
      8.874  0.3326E+01  0.1446E+03
      8.983  0.3546E+01  0.1450E+03
      9.091  0.3763E+01  0.1454E+03
      9.199  0.3961E+01  0.1458E+03
      9.308  0.4075E+01  0.1462E+03
      9.416  0.4165E+01  0.1467E+03
      9.524  0.3993E+01  0.1471E+03
      9.633  0.3946E+01  0.1475E+03
      9.741  0.3934E+01  0.1480E+03
      9.849  0.3929E+01  0.1484E+03
      9.958  0.3947E+01  0.1488E+03
     10.066  0.3966E+01  0.1492E+03
     10.174  0.4020E+01  0.1497E+03
     10.283  0.4089E+01  0.1501E+03
     10.391  0.4226E+01  0.1506E+03
     10.499  0.4272E+01  0.1510E+03
     10.608  0.5570E+01  0.1516E+03
     10.716  0.5076E+01  0.1522E+03
     10.824  0.4965E+01  0.1528E+03
     10.933  0.4633E+01  0.1532E+03
     11.041  0.4884E+01  0.1537E+03
     11.149  0.3765E+01  0.1542E+03
     11.258  0.3464E+01  0.1546E+03
     11.366  0.3670E+01  0.1550E+03
     11.474  0.4279E+01  0.1554E+03
     11.583  0.2905E+01  0.1559E+03
     11.691  0.2612E+01  0.1561E+03
     11.799  0.3748E+01  0.1565E+03
     11.908  0.6856E+01  0.1570E+03
     12.016  0.8425E+01  0.1578E+03
     12.124  0.1127E+02  0.1589E+03
     12.233  0.1338E+02  0.1602E+03
     12.341  0.1395E+02  0.1617E+03
     12.449  0.1289E+02  0.1632E+03
     12.558  0.9973E+01  0.1644E+03
     12.666  0.7131E+01  0.1653E+03
     12.774  0.5987E+01  0.1660E+03
     12.883  0.5385E+01  0.1667E+03
     12.991  0.4998E+01  0.1672E+03
     13.099  0.2801E+01  0.1677E+03
     13.208  0.1495E+01  0.1679E+03
     13.316  0.4335E+00  0.1680E+03
     13.424  0.1072E-02  0.1680E+03
     13.533  0.0000E+00  0.1680E+03
     13.641  0.0000E+00  0.1680E+03
     13.749  0.0000E+00  0.1680E+03
     13.858  0.0000E+00  0.1680E+03
     13.966  0.0000E+00  0.1680E+03
     14.074  0.0000E+00  0.1680E+03
     14.183  0.0000E+00  0.1680E+03
     14.291  0.0000E+00  0.1680E+03
     14.399  0.0000E+00  0.1680E+03
     14.508  0.0000E+00  0.1680E+03
     14.616  0.0000E+00  0.1680E+03
     14.724  0.0000E+00  0.1680E+03
     14.833  0.0000E+00  0.1680E+03
     14.941  0.0000E+00  0.1680E+03
     15.049  0.0000E+00  0.1680E+03
     15.158  0.0000E+00  0.1680E+03
     15.266  0.0000E+00  0.1680E+03
     15.374  0.0000E+00  0.1680E+03
     15.482  0.0000E+00  0.1680E+03
