   32   32    1    1
  0.8948858E+01  0.4932875E-09  0.4932875E-09  0.1359509E-08  0.5000000E-15
  1.000000000000000E-004
  CAR 
 graphite                                
    128    163     81
 
  0.0000000E+00  0.0000000E+00  0.0000000E+00  0.3086420E-02
    1      -15.054568
    2      -14.923418
    3      -14.922930
    4      -14.783389
    5       -9.738267
    6       -9.730012
    7       -9.726890
    8       -9.684760
    9       -9.684356
   10       -9.676506
   11       -9.673038
   12       -9.673034
   13       -9.670926
   14       -9.638847
   15       -9.627909
   16       -9.625488
   17       -8.666535
   18       -8.663065
   19       -8.661446
   20       -8.638654
   21       -8.634985
   22       -8.632950
   23       -8.632388
   24       -8.632386
   25       -8.628821
   26       -8.591287
   27       -8.586582
   28       -8.584036
   29       -3.882315
   30       -3.050930
   31       -3.049316
   32       -2.043195
   33       -1.839165
   34       -1.836402
   35       -1.817574
   36       -1.815916
   37       -1.812269
   38       -1.812264
   39       -1.811318
   40       -1.793573
   41       -1.791723
   42       -1.789211
   43       -1.786743
   44       -1.767583
   45        1.549348
   46        1.560185
   47        1.564540
   48        1.571115
   49        1.574142
   50        1.580668
   51        1.584474
   52        1.594648
   53        1.835889
   54        1.837248
   55        1.839159
   56        2.206853
   57        2.208560
   58        2.210938
   59        2.214468
   60        2.214475
   61        2.215785
   62        2.467372
   63        2.481341
   64        2.483151
   65        6.074718
   66        6.076821
   67        6.077341
   68        6.214961
   69        6.220831
   70        6.225156
   71        6.226254
   72        6.226528
   73        6.232158
   74        6.707140
   75        6.720412
   76        6.723529
   77        8.763345
   78       11.298149
   79       11.301441
   80       11.780136
   81       11.793104
 
  0.1111111E+00 -0.1387779E-16  0.0000000E+00  0.6172840E-02
    1      -14.980981
    2      -14.850316
    3      -14.849831
    4      -14.710969
    5      -10.522752
    6      -10.429771
    7      -10.429158
    8      -10.332903
    9       -9.985066
   10       -9.976773
   11       -9.905124
   12       -9.904827
   13       -9.896144
   14       -9.895787
   15       -9.824222
   16       -9.814971
   17       -8.360410
   18       -8.353770
   19       -8.297584
   20       -8.294685
   21       -8.289349
   22       -8.289169
   23       -8.225416
   24       -8.218424
   25       -7.840003
   26       -7.767797
   27       -7.766125
   28       -7.690581
   29       -3.793006
   30       -2.963854
   31       -2.962243
   32       -2.063525
   33       -2.044177
   34       -2.036430
   35       -2.036121
   36       -2.017800
   37       -2.015719
   38       -2.008470
   39       -1.988946
   40       -1.959420
   41       -1.765857
   42       -1.742699
   43       -1.739948
   44       -1.716807
   45        1.250395
   46        1.268507
   47        1.278299
   48        1.282436
   49        1.293762
   50        1.397521
   51        1.408082
   52        1.412372
   53        1.421172
   54        1.722130
   55        1.724625
   56        1.785431
   57        1.787626
   58        2.155203
   59        2.156780
   60        2.162120
   61        2.162890
   62        2.316358
   63        2.514859
   64        2.527595
   65        6.155529
   66        6.157042
   67        6.346434
   68        6.352077
   69        6.356677
   70        6.358847
   71        6.459185
   72        6.766695
   73        6.770764
   74        6.842612
   75        6.854431
   76        7.317204
   77        8.852637
   78       11.376659
   79       11.379939
   80       11.820180
   81       11.993381
 
  0.2222222E+00 -0.2775558E-16  0.0000000E+00  0.6172840E-02
    1      -14.760389
    2      -14.631433
    3      -14.630956
    4      -14.494024
    5      -11.533348
    6      -11.429451
    7      -11.429050
    8      -11.320506
    9      -10.331386
   10      -10.325639
   11      -10.240531
   12      -10.239795
   13      -10.234167
   14      -10.233785
   15      -10.145280
   16      -10.139206
   17       -7.679064
   18       -7.669801
   19       -7.609759
   20       -7.607246
   21       -7.599234
   22       -7.598956
   23       -7.534346
   24       -7.525027
   25       -6.514601
   26       -6.447295
   27       -6.445760
   28       -6.375987
   29       -3.525780
   30       -2.703625
   31       -2.702018
   32       -2.669940
   33       -2.651673
   34       -2.636421
   35       -2.636167
   36       -2.618967
   37       -2.616761
   38       -2.601620
   39       -2.583183
   40       -1.709071
   41       -1.550997
   42       -1.528354
   43       -1.525463
   44       -1.502762
   45        0.236502
   46        0.442543
   47        0.459908
   48        0.463827
   49        0.481871
   50        0.896267
   51        0.897940
   52        0.978078
   53        0.991671
   54        0.996209
   55        1.008799
   56        1.503890
   57        1.506965
   58        1.643227
   59        2.034224
   60        2.035231
   61        2.039562
   62        2.040902
   63        2.561498
   64        2.570258
   65        6.408246
   66        6.412124
   67        6.681111
   68        6.686344
   69        6.690848
   70        6.692770
   71        7.153058
   72        7.161315
   73        7.598539
   74        7.989272
   75        7.992583
   76        8.528966
   77        9.121198
   78       11.611146
   79       11.614415
   80       11.935160
   81       12.101361
 
  0.3333333E+00  0.0000000E+00  0.0000000E+00  0.6172840E-02
    1      -14.394032
    2      -14.267894
    3      -14.267431
    4      -14.133676
    5      -12.446023
    6      -12.334879
    7      -12.334489
    8      -12.217532
    9      -10.587517
   10      -10.583890
   11      -10.492604
   12      -10.491509
   13      -10.488294
   14      -10.487767
   15      -10.392431
   16      -10.388626
   17       -6.871363
   18       -6.860649
   19       -6.807682
   20       -6.805047
   21       -6.795927
   22       -6.795387
   23       -6.739189
   24       -6.728710
   25       -5.081223
   26       -5.023115
   27       -5.021385
   28       -4.961606
   29       -3.484935
   30       -3.469025
   31       -3.445289
   32       -3.445099
   33       -3.430248
   34       -3.427903
   35       -3.404126
   36       -3.387954
   37       -3.083358
   38       -2.273478
   39       -2.271878
   40       -1.296269
   41       -1.201915
   42       -1.180441
   43       -1.177332
   44       -1.155436
   45       -0.782868
   46       -0.742400
   47       -0.715452
   48       -0.711915
   49       -0.684755
   50       -0.057362
   51       -0.055821
   52        0.415895
   53        0.432308
   54        0.436476
   55        0.452647
   56        0.793861
   57        1.314578
   58        1.317265
   59        1.910445
   60        1.910944
   61        1.913909
   62        1.915899
   63        2.559170
   64        2.564471
   65        6.770114
   66        6.775388
   67        7.073063
   68        7.077815
   69        7.081238
   70        7.082702
   71        7.465868
   72        7.470577
   73        9.105844
   74        9.466948
   75        9.469739
   76        9.569549
   77        9.939995
   78       11.877020
   79       11.984813
   80       11.988350
   81       12.181979
 
  0.4444444E+00 -0.5551115E-16  0.0000000E+00  0.6172840E-02
    1      -13.883741
    2      -13.761539
    3      -13.761087
    4      -13.631772
    5      -13.232704
    6      -13.115406
    7      -13.115006
    8      -12.991286
    9      -10.719361
   10      -10.717342
   11      -10.623268
   12      -10.621632
   13      -10.620580
   14      -10.619609
   15      -10.520756
   16      -10.518702
   17       -6.122226
   18       -6.114251
   19       -6.076692
   20       -6.073358
   21       -6.068046
   22       -6.066594
   23       -6.028076
   24       -6.021069
   25       -4.232814
   26       -4.224104
   27       -4.200665
   28       -4.199349
   29       -4.192077
   30       -4.189282
   31       -4.163445
   32       -4.153771
   33       -3.600754
   34       -3.552944
   35       -3.550811
   36       -3.501807
   37       -2.470800
   38       -2.128838
   39       -2.091751
   40       -2.089121
   41       -2.050709
   42       -1.697896
   43       -1.678788
   44       -1.677362
   45       -0.933063
   46       -0.931532
   47       -0.735945
   48       -0.728782
   49       -0.715454
   50       -0.712017
   51       -0.691507
   52       -0.180771
   53       -0.162025
   54       -0.158355
   55       -0.139372
   56       -0.021857
   57        1.209771
   58        1.211822
   59        1.835844
   60        1.836777
   61        1.837855
   62        1.840654
   63        2.542744
   64        2.545522
   65        7.057338
   66        7.060987
   67        7.341030
   68        7.345704
   69        7.346836
   70        7.347570
   71        7.642005
   72        7.644694
   73       10.193792
   74       10.727372
   75       10.984381
   76       11.005798
   77       11.010914
   78       11.400325
   79       12.275018
   80       12.291103
   81       12.339161
 
 -0.6776264E-20  0.1111111E+00  0.0000000E+00  0.6172840E-02
    1      -14.980983
    2      -14.850318
    3      -14.849831
    4      -14.710971
    5      -10.522673
    6      -10.429612
    7      -10.429145
    8      -10.332809
    9       -9.985053
   10       -9.977070
   11       -9.905120
   12       -9.904823
   13       -9.896486
   14       -9.896067
   15       -9.824192
   16       -9.815342
   17       -8.360531
   18       -8.352552
   19       -8.297874
   20       -8.294685
   21       -8.289232
   22       -8.286653
   23       -8.225510
   24       -8.217077
   25       -7.840929
   26       -7.768062
   27       -7.767747
   28       -7.691543
   29       -3.793001
   30       -2.963848
   31       -2.962238
   32       -2.064828
   33       -2.044051
   34       -2.038826
   35       -2.036127
   36       -2.017800
   37       -2.015736
   38       -2.009786
   39       -1.989106
   40       -1.959414
   41       -1.764394
   42       -1.740158
   43       -1.739941
   44       -1.715667
   45        1.250607
   46        1.266944
   47        1.277608
   48        1.278301
   49        1.289178
   50        1.402312
   51        1.412371
   52        1.413079
   53        1.423148
   54        1.721907
   55        1.723612
   56        1.787126
   57        1.787880
   58        2.155191
   59        2.156780
   60        2.160276
   61        2.162261
   62        2.317440
   63        2.514878
   64        2.526419
   65        6.156219
   66        6.158170
   67        6.346866
   68        6.352022
   69        6.357382
   70        6.361916
   71        6.457433
   72        6.765653
   73        6.768293
   74        6.842754
   75        6.856528
   76        7.315419
   77        8.852642
   78       11.376684
   79       11.379963
   80       11.820611
   81       11.993624
 
  0.1111111E+00  0.1111111E+00  0.0000000E+00  0.6172840E-02
    1      -14.833769
    2      -14.704220
    3      -14.703741
    4      -14.566160
    5      -10.987857
    6      -10.984875
    7      -10.890455
    8      -10.887143
    9      -10.887123
   10      -10.884487
   11      -10.785378
   12      -10.782373
   13       -9.549094
   14       -9.496745
   15       -9.495588
   16       -9.451579
   17       -8.482361
   18       -8.455413
   19       -8.452076
   20       -8.410272
   21       -7.157819
   22       -7.154705
   23       -7.088214
   24       -7.085577
   25       -7.085556
   26       -7.081793
   27       -7.012956
   28       -7.009613
   29       -3.614580
   30       -2.790076
   31       -2.788470
   32       -2.727055
   33       -2.693885
   34       -2.691905
   35       -2.658099
   36       -1.920383
   37       -1.917419
   38       -1.895164
   39       -1.891163
   40       -1.891158
   41       -1.889979
   42       -1.865792
   43       -1.863410
   44       -1.792220
   45        0.739418
   46        0.749473
   47        0.753067
   48        0.763721
   49        0.819271
   50        0.822424
   51        1.082525
   52        1.092376
   53        1.096468
   54        1.104498
   55        1.425372
   56        1.428610
   57        1.428727
   58        1.430302
   59        2.085014
   60        2.087295
   61        2.104658
   62        2.472936
   63        2.475297
   64        2.728970
   65        6.056582
   66        6.143006
   67        6.148038
   68        6.540011
   69        6.945473
   70        6.947838
   71        7.307709
   72        7.309510
   73        7.309977
   74        7.314297
   75        7.842747
   76        7.845429
   77        9.031880
   78       11.534404
   79       11.537674
   80       12.193763
   81       12.198666
 
  0.2222222E+00  0.1111111E+00  0.0000000E+00  0.6172840E-02
    1      -14.540213
    2      -14.412924
    3      -14.412458
    4      -14.277412
    5      -11.952757
    6      -11.845573
    7      -11.845164
    8      -11.732807
    9      -11.328516
   10      -11.226547
   11      -11.226097
   12      -11.119264
   13       -9.599217
   14       -9.522453
   15       -9.521940
   16       -9.444748
   17       -8.013521
   18       -7.955191
   19       -7.952352
   20       -7.888205
   21       -6.373115
   22       -6.308365
   23       -6.307719
   24       -6.240806
   25       -5.774153
   26       -5.712052
   27       -5.710490
   28       -5.646440
   29       -3.634944
   30       -3.594308
   31       -3.592371
   32       -3.550552
   33       -3.259600
   34       -2.445155
   35       -2.444442
   36       -2.443109
   37       -2.412334
   38       -2.412171
   39       -2.379075
   40       -1.633366
   41       -1.608649
   42       -1.605828
   43       -1.580788
   44       -1.460459
   45       -0.220711
   46       -0.213884
   47       -0.196765
   48       -0.191897
   49       -0.174007
   50        0.475585
   51        0.477374
   52        0.486802
   53        0.539212
   54        0.552226
   55        0.556960
   56        0.569397
   57        1.140229
   58        1.141334
   59        1.280947
   60        1.879895
   61        2.242126
   62        2.675298
   63        2.677533
   64        3.034100
   65        6.034939
   66        6.151636
   67        6.156296
   68        6.488382
   69        7.521841
   70        7.878294
   71        7.880675
   72        8.304537
   73        8.334771
   74        8.680140
   75        8.682958
   76        9.167481
   77        9.391224
   78       11.847430
   79       11.850756
   80       12.302873
   81       12.504657
 
  0.3333333E+00  0.1111111E+00  0.0000000E+00  0.6172840E-02
    1      -14.101797
    2      -13.977843
    3      -13.977394
    4      -13.846204
    5      -12.803032
    6      -12.689103
    7      -12.688695
    8      -12.568746
    9      -11.537410
   10      -11.433600
   11      -11.433120
   12      -11.324285
   13       -9.742817
   14       -9.656745
   15       -9.656493
   16       -9.567318
   17       -7.247447
   18       -7.188972
   19       -7.186279
   20       -7.125564
   21       -5.574469
   22       -5.521358
   23       -5.520026
   24       -5.465923
   25       -4.573166
   26       -4.530784
   27       -4.528703
   28       -4.484091
   29       -4.324853
   30       -4.272748
   31       -4.270977
   32       -4.217625
   33       -3.143091
   34       -3.108467
   35       -3.107519
   36       -3.071242
   37       -2.731748
   38       -1.932486
   39       -1.930840
   40       -1.461121
   41       -1.431115
   42       -1.427618
   43       -1.398281
   44       -1.217115
   45       -1.193743
   46       -1.192529
   47       -1.190741
   48       -1.167248
   49       -0.969777
   50       -0.447794
   51       -0.446300
   52       -0.084448
   53       -0.066852
   54       -0.062365
   55       -0.044899
   56        0.277909
   57        0.434148
   58        0.956047
   59        0.957256
   60        1.739305
   61        2.242859
   62        2.765574
   63        2.767406
   64        3.294179
   65        6.037363
   66        6.271454
   67        6.275236
   68        6.589434
   69        8.029001
   70        8.332891
   71        8.335170
   72        8.669016
   73        9.868640
   74        9.929424
   75       10.186257
   76       10.189104
   77       10.592898
   78       11.516165
   79       12.276904
   80       12.281830
   81       12.592745
 
  0.4444444E+00  0.1111111E+00  0.0000000E+00  0.6172840E-02
    1      -13.522986
    2      -13.520051
    3      -13.404707
    4      -13.402104
    5      -13.401153
    6      -13.399052
    7      -13.276816
    8      -13.273839
    9      -11.607883
   10      -11.503686
   11      -11.503190
   12      -11.393726
   13       -9.797604
   14       -9.709760
   15       -9.709435
   16       -9.618153
   17       -6.738802
   18       -6.701591
   19       -6.699043
   20       -6.663776
   21       -5.103577
   22       -5.097140
   23       -5.074906
   24       -5.074075
   25       -5.071906
   26       -5.070079
   27       -5.044745
   28       -5.040738
   29       -3.558190
   30       -3.538193
   31       -3.535440
   32       -3.511011
   33       -2.866075
   34       -2.862961
   35       -2.824442
   36       -2.824187
   37       -2.822454
   38       -2.818017
   39       -2.780926
   40       -2.777008
   41       -2.039783
   42       -2.037363
   43       -1.263483
   44       -1.260599
   45       -1.259769
   46       -1.257861
   47       -0.693324
   48       -0.686345
   49       -0.671836
   50       -0.665555
   51       -0.663401
   52       -0.663326
   53       -0.644831
   54       -0.640945
   55       -0.332677
   56       -0.330006
   57        0.206498
   58        0.892353
   59        0.893646
   60        1.689156
   61        2.232193
   62        2.788747
   63        2.790078
   64        3.389630
   65        6.052829
   66        6.339873
   67        6.342572
   68        6.645347
   69        8.246408
   70        8.509631
   71        8.512199
   72        8.774823
   73       10.640851
   74       10.642470
   75       11.458838
   76       11.462071
   77       11.674367
   78       11.678247
   79       11.679064
   80       11.685356
   81       12.011995
 
 -0.4444444E+00  0.1111111E+00  0.0000000E+00  0.6172840E-02
    1      -14.102563
    2      -13.978614
    3      -13.978151
    4      -13.846966
    5      -12.801826
    6      -12.687898
    7      -12.687511
    8      -12.567543
    9      -11.539191
   10      -11.435332
   11      -11.434836
   12      -11.326085
   13       -9.740127
   14       -9.653915
   15       -9.653544
   16       -9.564319
   17       -7.239069
   18       -7.179801
   19       -7.178795
   20       -7.117394
   21       -5.585848
   22       -5.533187
   23       -5.530411
   24       -5.476742
   25       -4.585324
   26       -4.542358
   27       -4.541908
   28       -4.496688
   29       -4.327061
   30       -4.275177
   31       -4.273055
   32       -4.219830
   33       -3.128690
   34       -3.094661
   35       -3.091986
   36       -3.056346
   37       -2.732490
   38       -1.933200
   39       -1.931573
   40       -1.461030
   41       -1.430487
   42       -1.428398
   43       -1.398630
   44       -1.215085
   45       -1.192009
   46       -1.191356
   47       -1.188541
   48       -1.165134
   49       -0.970476
   50       -0.446782
   51       -0.445230
   52       -0.084093
   53       -0.066467
   54       -0.063363
   55       -0.045485
   56        0.276506
   57        0.435111
   58        0.954304
   59        0.955686
   60        1.737169
   61        2.243606
   62        2.768509
   63        2.769350
   64        3.300028
   65        6.038647
   66        6.275244
   67        6.277310
   68        6.591154
   69        8.023510
   70        8.327732
   71        8.330988
   72        8.666552
   73        9.869010
   74        9.928411
   75       10.185707
   76       10.188813
   77       10.591836
   78       11.517636
   79       12.276610
   80       12.281491
   81       12.586972
 
 -0.3333333E+00  0.1111111E+00  0.0000000E+00  0.6172840E-02
    1      -14.540754
    2      -14.413474
    3      -14.412997
    4      -14.277964
    5      -11.951336
    6      -11.844202
    7      -11.843824
    8      -11.731383
    9      -11.332107
   10      -11.230171
   11      -11.229697
   12      -11.122905
   13       -9.593413
   14       -9.516084
   15       -9.515709
   16       -9.437856
   17       -8.006724
   18       -7.946847
   19       -7.946372
   20       -7.880780
   21       -6.384701
   22       -6.320666
   23       -6.318383
   24       -6.252336
   25       -5.776468
   26       -5.714470
   27       -5.712768
   28       -5.648775
   29       -3.650791
   30       -3.609346
   31       -3.609174
   32       -3.566612
   33       -3.260141
   34       -2.445263
   35       -2.443669
   36       -2.426560
   37       -2.395065
   38       -2.392722
   39       -2.360602
   40       -1.631664
   41       -1.607039
   42       -1.603988
   43       -1.579059
   44       -1.460972
   45       -0.221251
   46       -0.216174
   47       -0.199686
   48       -0.197170
   49       -0.179308
   50        0.476877
   51        0.478561
   52        0.483943
   53        0.544926
   54        0.557308
   55        0.559604
   56        0.572660
   57        1.136794
   58        1.138305
   59        1.281903
   60        1.875539
   61        2.242650
   62        2.680778
   63        2.681211
   64        3.045611
   65        6.034308
   66        6.157826
   67        6.160020
   68        6.494513
   69        7.514763
   70        7.870007
   71        7.873880
   72        8.304389
   73        8.328751
   74        8.679222
   75        8.682303
   76        9.166183
   77        9.390476
   78       11.846831
   79       11.850146
   80       12.300901
   81       12.501927
 
 -0.2222222E+00  0.1111111E+00  0.0000000E+00  0.6172840E-02
    1      -14.834101
    2      -14.704556
    3      -14.704070
    4      -14.566495
    5      -10.991736
    6      -10.984719
    7      -10.892994
    8      -10.892580
    9      -10.885936
   10      -10.885497
   11      -10.789481
   12      -10.782353
   13       -9.539533
   14       -9.485700
   15       -9.485362
   16       -9.439747
   17       -8.479342
   18       -8.450237
   19       -8.449931
   20       -8.405947
   21       -7.166564
   22       -7.157897
   23       -7.096645
   24       -7.094529
   25       -7.087742
   26       -7.086172
   27       -7.021669
   28       -7.013094
   29       -3.614907
   30       -2.790396
   31       -2.788796
   32       -2.744835
   33       -2.710885
   34       -2.710582
   35       -2.676007
   36       -1.918373
   37       -1.898485
   38       -1.892794
   39       -1.889969
   40       -1.872702
   41       -1.870449
   42       -1.864178
   43       -1.844364
   44       -1.792534
   45        0.727313
   46        0.738455
   47        0.739536
   48        0.750178
   49        0.817497
   50        0.821591
   51        1.097681
   52        1.106295
   53        1.106348
   54        1.115832
   55        1.423071
   56        1.424775
   57        1.427971
   58        1.429916
   59        2.079860
   60        2.086417
   61        2.104726
   62        2.479927
   63        2.480257
   64        2.743917
   65        6.054109
   66        6.150513
   67        6.153023
   68        6.550501
   69        6.939764
   70        6.947215
   71        7.298803
   72        7.303112
   73        7.308557
   74        7.312244
   75        7.834726
   76        7.843525
   77        9.031416
   78       11.533974
   79       11.537241
   80       12.192324
   81       12.229033
 
 -0.1111111E+00  0.1111111E+00  0.0000000E+00  0.6172840E-02
    1      -14.981092
    2      -14.850428
    3      -14.849939
    4      -14.711079
    5      -10.530038
    6      -10.437042
    7      -10.436740
    8      -10.340482
    9       -9.976769
   10       -9.974476
   11       -9.897598
   12       -9.894701
   13       -9.894688
   14       -9.893072
   15       -9.815069
   16       -9.812854
   17       -8.355669
   18       -8.353883
   19       -8.291797
   20       -8.290821
   21       -8.290809
   22       -8.288022
   23       -8.220553
   24       -8.218587
   25       -7.848591
   26       -7.776651
   27       -7.774484
   28       -7.699242
   29       -3.793110
   30       -2.963955
   31       -2.962347
   32       -2.065168
   33       -2.062500
   34       -2.039556
   35       -2.035727
   36       -2.035722
   37       -2.034895
   38       -2.009877
   39       -2.007752
   40       -1.959520
   41       -1.744709
   42       -1.721357
   43       -1.719129
   44       -1.695738
   45        1.243527
   46        1.253850
   47        1.262466
   48        1.266186
   49        1.276121
   50        1.415613
   51        1.424516
   52        1.428475
   53        1.439302
   54        1.723132
   55        1.725616
   56        1.780733
   57        1.782695
   58        2.158941
   59        2.162730
   60        2.162817
   61        2.163686
   62        2.307925
   63        2.526061
   64        2.528048
   65        6.156210
   66        6.158385
   67        6.355137
   68        6.357011
   69        6.357264
   70        6.362551
   71        6.453926
   72        6.756388
   73        6.761076
   74        6.853059
   75        6.856111
   76        7.305433
   77        8.852485
   78       11.376528
   79       11.379807
   80       11.855170
   81       12.031431
 
 -0.2710505E-19  0.2222222E+00  0.0000000E+00  0.6172840E-02
    1      -14.760395
    2      -14.631443
    3      -14.630959
    4      -14.494030
    5      -11.533383
    6      -11.429511
    7      -11.429060
    8      -11.320541
    9      -10.331536
   10      -10.325597
   11      -10.240985
   12      -10.239803
   13      -10.234138
   14      -10.233493
   15      -10.145371
   16      -10.139155
   17       -7.679223
   18       -7.668727
   19       -7.610145
   20       -7.607246
   21       -7.599002
   22       -7.596712
   23       -7.534406
   24       -7.523789
   25       -6.515465
   26       -6.447586
   27       -6.447253
   28       -6.376909
   29       -3.525761
   30       -2.703598
   31       -2.702001
   32       -2.671236
   33       -2.651729
   34       -2.638764
   35       -2.636177
   36       -2.618967
   37       -2.616962
   38       -2.602777
   39       -2.583327
   40       -1.709043
   41       -1.549461
   42       -1.525724
   43       -1.525458
   44       -1.501593
   45        0.236972
   46        0.440751
   47        0.459402
   48        0.459910
   49        0.478845
   50        0.897094
   51        0.898223
   52        0.981732
   53        0.996067
   54        0.996210
   55        1.010485
   56        1.503439
   57        1.506373
   58        1.643923
   59        2.033938
   60        2.034629
   61        2.039131
   62        2.039952
   63        2.561379
   64        2.569151
   65        6.408501
   66        6.413876
   67        6.681618
   68        6.686300
   69        6.691628
   70        6.695663
   71        7.153269
   72        7.163225
   73        7.597106
   74        7.988351
   75        7.990873
   76        8.527668
   77        9.121213
   78       11.611237
   79       11.614501
   80       11.935739
   81       12.102591
 
  0.1111111E+00  0.2222222E+00  0.0000000E+00  0.6172840E-02
    1      -14.540217
    2      -14.412931
    3      -14.412460
    4      -14.277417
    5      -11.952809
    6      -11.845663
    7      -11.845179
    8      -11.732860
    9      -11.328480
   10      -11.226486
   11      -11.226087
   12      -11.119230
   13       -9.599208
   14       -9.522452
   15       -9.521925
   16       -9.444740
   17       -8.013460
   18       -7.955074
   19       -7.952352
   20       -7.888146
   21       -6.372141
   22       -6.307741
   23       -6.306344
   24       -6.239779
   25       -5.775106
   26       -5.712492
   27       -5.712025
   28       -5.647465
   29       -3.635019
   30       -3.594308
   31       -3.592531
   32       -3.550639
   33       -3.259585
   34       -2.446371
   35       -2.444638
   36       -2.443102
   37       -2.414853
   38       -2.412314
   39       -2.380320
   40       -1.631789
   41       -1.605892
   42       -1.605802
   43       -1.579529
   44       -1.460437
   45       -0.220760
   46       -0.214256
   47       -0.196765
   48       -0.193785
   49       -0.175807
   50        0.476274
   51        0.477558
   52        0.486345
   53        0.541471
   54        0.554114
   55        0.556959
   56        0.570065
   57        1.139404
   58        1.140949
   59        1.281508
   60        1.879153
   61        2.241956
   62        2.675296
   63        2.677232
   64        3.034008
   65        6.035028
   66        6.152105
   67        6.156321
   68        6.488750
   69        7.523401
   70        7.879635
   71        7.882202
   72        8.303189
   73        8.336123
   74        8.679026
   75        8.681585
   76        9.166266
   77        9.391229
   78       11.847490
   79       11.850811
   80       12.303549
   81       12.506075
 
  0.2222222E+00  0.2222222E+00  0.0000000E+00  0.6172840E-02
    1      -14.174593
    2      -14.050082
    3      -14.049629
    4      -13.917790
    5      -12.237345
    6      -12.234473
    7      -12.129274
    8      -12.126098
    9      -12.126078
   10      -12.123507