   4   4   0   0
  0.8880211E+01  0.2466437E-09  0.2466437E-09  0.6745400E-09  0.5000000E-15
  1.000000000000000E-004
  CAR 
 graphite                                
     18.49771779    -16.99602714  301      4.62462177      1.00000000
    -16.996  0.0000E+00  0.0000E+00
    -16.878  0.0000E+00  0.0000E+00
    -16.759  0.0000E+00  0.0000E+00
    -16.641  0.0000E+00  0.0000E+00
    -16.523  0.0000E+00  0.0000E+00
    -16.404  0.0000E+00  0.0000E+00
    -16.286  0.0000E+00  0.0000E+00
    -16.168  0.0000E+00  0.0000E+00
    -16.050  0.0000E+00  0.0000E+00
    -15.931  0.0000E+00  0.0000E+00
    -15.813  0.0000E+00  0.0000E+00
    -15.695  0.0000E+00  0.0000E+00
    -15.576  0.0000E+00  0.0000E+00
    -15.458  0.0000E+00  0.0000E+00
    -15.340  0.0000E+00  0.0000E+00
    -15.221  0.0000E+00  0.0000E+00
    -15.103  0.0000E+00  0.0000E+00
    -14.985  0.2348E-04  0.8894E-07
    -14.866  0.1199E-02  0.6043E-04
    -14.748  0.1959E-02  0.2579E-03
    -14.630  0.3058E-02  0.5557E-03
    -14.511  0.3008E-02  0.9239E-03
    -14.393  0.3147E-02  0.1291E-02
    -14.275  0.3117E-02  0.1662E-02
    -14.157  0.3021E-02  0.2026E-02
    -14.038  0.3031E-02  0.2381E-02
    -13.920  0.3141E-02  0.2747E-02
    -13.802  0.3178E-02  0.3123E-02
    -13.683  0.3159E-02  0.3498E-02
    -13.565  0.3067E-02  0.3868E-02
    -13.447  0.3058E-02  0.4230E-02
    -13.328  0.3078E-02  0.4592E-02
    -13.210  0.3125E-02  0.4959E-02
    -13.092  0.3183E-02  0.5332E-02
    -12.973  0.3222E-02  0.5712E-02
    -12.855  0.3193E-02  0.6092E-02
    -12.737  0.3145E-02  0.6467E-02
    -12.618  0.3118E-02  0.6837E-02
    -12.500  0.3134E-02  0.7207E-02
    -12.382  0.3150E-02  0.7578E-02
    -12.264  0.3174E-02  0.7952E-02
    -12.145  0.3205E-02  0.8330E-02
    -12.027  0.3243E-02  0.8711E-02
    -11.909  0.3276E-02  0.9097E-02
    -11.790  0.3265E-02  0.9484E-02
    -11.672  0.3233E-02  0.9869E-02
    -11.554  0.3226E-02  0.1025E-01
    -11.435  0.3234E-02  0.1063E-01
    -11.317  0.3258E-02  0.1102E-01
    -11.199  0.3287E-02  0.1140E-01
    -11.080  0.3317E-02  0.1179E-01
    -10.962  0.3346E-02  0.1219E-01
    -10.844  0.3390E-02  0.1259E-01
    -10.725  0.3451E-02  0.1299E-01
    -10.607  0.3515E-02  0.1340E-01
    -10.489  0.3570E-02  0.1382E-01
    -10.371  0.3661E-02  0.1425E-01
    -10.252  0.3806E-02  0.1469E-01
    -10.134  0.3965E-02  0.1515E-01
    -10.016  0.5243E-02  0.1569E-01
     -9.897  0.6170E-02  0.1637E-01
     -9.779  0.4834E-02  0.1702E-01
     -9.661  0.3505E-02  0.1751E-01
     -9.542  0.2756E-02  0.1787E-01
     -9.424  0.2475E-02  0.1818E-01
     -9.306  0.2194E-02  0.1846E-01
     -9.187  0.3708E-02  0.1885E-01
     -9.069  0.2525E-02  0.1926E-01
     -8.951  0.1176E-02  0.1942E-01
     -8.832  0.1036E-02  0.1955E-01
     -8.714  0.8958E-03  0.1966E-01
     -8.596  0.7578E-03  0.1976E-01
     -8.478  0.9348E-03  0.1985E-01
     -8.359  0.1221E-02  0.1998E-01
     -8.241  0.1508E-02  0.2014E-01
     -8.123  0.2723E-02  0.2037E-01
     -8.004  0.5320E-02  0.2084E-01
     -7.886  0.4474E-02  0.2143E-01
     -7.768  0.3731E-02  0.2189E-01
     -7.649  0.4467E-02  0.2237E-01
     -7.531  0.5203E-02  0.2295E-01
     -7.413  0.5939E-02  0.2361E-01
     -7.294  0.5205E-02  0.2431E-01
     -7.176  0.3572E-02  0.2481E-01
     -7.058  0.3465E-02  0.2522E-01
     -6.939  0.3375E-02  0.2563E-01
     -6.821  0.3290E-02  0.2602E-01
     -6.703  0.3204E-02  0.2641E-01
     -6.585  0.3111E-02  0.2678E-01
     -6.466  0.3017E-02  0.2714E-01
     -6.348  0.2922E-02  0.2749E-01
     -6.230  0.2827E-02  0.2783E-01
     -6.111  0.2733E-02  0.2816E-01
     -5.993  0.2638E-02  0.2848E-01
     -5.875  0.2562E-02  0.2879E-01
     -5.756  0.2779E-02  0.2910E-01
     -5.638  0.3009E-02  0.2945E-01
     -5.520  0.3240E-02  0.2982E-01
     -5.401  0.3470E-02  0.3021E-01
     -5.283  0.3700E-02  0.3064E-01
     -5.165  0.3930E-02  0.3109E-01
     -5.046  0.4160E-02  0.3157E-01
     -4.928  0.4154E-02  0.3206E-01
     -4.810  0.3952E-02  0.3254E-01
     -4.692  0.3824E-02  0.3300E-01
     -4.573  0.3823E-02  0.3345E-01
     -4.455  0.3821E-02  0.3390E-01
     -4.337  0.3820E-02  0.3435E-01
     -4.218  0.3861E-02  0.3481E-01
     -4.100  0.3941E-02  0.3527E-01
     -3.982  0.4020E-02  0.3574E-01
     -3.863  0.4102E-02  0.3622E-01
     -3.745  0.4384E-02  0.3672E-01
     -3.627  0.4834E-02  0.3727E-01
     -3.508  0.5058E-02  0.3785E-01
     -3.390  0.5409E-02  0.3847E-01
     -3.272  0.5675E-02  0.3912E-01
     -3.153  0.5863E-02  0.3981E-01
     -3.035  0.6027E-02  0.4051E-01
     -2.917  0.6381E-02  0.4124E-01
     -2.799  0.7111E-02  0.4203E-01
     -2.680  0.7318E-02  0.4289E-01
     -2.562  0.7212E-02  0.4375E-01
     -2.444  0.6931E-02  0.4459E-01
     -2.325  0.6541E-02  0.4538E-01
     -2.207  0.7355E-02  0.4618E-01
     -2.089  0.8319E-02  0.4712E-01
     -1.970  0.9222E-02  0.4815E-01
     -1.852  0.1058E-01  0.4932E-01
     -1.734  0.1641E-01  0.5082E-01
     -1.615  0.1092E-01  0.5228E-01
     -1.497  0.9422E-02  0.5347E-01
     -1.379  0.8346E-02  0.5452E-01
     -1.260  0.7666E-02  0.5545E-01
     -1.142  0.5424E-02  0.5622E-01
     -1.024  0.4647E-02  0.5680E-01
     -0.906  0.4740E-02  0.5735E-01
     -0.787  0.5248E-02  0.5794E-01
     -0.669  0.6232E-02  0.5860E-01
     -0.551  0.6666E-02  0.5940E-01
     -0.432  0.6997E-02  0.6019E-01
     -0.314  0.9039E-02  0.6118E-01
     -0.196  0.7739E-02  0.6216E-01
     -0.077  0.7071E-02  0.6304E-01
      0.041  0.6631E-02  0.6384E-01
      0.159  0.6312E-02  0.6461E-01
      0.278  0.6017E-02  0.6534E-01
      0.396  0.5797E-02  0.6604E-01
      0.514  0.5711E-02  0.6672E-01
      0.633  0.6007E-02  0.6741E-01
      0.751  0.5873E-02  0.6811E-01
      0.869  0.5749E-02  0.6880E-01
      0.987  0.5901E-02  0.6948E-01
      1.106  0.5805E-02  0.7018E-01
      1.224  0.5496E-02  0.7085E-01
      1.342  0.6118E-02  0.7153E-01
      1.461  0.5177E-02  0.7220E-01
      1.579  0.4279E-02  0.7275E-01
      1.697  0.4439E-02  0.7323E-01
      1.816  0.4679E-02  0.7378E-01
      1.934  0.4426E-02  0.7432E-01
      2.052  0.4359E-02  0.7484E-01
      2.171  0.4374E-02  0.7535E-01
      2.289  0.4340E-02  0.7587E-01
      2.407  0.4336E-02  0.7638E-01
      2.526  0.4331E-02  0.7689E-01
      2.644  0.3549E-02  0.7739E-01
      2.762  0.3363E-02  0.7779E-01
      2.880  0.2740E-02  0.7815E-01
      2.999  0.2297E-02  0.7845E-01
      3.117  0.1944E-02  0.7870E-01
      3.235  0.1768E-02  0.7892E-01
      3.354  0.1589E-02  0.7912E-01
      3.472  0.1406E-02  0.7929E-01
      3.590  0.1223E-02  0.7945E-01
      3.709  0.1034E-02  0.7958E-01
      3.827  0.8522E-03  0.7969E-01
      3.945  0.6956E-03  0.7979E-01
      4.064  0.5422E-03  0.7986E-01
      4.182  0.4089E-03  0.7991E-01
      4.300  0.2874E-03  0.7996E-01
      4.419  0.1747E-03  0.7998E-01
      4.537  0.6925E-04  0.8000E-01
      4.655  0.1704E-04  0.8000E-01
      4.773  0.9616E-04  0.8001E-01
      4.892  0.1833E-03  0.8002E-01
      5.010  0.2801E-03  0.8005E-01
      5.128  0.3876E-03  0.8009E-01
      5.247  0.5111E-03  0.8014E-01
      5.365  0.6638E-03  0.8021E-01
      5.483  0.8289E-03  0.8030E-01
      5.602  0.9943E-03  0.8041E-01
      5.720  0.1267E-02  0.8054E-01
      5.838  0.1965E-02  0.8073E-01
      5.957  0.2307E-02  0.8099E-01
      6.075  0.2535E-02  0.8127E-01
      6.193  0.4018E-02  0.8163E-01
      6.312  0.6021E-02  0.8225E-01
      6.430  0.4552E-02  0.8284E-01
      6.548  0.4483E-02  0.8337E-01
      6.666  0.4424E-02  0.8390E-01
      6.785  0.4378E-02  0.8442E-01
      6.903  0.4404E-02  0.8494E-01
      7.021  0.4112E-02  0.8545E-01
      7.140  0.3392E-02  0.8588E-01
      7.258  0.3184E-02  0.8627E-01
      7.376  0.3012E-02  0.8663E-01
      7.495  0.2865E-02  0.8698E-01
      7.613  0.2741E-02  0.8731E-01
      7.731  0.2642E-02  0.8763E-01
      7.850  0.2574E-02  0.8794E-01
      7.968  0.2512E-02  0.8824E-01
      8.086  0.2459E-02  0.8853E-01
      8.205  0.2408E-02  0.8882E-01
      8.323  0.2358E-02  0.8910E-01
      8.441  0.2309E-02  0.8938E-01
      8.559  0.2260E-02  0.8965E-01
      8.678  0.2211E-02  0.8991E-01
      8.796  0.2146E-02  0.9017E-01
      8.914  0.2088E-02  0.9042E-01
      9.033  0.2172E-02  0.9067E-01
      9.151  0.2325E-02  0.9094E-01
      9.269  0.2328E-02  0.9122E-01
      9.388  0.2371E-02  0.9149E-01
      9.506  0.2451E-02  0.9178E-01
      9.624  0.2513E-02  0.9207E-01
      9.743  0.2538E-02  0.9237E-01
      9.861  0.2561E-02  0.9267E-01
      9.979  0.2605E-02  0.9298E-01
     10.098  0.2655E-02  0.9329E-01
     10.216  0.2705E-02  0.9361E-01
     10.334  0.3323E-02  0.9395E-01
     10.452  0.3691E-02  0.9438E-01
     10.571  0.3501E-02  0.9480E-01
     10.689  0.3109E-02  0.9520E-01
     10.807  0.2660E-02  0.9554E-01
     10.926  0.2452E-02  0.9584E-01
     11.044  0.2143E-02  0.9610E-01
     11.162  0.2035E-02  0.9635E-01
     11.281  0.1947E-02  0.9659E-01
     11.399  0.1905E-02  0.9681E-01
     11.517  0.1986E-02  0.9704E-01
     11.636  0.2122E-02  0.9729E-01
     11.754  0.2298E-02  0.9755E-01
     11.872  0.2721E-02  0.9784E-01
     11.991  0.4153E-02  0.9824E-01
     12.109  0.5714E-02  0.9881E-01
     12.227  0.6760E-02  0.9957E-01
     12.345  0.8448E-02  0.1005E+00
     12.464  0.9146E-02  0.1015E+00
     12.582  0.9788E-02  0.1026E+00
     12.700  0.9940E-02  0.1038E+00
     12.819  0.1019E-01  0.1050E+00
     12.937  0.1013E-01  0.1062E+00
     13.055  0.1424E-01  0.1077E+00
     13.174  0.1094E-01  0.1092E+00
     13.292  0.7467E-02  0.1103E+00
     13.410  0.6227E-02  0.1111E+00
     13.529  0.5102E-02  0.1117E+00
     13.647  0.4871E-02  0.1123E+00
     13.765  0.4944E-02  0.1129E+00
     13.884  0.4753E-02  0.1135E+00
     14.002  0.4208E-02  0.1140E+00
     14.120  0.3709E-02  0.1145E+00
     14.238  0.3257E-02  0.1149E+00
     14.357  0.2929E-02  0.1152E+00
     14.475  0.3121E-02  0.1156E+00
     14.593  0.3948E-02  0.1160E+00
     14.712  0.4087E-02  0.1165E+00
     14.830  0.3644E-02  0.1170E+00
     14.948  0.3826E-02  0.1174E+00
     15.067  0.4435E-02  0.1179E+00
     15.185  0.3594E-02  0.1184E+00
     15.303  0.2595E-02  0.1188E+00
     15.422  0.2094E-02  0.1191E+00
     15.540  0.1741E-02  0.1193E+00
     15.658  0.1613E-02  0.1195E+00
     15.777  0.1406E-02  0.1197E+00
     15.895  0.8626E-03  0.1198E+00
     16.013  0.6254E-03  0.1199E+00
     16.131  0.4275E-03  0.1199E+00
     16.250  0.2103E-03  0.1200E+00
     16.368  0.5335E-04  0.1200E+00
     16.486  0.2813E-06  0.1200E+00
     16.605  0.0000E+00  0.1200E+00
     16.723  0.0000E+00  0.1200E+00
     16.841  0.0000E+00  0.1200E+00
     16.960  0.0000E+00  0.1200E+00
     17.078  0.0000E+00  0.1200E+00
     17.196  0.0000E+00  0.1200E+00
     17.315  0.0000E+00  0.1200E+00
     17.433  0.0000E+00  0.1200E+00
     17.551  0.0000E+00  0.1200E+00
     17.670  0.0000E+00  0.1200E+00
     17.788  0.0000E+00  0.1200E+00
     17.906  0.0000E+00  0.1200E+00
     18.024  0.0000E+00  0.1200E+00
     18.143  0.0000E+00  0.1200E+00
     18.261  0.0000E+00  0.1200E+00
     18.379  0.0000E+00  0.1200E+00
     18.498  0.0000E+00  0.1200E+00
