32   
4    

1    
  0.0034341058644832  -0.0000013361441049   0.0093918536576249
  -0.2202320700    0.0087558100   -0.1318748300
   0.0301115200    0.0078005900   -0.0025865100
  -0.0063252800   -0.0132598700   -0.0025156500
  -0.0064344600    0.0289730700   -0.0027441900
  -0.0154973600    0.0074232900    0.0044282700
  -0.0154661900    0.0074244300    0.0044562400
  -0.0154788300    0.0074163100    0.0044562100
  -0.0154778000    0.0074301700    0.0044564700
   0.0135885200   -0.0089575800   -0.0045113300
   0.0133945600   -0.0090476500   -0.0045787500
   0.0135681600   -0.0088316300   -0.0045424800
   0.0134061600   -0.0089586500   -0.0040230500
   0.0136453600   -0.0063743800   -0.0046240200
   0.0138090400   -0.0064491000   -0.0045622600
   0.0137883300   -0.0065614500   -0.0045942900
   0.0136307000   -0.0064711600   -0.0038953300
   0.0055092900   -0.0065765900    0.0118249200
   0.0327258200   -0.0072789700    0.0468979800
   0.0780376100    0.0194749100    0.0472997800
   0.0781960200   -0.0328613100    0.0464212000
   0.0134378100   -0.0063350000   -0.0006416400
   0.0134380200   -0.0063348800   -0.0006257200
   0.0134400400   -0.0063340200   -0.0006270000
   0.0134394300   -0.0063362000   -0.0006216000
  -0.0121248400    0.0079384400    0.0010808200
  -0.0115460300    0.0080360400    0.0011090200
  -0.0119207700    0.0074998400    0.0011039500
  -0.0117521200    0.0078203200    0.0003923700
  -0.0110006800    0.0050627400    0.0011100100
  -0.0114393700    0.0051676600    0.0010621700
  -0.0113142000    0.0054999500    0.0010685200
  -0.0111563800    0.0052448700    0.0004007300

1    
 -0.0034341058644832   0.0000013361441049  -0.0093918536576249
   0.1939926800    0.0083950000    0.1320068700
  -0.0563739600    0.0074486200    0.0027269300
  -0.0198298500    0.0285618300    0.0027956800
  -0.0199360500   -0.0136719900    0.0027455400
  -0.0117395200    0.0079429300   -0.0043081200
  -0.0117700000    0.0079428500   -0.0043382800
  -0.0117580500    0.0079490200   -0.0043383000
  -0.0117578000    0.0079352400   -0.0043384800
   0.0132593300   -0.0092725300    0.0044423400
   0.0134303600   -0.0091875900    0.0045039600
   0.0132743200   -0.0093796800    0.0044709000
   0.0134285000   -0.0092649400    0.0037732500
   0.0135287800   -0.0065911600    0.0044352900
   0.0133470800   -0.0065164200    0.0043672400
   0.0133742300   -0.0063838700    0.0044034800
   0.0135161500   -0.0064775100    0.0038745200
   0.0166458300   -0.0063743900   -0.0118394700
  -0.0105753500   -0.0068625900   -0.0469145600
  -0.0562248200   -0.0326945000   -0.0465000500
  -0.0557024500    0.0196366100   -0.0472504500
   0.0096468500   -0.0066590100    0.0006345400
   0.0096463600   -0.0066594500    0.0006188000
   0.0096453600   -0.0066596800    0.0006177700
   0.0096447400   -0.0066579500    0.0006164600
  -0.0115006900    0.0080423600   -0.0010467600
  -0.0119495500    0.0079463200   -0.0010820900
  -0.0116390600    0.0083687400   -0.0010760800
  -0.0118040100    0.0081239000   -0.0003822200
  -0.0112389700    0.0054711300   -0.0011247200
  -0.0106782600    0.0053688000   -0.0010530300
  -0.0108694900    0.0049254100   -0.0010579900
  -0.0110326700    0.0052545100   -0.0003830000

17   
  0.0034341058644832  -0.0000013361441049   0.0093918536576249
  -0.0195628100    0.0076331500    0.0082206300
   0.0076586900    0.0081348300    0.0432967400
   0.0532994800    0.0339348400    0.0428821500
   0.0527984600   -0.0183867100    0.0436285000
  -0.0115553100    0.0079800900   -0.0042508700
  -0.0115549300    0.0079809700   -0.0042349700
  -0.0115538600    0.0079812700   -0.0042390400
  -0.0115530600    0.0079789600   -0.0042277400
   0.0140549700   -0.0096673300    0.0046263200
   0.0141909500   -0.0096068800    0.0047880800
   0.0140758300   -0.0096955200    0.0047051000
   0.0141969100   -0.0096518200    0.0040106400
   0.0132086500   -0.0063817300    0.0047842800
   0.0130897200   -0.0062294200    0.0045745100
   0.0130225800   -0.0062601300    0.0046673500
   0.0132275500   -0.0063007400    0.0039880500
  -0.1950289800   -0.0073002500   -0.1354348400
   0.0551225100   -0.0063655700   -0.0068800200
   0.0191565600   -0.0271419100   -0.0069462300
   0.0192645500    0.0144448500   -0.0069126400
   0.0092760600   -0.0066660600    0.0007278500
   0.0092721000   -0.0066655500    0.0005490800
   0.0092745900   -0.0066648300    0.0005490900
   0.0092745300   -0.0066681700    0.0005504500
  -0.0127327200    0.0085304300   -0.0003705600
  -0.0123962900    0.0085174300   -0.0003088600
  -0.0125491500    0.0082465400   -0.0003731500
  -0.0125598800    0.0084162400   -0.0006455000
  -0.0104284000    0.0048760000   -0.0002514300
  -0.0107662800    0.0048589300   -0.0004331400
  -0.0105784600    0.0051564700   -0.0003801000
  -0.0106445700    0.0049816300   -0.0006597100

17   
 -0.0034341058644832   0.0000013361441049  -0.0093918536576249
  -0.0064863300    0.0077398300   -0.0081589700
  -0.0337056000    0.0084351200   -0.0432288400
  -0.0790265200   -0.0183101600   -0.0436309500
  -0.0791616900    0.0340144500   -0.0427580500
  -0.0166660200    0.0074398000    0.0043032600
  -0.0166663500    0.0074403800    0.0042874800
  -0.0166682200    0.0074386900    0.0042831600
  -0.0166682500    0.0074413000    0.0042888400
   0.0146945500   -0.0096071300   -0.0046660500
   0.0145682300   -0.0096569900   -0.0048342300
   0.0146699700   -0.0095684400   -0.0047398400
   0.0145505700   -0.0096153200   -0.0040624400
   0.0136762700   -0.0063643100   -0.0048493300
   0.0137967300   -0.0065386000   -0.0046746600
   0.0138824300   -0.0064991200   -0.0047573700
   0.0136767200   -0.0064603300   -0.0040601900
   0.2169623500   -0.0074650700    0.1353980800
  -0.0331862700   -0.0065018600    0.0068688400
   0.0026667400    0.0142250300    0.0068006300
   0.0027746700   -0.0273505900    0.0070401400
   0.0147849600   -0.0063777100   -0.0007294800
   0.0147877500   -0.0063772600   -0.0005492000
   0.0147855500   -0.0063793800   -0.0005492800
   0.0147853200   -0.0063763800   -0.0005503200
  -0.0128293900    0.0084323100    0.0003867300
  -0.0131600900    0.0084571700    0.0003297100
  -0.0130200400    0.0087278200    0.0003829100
  -0.0130037000    0.0085536800    0.0006509600
  -0.0113924900    0.0053822400    0.0002573500
  -0.0110477200    0.0053673900    0.0004520200
  -0.0112111600    0.0050900800    0.0003892500
  -0.0111629700    0.0052633700    0.0006798100
