  32  32   0   0
  0.8905205E+01  0.4932875E-09  0.4932875E-09  0.1352877E-08  0.5000000E-15
  1.000000000000000E-004
  CAR 
 graphite                                
     15.48291715    -17.01792835  301      4.60063535      1.00000000
    -17.018  0.0000E+00  0.0000E+00
    -16.910  0.0000E+00  0.0000E+00
    -16.801  0.0000E+00  0.0000E+00
    -16.693  0.0000E+00  0.0000E+00
    -16.585  0.0000E+00  0.0000E+00
    -16.476  0.0000E+00  0.0000E+00
    -16.368  0.0000E+00  0.0000E+00
    -16.260  0.0000E+00  0.0000E+00
    -16.151  0.0000E+00  0.0000E+00
    -16.043  0.0000E+00  0.0000E+00
    -15.935  0.0000E+00  0.0000E+00
    -15.826  0.0000E+00  0.0000E+00
    -15.718  0.0000E+00  0.0000E+00
    -15.610  0.0000E+00  0.0000E+00
    -15.501  0.0000E+00  0.0000E+00
    -15.393  0.0000E+00  0.0000E+00
    -15.285  0.0000E+00  0.0000E+00
    -15.176  0.0000E+00  0.0000E+00
    -15.068  0.0000E+00  0.0000E+00
    -14.960  0.5566E+00  0.1255E-01
    -14.851  0.2838E+01  0.1872E+00
    -14.743  0.3561E+01  0.5098E+00
    -14.635  0.5085E+01  0.9906E+00
    -14.526  0.4855E+01  0.1527E+01
    -14.418  0.5044E+01  0.2067E+01
    -14.310  0.4994E+01  0.2611E+01
    -14.201  0.4863E+01  0.3146E+01
    -14.093  0.4853E+01  0.3670E+01
    -13.985  0.5101E+01  0.4209E+01
    -13.876  0.5351E+01  0.4775E+01
    -13.768  0.7279E+01  0.5486E+01
    -13.660  0.7538E+01  0.6293E+01
    -13.551  0.5907E+01  0.7110E+01
    -13.443  0.2380E+01  0.7517E+01
    -13.334  0.1856E+01  0.7738E+01
    -13.226  0.2097E+01  0.7947E+01
    -13.118  0.2488E+01  0.8195E+01
    -13.009  0.3023E+01  0.8488E+01
    -12.901  0.1219E+02  0.9149E+01
    -12.793  0.8455E+01  0.1013E+02
    -12.684  0.6835E+01  0.1100E+02
    -12.576  0.4030E+01  0.1149E+02
    -12.468  0.4138E+01  0.1194E+02
    -12.359  0.4256E+01  0.1239E+02
    -12.251  0.4405E+01  0.1286E+02
    -12.143  0.4547E+01  0.1334E+02
    -12.034  0.4675E+01  0.1384E+02
    -11.926  0.4979E+01  0.1436E+02
    -11.818  0.5526E+01  0.1493E+02
    -11.709  0.6426E+01  0.1556E+02
    -11.601  0.6015E+01  0.1624E+02
    -11.493  0.5616E+01  0.1687E+02
    -11.384  0.5485E+01  0.1746E+02
    -11.276  0.5651E+01  0.1807E+02
    -11.168  0.5816E+01  0.1869E+02
    -11.059  0.5981E+01  0.1933E+02
    -10.951  0.5775E+01  0.1997E+02
    -10.843  0.5578E+01  0.2059E+02
    -10.734  0.5442E+01  0.2118E+02
    -10.626  0.4992E+01  0.2176E+02
    -10.518  0.3883E+01  0.2223E+02
    -10.409  0.4578E+01  0.2268E+02
    -10.301  0.4997E+01  0.2320E+02
    -10.193  0.5181E+01  0.2376E+02
    -10.084  0.6453E+01  0.2435E+02
     -9.976  0.9249E+01  0.2517E+02
     -9.868  0.1035E+02  0.2634E+02
     -9.759  0.8029E+01  0.2733E+02
     -9.651  0.5755E+01  0.2808E+02
     -9.543  0.4651E+01  0.2862E+02
     -9.434  0.4177E+01  0.2910E+02
     -9.326  0.3703E+01  0.2953E+02
     -9.218  0.6141E+01  0.3013E+02
     -9.109  0.5199E+01  0.3075E+02
     -9.001  0.1928E+01  0.3102E+02
     -8.893  0.1723E+01  0.3121E+02
     -8.784  0.1518E+01  0.3139E+02
     -8.676  0.1313E+01  0.3154E+02
     -8.568  0.1342E+01  0.3168E+02
     -8.459  0.1833E+01  0.3185E+02
     -8.351  0.2332E+01  0.3208E+02
     -8.243  0.2831E+01  0.3236E+02
     -8.134  0.5668E+01  0.3277E+02
     -8.026  0.1075E+02  0.3366E+02
     -7.918  0.5093E+01  0.3453E+02
     -7.809  0.5194E+01  0.3507E+02
     -7.701  0.6357E+01  0.3569E+02
     -7.593  0.7519E+01  0.3645E+02
     -7.484  0.8682E+01  0.3732E+02
     -7.376  0.9845E+01  0.3833E+02
     -7.268  0.6822E+01  0.3922E+02
     -7.159  0.5567E+01  0.3984E+02
     -7.051  0.5579E+01  0.4045E+02
     -6.943  0.5541E+01  0.4105E+02
     -6.834  0.5388E+01  0.4165E+02
     -6.726  0.5205E+01  0.4222E+02
     -6.618  0.5075E+01  0.4278E+02
     -6.509  0.4956E+01  0.4332E+02
     -6.401  0.4838E+01  0.4385E+02
     -6.293  0.4719E+01  0.4437E+02
     -6.184  0.4601E+01  0.4487E+02
     -6.076  0.4482E+01  0.4536E+02
     -5.968  0.4365E+01  0.4584E+02
     -5.859  0.4721E+01  0.4633E+02
     -5.751  0.5316E+01  0.4687E+02
     -5.643  0.5906E+01  0.4748E+02
     -5.534  0.6495E+01  0.4815E+02
     -5.426  0.7085E+01  0.4888E+02
     -5.318  0.7675E+01  0.4968E+02
     -5.209  0.8265E+01  0.5055E+02
     -5.101  0.8855E+01  0.5147E+02
     -4.993  0.5420E+01  0.5230E+02
     -4.884  0.5301E+01  0.5278E+02
     -4.776  0.7202E+01  0.5348E+02
     -4.668  0.5738E+01  0.5419E+02
     -4.559  0.4275E+01  0.5473E+02
     -4.451  0.2811E+01  0.5511E+02
     -4.343  0.1347E+01  0.5534E+02
     -4.234  0.1830E+01  0.5548E+02
     -4.126  0.3325E+01  0.5576E+02
     -4.018  0.4819E+01  0.5620E+02
     -3.909  0.6863E+01  0.5680E+02
     -3.801  0.1176E+02  0.5782E+02
     -3.693  0.1148E+02  0.5907E+02
     -3.584  0.1297E+02  0.6046E+02
     -3.476  0.8660E+01  0.6168E+02
     -3.368  0.4499E+01  0.6230E+02
     -3.259  0.5796E+01  0.6286E+02
     -3.151  0.6717E+01  0.6354E+02
     -3.043  0.1001E+02  0.6439E+02
     -2.934  0.1557E+02  0.6577E+02
     -2.826  0.2253E+02  0.6792E+02
     -2.718  0.6767E+01  0.6920E+02
     -2.609  0.7006E+01  0.6994E+02
     -2.501  0.7292E+01  0.7072E+02
     -2.393  0.8114E+01  0.7155E+02
     -2.284  0.1119E+02  0.7252E+02
     -2.176  0.1612E+02  0.7403E+02
     -2.068  0.1262E+02  0.7559E+02
     -1.959  0.1058E+02  0.7681E+02
     -1.851  0.1919E+02  0.7823E+02
     -1.743  0.1366E+02  0.8136E+02
     -1.634  0.2151E+02  0.8328E+02
     -1.526  0.1374E+02  0.8501E+02
     -1.418  0.1520E+02  0.8655E+02
     -1.309  0.1701E+02  0.8837E+02
     -1.201  0.8733E+01  0.8962E+02
     -1.093  0.6349E+01  0.9039E+02
     -0.984  0.7474E+01  0.9114E+02
     -0.876  0.8294E+01  0.9199E+02
     -0.768  0.9394E+01  0.9295E+02
     -0.659  0.1100E+02  0.9405E+02
     -0.551  0.1071E+02  0.9523E+02
     -0.442  0.1107E+02  0.9641E+02
     -0.334  0.1137E+02  0.9817E+02
     -0.226  0.1231E+02  0.9946E+02
     -0.117  0.1137E+02  0.1008E+03
     -0.009  0.1007E+02  0.1020E+03
      0.099  0.1003E+02  0.1030E+03
      0.208  0.9807E+01  0.1041E+03
      0.316  0.9666E+01  0.1051E+03
      0.424  0.9618E+01  0.1062E+03
      0.533  0.9625E+01  0.1072E+03
      0.641  0.9393E+01  0.1083E+03
      0.749  0.9199E+01  0.1093E+03
      0.858  0.9135E+01  0.1103E+03
      0.966  0.9674E+01  0.1113E+03
      1.074  0.9568E+01  0.1123E+03
      1.183  0.9681E+01  0.1133E+03
      1.291  0.1079E+02  0.1144E+03
      1.399  0.1048E+02  0.1156E+03
      1.508  0.8987E+01  0.1167E+03
      1.616  0.6840E+01  0.1175E+03
      1.724  0.6395E+01  0.1182E+03
      1.833  0.5350E+01  0.1189E+03
      1.941  0.3517E+01  0.1193E+03
      2.049  0.2918E+01  0.1197E+03
      2.158  0.3078E+01  0.1200E+03
      2.266  0.4454E+01  0.1204E+03
      2.374  0.6703E+01  0.1210E+03
      2.483  0.9527E+01  0.1218E+03
      2.591  0.9485E+01  0.1228E+03
      2.699  0.7885E+01  0.1238E+03
      2.808  0.6184E+01  0.1246E+03
      2.916  0.4768E+01  0.1251E+03
      3.024  0.3872E+01  0.1256E+03
      3.133  0.3325E+01  0.1260E+03
      3.241  0.2969E+01  0.1263E+03
      3.349  0.2599E+01  0.1266E+03
      3.458  0.2258E+01  0.1269E+03
      3.566  0.1962E+01  0.1271E+03
      3.674  0.1678E+01  0.1273E+03
      3.783  0.1396E+01  0.1275E+03
      3.891  0.1169E+01  0.1276E+03
      3.999  0.9411E+00  0.1277E+03
      4.108  0.7349E+00  0.1278E+03
      4.216  0.5508E+00  0.1279E+03
      4.324  0.3800E+00  0.1279E+03
      4.433  0.2209E+00  0.1280E+03
      4.541  0.7191E-01  0.1280E+03
      4.649  0.3940E-01  0.1280E+03
      4.758  0.1578E+00  0.1280E+03
      4.866  0.2874E+00  0.1280E+03
      4.974  0.4301E+00  0.1281E+03
      5.083  0.5874E+00  0.1281E+03
      5.191  0.7651E+00  0.1282E+03
      5.299  0.9788E+00  0.1283E+03
      5.408  0.1220E+01  0.1284E+03
      5.516  0.1462E+01  0.1286E+03
      5.624  0.1704E+01  0.1287E+03
      5.733  0.2551E+01  0.1289E+03
      5.841  0.3323E+01  0.1293E+03
      5.949  0.3807E+01  0.1297E+03
      6.058  0.4461E+01  0.1301E+03
      6.166  0.7645E+01  0.1307E+03
      6.274  0.1282E+02  0.1318E+03
      6.383  0.9744E+01  0.1331E+03
      6.491  0.7653E+01  0.1340E+03
      6.599  0.6328E+01  0.1347E+03
      6.708  0.5694E+01  0.1354E+03
      6.816  0.5357E+01  0.1360E+03
      6.924  0.5033E+01  0.1365E+03
      7.033  0.4297E+01  0.1370E+03
      7.141  0.3780E+01  0.1375E+03
      7.249  0.3660E+01  0.1379E+03
      7.358  0.3858E+01  0.1383E+03
      7.466  0.4292E+01  0.1387E+03
      7.574  0.4690E+01  0.1392E+03
      7.683  0.4899E+01  0.1397E+03
      7.791  0.4749E+01  0.1403E+03
      7.899  0.4581E+01  0.1408E+03
      8.008  0.4410E+01  0.1412E+03
      8.116  0.4264E+01  0.1417E+03
      8.224  0.4162E+01  0.1422E+03
      8.333  0.4088E+01  0.1426E+03
      8.441  0.4029E+01  0.1431E+03
      8.549  0.3977E+01  0.1435E+03
      8.658  0.3938E+01  0.1439E+03
      8.766  0.3737E+01  0.1443E+03
      8.874  0.3489E+01  0.1447E+03
      8.983  0.3573E+01  0.1451E+03
      9.091  0.3779E+01  0.1455E+03
      9.199  0.3741E+01  0.1459E+03
      9.308  0.3710E+01  0.1463E+03
      9.416  0.3709E+01  0.1467E+03
      9.524  0.3765E+01  0.1471E+03
      9.633  0.3800E+01  0.1475E+03
      9.741  0.3793E+01  0.1480E+03
      9.849  0.3784E+01  0.1484E+03
      9.958  0.3775E+01  0.1488E+03
     10.066  0.3786E+01  0.1492E+03
     10.174  0.3796E+01  0.1496E+03
     10.283  0.5088E+01  0.1500E+03
     10.391  0.6142E+01  0.1507E+03
     10.499  0.5952E+01  0.1513E+03
     10.608  0.5732E+01  0.1519E+03
     10.716  0.5456E+01  0.1526E+03
     10.824  0.4737E+01  0.1531E+03
     10.933  0.6278E+01  0.1537E+03
     11.041  0.3472E+01  0.1542E+03
     11.149  0.2493E+01  0.1546E+03
     11.258  0.2658E+01  0.1548E+03
     11.366  0.3038E+01  0.1551E+03
     11.474  0.3387E+01  0.1555E+03
     11.583  0.3409E+01  0.1559E+03
     11.691  0.2655E+01  0.1562E+03
     11.799  0.3351E+01  0.1565E+03
     11.908  0.6512E+01  0.1570E+03
     12.016  0.7070E+01  0.1578E+03
     12.124  0.8232E+01  0.1586E+03
     12.233  0.1086E+02  0.1596E+03
     12.341  0.1294E+02  0.1609E+03
     12.450  0.1313E+02  0.1623E+03
     12.558  0.1329E+02  0.1638E+03
     12.666  0.1251E+02  0.1652E+03
     12.775  0.1107E+02  0.1665E+03
     12.883  0.9016E+01  0.1675E+03
     12.991  0.2517E+00  0.1680E+03
     13.100  0.1530E+00  0.1680E+03
     13.208  0.7876E-01  0.1680E+03
     13.316  0.2894E-01  0.1680E+03
     13.425  0.3549E-02  0.1680E+03
     13.533  0.0000E+00  0.1680E+03
     13.641  0.0000E+00  0.1680E+03
     13.750  0.0000E+00  0.1680E+03
     13.858  0.0000E+00  0.1680E+03
     13.966  0.0000E+00  0.1680E+03
     14.075  0.0000E+00  0.1680E+03
     14.183  0.0000E+00  0.1680E+03
     14.291  0.0000E+00  0.1680E+03
     14.400  0.0000E+00  0.1680E+03
     14.508  0.0000E+00  0.1680E+03
     14.616  0.0000E+00  0.1680E+03
     14.725  0.0000E+00  0.1680E+03
     14.833  0.0000E+00  0.1680E+03
     14.941  0.0000E+00  0.1680E+03
     15.050  0.0000E+00  0.1680E+03
     15.158  0.0000E+00  0.1680E+03
     15.266  0.0000E+00  0.1680E+03
     15.375  0.0000E+00  0.1680E+03
     15.483  0.0000E+00  0.1680E+03
