32   
4    

1    
  0.0037983343370297   0.0000000024009295   0.0092505489709603
   0.0398654500   -0.0013763200   -0.1006985900
   0.0136640100   -0.0000741200    0.0045888400
   0.0238426400    0.0057977800    0.0045419700
   0.0239291200   -0.0059983700    0.0046398600
  -0.0000088500   -0.0000191100    0.0000056300
  -0.0000612500   -0.0000249200    0.0001050700
  -0.0000058000   -0.0000018000    0.0001026200
  -0.0000303300   -0.0000436800    0.0001049500
   0.0006800900    0.0000160200    0.0015525900
   0.0002097900   -0.0000822600    0.0001992900
   0.0004344100    0.0001532900    0.0002334500
   0.0002596300   -0.0000093100    0.0001616200
   0.0006454700    0.0000225900    0.0015526000
   0.0002048300    0.0001237300    0.0001906800
   0.0002496500    0.0000461400    0.0001552300
   0.0004370400   -0.0001155800    0.0002323200
  -0.0172991700    0.0005728400    0.0237893300
  -0.0054545100    0.0000595400    0.0048671700
  -0.0400502100    0.0132851700    0.0239960100
  -0.0388231700   -0.0122848600    0.0235914000
   0.0000239200    0.0000170200    0.0000288100
   0.0000206100    0.0000071600   -0.0000266100
   0.0000413800    0.0000198600    0.0000302200
   0.0000382200    0.0000308600    0.0000310000
  -0.0007180000   -0.0003935600    0.0010264000
  -0.0000979300   -0.0000023800    0.0010833800
  -0.0005485200   -0.0000115200   -0.0001318000
  -0.0000657600    0.0003491500    0.0010547300
  -0.0000966600   -0.0000350800    0.0010648100
  -0.0006796600    0.0003416400    0.0010148500
  -0.0005459000   -0.0000133000   -0.0001282400
  -0.0000605400   -0.0003566000    0.0010404000

1    
 -0.0037983343370297  -0.0000000024009295  -0.0092505489709603
  -0.0399446100   -0.0013729900    0.1006837900
  -0.0135676000   -0.0000732800   -0.0045926400
  -0.0238659600   -0.0060228800   -0.0046405000
  -0.0237831000    0.0058200300   -0.0045427700
   0.0000901400   -0.0000194100   -0.0000086700
   0.0001276400   -0.0000253200   -0.0001051800
   0.0001117000   -0.0000422200   -0.0001076600
   0.0000901100   -0.0000027900   -0.0001058000
  -0.0007389800    0.0000161300   -0.0015530100
  -0.0002785600    0.0001286900   -0.0001921500
  -0.0005136800   -0.0001126900   -0.0002326600
  -0.0003261100    0.0000466100   -0.0001549300
  -0.0007731200    0.0000208000   -0.0015526100
  -0.0002848500   -0.0000857500   -0.0002002500
  -0.0003377100   -0.0000071700   -0.0001610500
  -0.0005091300    0.0001503400   -0.0002334700
   0.0172668400    0.0005723800   -0.0237725100
   0.0053979500    0.0000564100   -0.0048621200
   0.0388313100   -0.0123032400   -0.0235771600
   0.0400519900    0.0133034500   -0.0239821600
  -0.0000775300    0.0000168400   -0.0000356300
  -0.0000990100    0.0000092500    0.0000209500
  -0.0000955300    0.0000398700   -0.0000344200
  -0.0000978300    0.0000099600   -0.0000336700
   0.0007526800    0.0003458600   -0.0010174100
   0.0001582700   -0.0000413800   -0.0010638800
   0.0006043700   -0.0000120300    0.0001295100
   0.0001234500   -0.0003509400   -0.0010406900
   0.0001638800    0.0000043400   -0.0010814900
   0.0007879500   -0.0004001300   -0.0010287000
   0.0006076900   -0.0000110300    0.0001334400
   0.0001273600    0.0003423200   -0.0010544800

17   
  0.0037983343370297   0.0000000024009295   0.0092505489709603
  -0.0174117400   -0.0005876400    0.0237153300
  -0.0054093100   -0.0000707400    0.0048387000
  -0.0391984000    0.0124146000    0.0235197000
  -0.0403974800   -0.0134338700    0.0239206800
   0.0000907300   -0.0000188100    0.0000300400
   0.0000960900   -0.0000235600   -0.0000253200
   0.0001225400   -0.0000353200    0.0000287200
   0.0001010600   -0.0000113900    0.0000315500
  -0.0001354500    0.0000917900    0.0010533800
  -0.0006132300    0.0000219100   -0.0001324900
  -0.0004144300    0.0001731300    0.0011781700
  -0.0005429100   -0.0002227900    0.0009219400
  -0.0001490400   -0.0000529300    0.0010356300
  -0.0006113300    0.0000164400   -0.0001283000
  -0.0005307800    0.0002429500    0.0009159400
  -0.0003973300   -0.0001415800    0.0011631900
   0.0404601800    0.0013723200   -0.1009412300
   0.0145163400    0.0000686200    0.0040249600
   0.0235923700    0.0053309100    0.0040747100
   0.0235299600   -0.0051145000    0.0039782800
  -0.0001238800    0.0000158500    0.0001537400
  -0.0000799700    0.0000080300   -0.0000568700
  -0.0000820000    0.0000234300   -0.0000555400
  -0.0000828400    0.0000277000   -0.0000558000
   0.0005057100   -0.0001282500    0.0010072800
   0.0003071700   -0.0000054400    0.0009353300
   0.0003004000    0.0001001500    0.0009739800
   0.0007281400   -0.0000101300    0.0005079400
   0.0003177300   -0.0000190100    0.0009198900
   0.0005096300    0.0001056400    0.0010006500
   0.0002884200   -0.0001205900    0.0009599000
   0.0007136400   -0.0000169100    0.0005058900

17   
 -0.0037983343370297  -0.0000000024009295  -0.0092505489709603
   0.0174486400   -0.0005882000   -0.0237197000
   0.0054971600   -0.0000708800   -0.0048409200
   0.0404090200   -0.0134249600   -0.0239267000
   0.0392050600    0.0124042000   -0.0235258800
  -0.0000092600   -0.0000196400   -0.0000327500
  -0.0000292200   -0.0000252000    0.0000255600
  -0.0000169300   -0.0000099900   -0.0000343100
  -0.0000390300   -0.0000342300   -0.0000311700
   0.0000579000   -0.0000570900   -0.0010362900
   0.0005348100    0.0000213400    0.0001273800
   0.0003195400   -0.0001381000   -0.0011628500
   0.0004534700    0.0002393000   -0.0009157500
   0.0000415200    0.0000963000   -0.0010544900
   0.0005384500    0.0000177100    0.0001311100
   0.0004618700   -0.0002216200   -0.0009226400
   0.0003402100    0.0001708900   -0.0011785300
  -0.0403659200    0.0013750300    0.1009687500
  -0.0145936900    0.0000691400   -0.0040176300
  -0.0235801100   -0.0050927200   -0.0039692500
  -0.0236407700    0.0053083300   -0.0040659400
   0.0000690300    0.0000169000   -0.0001603000
   0.0000008900    0.0000087500    0.0000515500
   0.0000262200    0.0000371800    0.0000522700
   0.0000240900    0.0000124600    0.0000527900
  -0.0004399700    0.0001121700   -0.0010033600
  -0.0002523400   -0.0000253300   -0.0009187700
  -0.0002287400   -0.0001210400   -0.0009583500
  -0.0006504100   -0.0000113500   -0.0005058600
  -0.0002413300    0.0000002600   -0.0009350300
  -0.0004350600   -0.0001327500   -0.0010108000
  -0.0002418600    0.0001013800   -0.0009732200
  -0.0006632400   -0.0000182700   -0.0005089300
