32   
4    

1    
  0.0037743463997263  -0.0000001701179367   0.0092603622621328
  -0.2398680100    0.0043872000   -0.1357039200
   0.0327304400    0.0031436900   -0.0021357000
  -0.0074900900   -0.0200683200   -0.0020658600
  -0.0076138700    0.0264496800   -0.0022150000
  -0.0054428500    0.0031938800    0.0034031300
  -0.0053935600    0.0031951600    0.0035732900
  -0.0054231300    0.0031767700    0.0035733400
  -0.0054219400    0.0032098200    0.0035731800
   0.0054797800   -0.0032383300   -0.0037797600
   0.0049006600   -0.0033669700   -0.0040101800
   0.0052998500   -0.0028024700   -0.0038952100
   0.0049730500   -0.0031475400   -0.0020795000
   0.0052570700   -0.0029078700   -0.0040249000
   0.0058000700   -0.0030273500   -0.0037982600
   0.0056308100   -0.0034445900   -0.0039113700
   0.0053067400   -0.0031383800   -0.0019550300
   0.0064676500   -0.0022396100    0.0122655400
   0.0366832000   -0.0028714100    0.0443543400
   0.0854666200    0.0258547400    0.0448148000
   0.0861729400   -0.0308819400    0.0438308000
   0.0036553700   -0.0021837300   -0.0006835200
   0.0036644500   -0.0021823500   -0.0006171400
   0.0036524800   -0.0021905600   -0.0006189300
   0.0036529500   -0.0021773800   -0.0006154200
  -0.0043257500    0.0025485000    0.0019419200
  -0.0024822800    0.0028289800    0.0021482800
  -0.0036479900    0.0010999200    0.0020531900
  -0.0032775100    0.0021553300    0.0002286100
  -0.0027259100    0.0015271200    0.0021290300
  -0.0044139500    0.0018072700    0.0019376100
  -0.0038140000    0.0031348800    0.0020212700
  -0.0034532700    0.0021558500    0.0002613400

1    
 -0.0037743463997263   0.0000001701179367  -0.0092603622621328
   0.2287551600    0.0042910800    0.1359488200
  -0.0438373100    0.0031464400    0.0023336200
  -0.0034908700    0.0264565300    0.0024009800
  -0.0035917500   -0.0200781000    0.0022747400
  -0.0056348500    0.0031969000   -0.0036229500
  -0.0056844100    0.0031949200   -0.0037923600
  -0.0056526900    0.0032120100   -0.0037924900
  -0.0056575400    0.0031801900   -0.0037928300
   0.0052835500   -0.0031713000    0.0036951100
   0.0058343600   -0.0030469900    0.0039212500
   0.0054525800   -0.0035825800    0.0038068100
   0.0057786700   -0.0032573300    0.0018513100
   0.0061894300   -0.0035040600    0.0041209600
   0.0056227800   -0.0033797800    0.0038907600
   0.0057998200   -0.0029421700    0.0040077300
   0.0061260000   -0.0032642800    0.0021924500
   0.0012072000   -0.0021364000   -0.0121780000
  -0.0290125900   -0.0027392400   -0.0442750300
  -0.0784375700   -0.0307379400   -0.0438005800
  -0.0778418700    0.0259855400   -0.0446859100
   0.0039424100   -0.0022047500    0.0005966900
   0.0039331300   -0.0022010100    0.0005305200
   0.0039422600   -0.0021999900    0.0005306300
   0.0039479800   -0.0022119500    0.0005286300
  -0.0031906000    0.0018825900   -0.0019821200
  -0.0048839400    0.0016049100   -0.0021653900
  -0.0037955300    0.0032023300   -0.0020815000
  -0.0041604600    0.0022311200   -0.0003035300
  -0.0051851900    0.0029426800   -0.0021062300
  -0.0033499100    0.0026593500   -0.0018899000
  -0.0040209700    0.0012049000   -0.0019834300
  -0.0043872700    0.0022663800   -0.0001787600

17   
  0.0037743463997263  -0.0000001701179367   0.0092603622621328
  -0.0030857300    0.0032125100    0.0091362900
   0.0271576700    0.0038210200    0.0412258600
   0.0765786100    0.0318040400    0.0407271500
   0.0759859700   -0.0249133100    0.0416630500
  -0.0057225800    0.0031922400   -0.0036417700
  -0.0057073400    0.0031938400   -0.0035756900
  -0.0057272100    0.0031826100   -0.0035760700
  -0.0057225600    0.0031926100   -0.0035746600
   0.0056055500   -0.0031826200    0.0047282100
   0.0061017500   -0.0028613100    0.0054542400
   0.0055749600   -0.0034206500    0.0050881000
   0.0059656100   -0.0031468300    0.0032761200
   0.0062454900   -0.0033928600    0.0054378200
   0.0057598500   -0.0031443600    0.0047246800
   0.0057882000   -0.0028783900    0.0050802300
   0.0061336000   -0.0031417500    0.0033078000
  -0.2272500600   -0.0033950300   -0.1394210900
   0.0448039200   -0.0022329800   -0.0063263400
   0.0062519300   -0.0245212500   -0.0063886400
   0.0063667100    0.0199462200   -0.0062788200
   0.0041960000   -0.0019080800    0.0008249900
   0.0041569100   -0.0019089100    0.0004803700
   0.0041656000   -0.0018989500    0.0004804800
   0.0041654300   -0.0019171100    0.0004808800
  -0.0061473500    0.0022068600    0.0002606400
  -0.0058073600    0.0021114600    0.0004284500
  -0.0058956100    0.0018664700    0.0003268300
  -0.0062242700    0.0020531600   -0.0006839200
  -0.0057297700    0.0019828200    0.0003920100
  -0.0060771500    0.0018567000    0.0002763500
  -0.0057942700    0.0022158600    0.0003204800
  -0.0061124900    0.0020259600   -0.0006540100

17   
 -0.0037743463997263   0.0000001701179367  -0.0092603622621328
  -0.0082124300    0.0032306700   -0.0091674900
  -0.0384376600    0.0038581800   -0.0412564900
  -0.0872198000   -0.0248588000   -0.0417320500
  -0.0879076000    0.0318649600   -0.0407287600
  -0.0052440300    0.0031945700    0.0036509500
  -0.0052547600    0.0031960200    0.0035844400
  -0.0052429000    0.0032009800    0.0035838500
  -0.0052411300    0.0031859000    0.0035849800
   0.0054772600   -0.0031737000   -0.0046864200
   0.0050024200   -0.0034155500   -0.0053968500
   0.0054477200   -0.0028918300   -0.0050419900
   0.0051085900   -0.0031584800   -0.0032692000
   0.0051514500   -0.0028560400   -0.0054670900
   0.0056352900   -0.0031838000   -0.0047392100
   0.0056759700   -0.0034274600   -0.0051007100
   0.0052814300   -0.0031518300   -0.0032882400
   0.2383019200   -0.0041303500    0.1394529300
  -0.0337768700   -0.0028675600    0.0063602100
   0.0046763000    0.0193129100    0.0062959600
   0.0047990200   -0.0251695700    0.0064399600
   0.0034976500   -0.0021231200   -0.0007548500
   0.0035391800   -0.0021215100   -0.0004096400
   0.0035266000   -0.0021300500   -0.0004099200
   0.0035284200   -0.0021169400   -0.0004113300
  -0.0033461300    0.0022958800   -0.0003135100
  -0.0036917800    0.0024245000   -0.0004239600
  -0.0036316000    0.0026558100   -0.0003660000
  -0.0033126900    0.0024602200    0.0006145100
  -0.0037445500    0.0025261000   -0.0004945000
  -0.0034041400    0.0026205500   -0.0003238800
  -0.0036572800    0.0022783600   -0.0004019600
  -0.0033238900    0.0024709700    0.0006162400
