mesh: [     9,     9,     4 ]
nqpoint: 50     
reciprocal_lattice:
- [   0.40533564,   0.23404500,   0.00000000 ] # a*
- [   0.00002110,   0.46805346,   0.00000000 ] # b*
- [   0.00000000,   0.00000000,   0.16520275 ] # c*
natom:   4      
lattice:
- [     2.467155442383188,    -0.000111200019553,     0.000000000000000 ] # a
- [    -1.233674023183305,     2.136563688137034,     0.000000000000000 ] # b
- [     0.000000000000000,     0.000000000000000,     6.053168081000000 ] # c
points:
- symbol: C  # 1
  coordinates: [  0.999999697166835,  0.000000349172772,  0.250000000000000 ]
  mass: 12.010700
- symbol: C  # 2
  coordinates: [  0.000000349172772,  0.999999697166835,  0.750000000000000 ]
  mass: 12.010700
- symbol: C  # 3
  coordinates: [  0.333298929956719,  0.666701052703672,  0.250000000000000 ]
  mass: 12.010700
- symbol: C  # 4
  coordinates: [  0.666701052703672,  0.333298929956719,  0.750000000000000 ]
  mass: 12.010700
phonon:
- q-position: [    0.0000000,    0.0000000,    0.1250000 ]
  weight: 2    
  band:
  - # 1
    frequency:   -33.4911480517
  - # 2
    frequency:   -33.4905358701
  - # 3
    frequency:   -32.5167765174
  - # 4
    frequency:   -32.5164521506
  - # 5
    frequency:     0.3787363678
  - # 6
    frequency:     0.3802613411
  - # 7
    frequency:     1.4436157284
  - # 8
    frequency:     1.9160842799
  - # 9
    frequency:     1.9170326693
  - # 10
    frequency:     7.0000519920
  - # 11
    frequency:    18.9676638521
  - # 12
    frequency:    19.0159667147

- q-position: [    0.1111111,    0.0000000,    0.1250000 ]
  weight: 8    
  band:
  - # 1
    frequency:   -32.3197051493
  - # 2
    frequency:   -31.9126383158
  - # 3
    frequency:   -31.4182250033
  - # 4
    frequency:   -30.9960120211
  - # 5
    frequency:    -2.6094232981
  - # 6
    frequency:    -1.7592109421
  - # 7
    frequency:     5.2348344522
  - # 8
    frequency:     6.2318744559
  - # 9
    frequency:     6.4835934558
  - # 10
    frequency:     8.3069545367
  - # 11
    frequency:    18.5886737116
  - # 12
    frequency:    18.6633578077

- q-position: [    0.2222222,    0.0000000,    0.1250000 ]
  weight: 8    
  band:
  - # 1
    frequency:   -29.1369661301
  - # 2
    frequency:   -28.4408792792
  - # 3
    frequency:   -27.4940900952
  - # 4
    frequency:   -26.7625662387
  - # 5
    frequency:    -5.1272589280
  - # 6
    frequency:    -4.4418553613
  - # 7
    frequency:     9.5740438881
  - # 8
    frequency:    10.9391817684
  - # 9
    frequency:    11.6837756364
  - # 10
    frequency:    11.7853541851
  - # 11
    frequency:    17.6173157125
  - # 12
    frequency:    17.7102577884

- q-position: [    0.3333333,    0.0000000,    0.1250000 ]
  weight: 8    
  band:
  - # 1
    frequency:   -25.0002544656
  - # 2
    frequency:   -24.5944145752
  - # 3
    frequency:   -21.3025035916
  - # 4
    frequency:   -20.9147873974
  - # 5
    frequency:    -7.2677119367
  - # 6
    frequency:    -6.3429050632
  - # 7
    frequency:    12.8650858617
  - # 8
    frequency:    13.3202491334
  - # 9
    frequency:    15.7166641313
  - # 10
    frequency:    15.7583168026
  - # 11
    frequency:    16.4527629418
  - # 12
    frequency:    16.5224146079

- q-position: [    0.4444444,    0.0000000,    0.1250000 ]
  weight: 8    
  band:
  - # 1
    frequency:   -21.8210318703
  - # 2
    frequency:   -21.7015376349
  - # 3
    frequency:   -15.8916899958
  - # 4
    frequency:   -15.7153975200
  - # 5
    frequency:    -8.6834747573
  - # 6
    frequency:    -7.9501480340
  - # 7
    frequency:    14.7319185274
  - # 8
    frequency:    14.7609017503
  - # 9
    frequency:    15.5131469927
  - # 10
    frequency:    15.6368275136
  - # 11
    frequency:    17.8521562890
  - # 12
    frequency:    17.8624109190

- q-position: [    0.1111111,    0.1111111,    0.1250000 ]
  weight: 4    
  band:
  - # 1
    frequency:   -30.0866360163
  - # 2
    frequency:   -29.3478954460
  - # 3
    frequency:   -28.8063039009
  - # 4
    frequency:   -28.0122068176
  - # 5
    frequency:     6.2581266648
  - # 6
    frequency:     6.2876187857
  - # 7
    frequency:     6.6057806820
  - # 8
    frequency:     6.6062441848
  - # 9
    frequency:     8.9661324182
  - # 10
    frequency:    10.5385293442
  - # 11
    frequency:    17.7457743912
  - # 12
    frequency:    17.7580893598

- q-position: [    0.2222222,    0.1111111,    0.1250000 ]
  weight: 8    
  band:
  - # 1
    frequency:   -26.4244832758
  - # 2
    frequency:   -25.9522554925
  - # 3
    frequency:   -23.6043843992
  - # 4
    frequency:   -23.0738451288
  - # 5
    frequency:     5.5436806507
  - # 6
    frequency:     6.2589851270
  - # 7
    frequency:    11.8911766072
  - # 8
    frequency:    12.0639022175
  - # 9
    frequency:    12.3529742677
  - # 10
    frequency:    12.9718104427
  - # 11
    frequency:    16.5594028177
  - # 12
    frequency:    16.5775709366

- q-position: [    0.3333333,    0.1111111,    0.1250000 ]
  weight: 8    
  band:
  - # 1
    frequency:   -22.7448887219
  - # 2
    frequency:   -22.5514520026
  - # 3
    frequency:   -18.0592726372
  - # 4
    frequency:   -17.8289252564
  - # 5
    frequency:     3.1147260892
  - # 6
    frequency:     4.7818297935
  - # 7
    frequency:    14.5577576542
  - # 8
    frequency:    14.6644044082
  - # 9
    frequency:    15.5558151679
  - # 10
    frequency:    15.5974895279
  - # 11
    frequency:    15.8764677090
  - # 12
    frequency:    16.0424797676

- q-position: [   -0.5555556,    0.1111111,    0.1250000 ]
  weight: 8    
  band:
  - # 1
    frequency:   -21.0407184011
  - # 2
    frequency:   -21.0179481353
  - # 3
    frequency:   -14.3691533011
  - # 4
    frequency:   -14.0121134820
  - # 5
    frequency:    -7.2436064602
  - # 6
    frequency:    -6.8378662021
  - # 7
    frequency:    14.8504527478
  - # 8
    frequency:    14.9402480196
  - # 9
    frequency:    15.4888148594
  - # 10
    frequency:    15.6631142788
  - # 11
    frequency:    17.8647542494
  - # 12
    frequency:    18.0300836849

- q-position: [   -0.4444444,    0.1111111,    0.1250000 ]
  weight: 8    
  band:
  - # 1
    frequency:   -22.7335196904
  - # 2
    frequency:   -22.4969481618
  - # 3
    frequency:   -16.4482335948
  - # 4
    frequency:   -16.2971749221
  - # 5
    frequency:   -10.2756888105
  - # 6
    frequency:    -9.4932199026
  - # 7
    frequency:    13.7031881123
  - # 8
    frequency:    13.9136411282
  - # 9
    frequency:    16.2177127182
  - # 10
    frequency:    16.3667269108
  - # 11
    frequency:    17.6173431424
  - # 12
    frequency:    17.7887673508

- q-position: [   -0.3333333,    0.1111111,    0.1250000 ]
  weight: 8    
  band:
  - # 1
    frequency:   -26.5215880702
  - # 2
    frequency:   -25.9736111654
  - # 3
    frequency:   -23.6225490185
  - # 4
    frequency:   -23.0469886779
  - # 5
    frequency:    -7.6635968151
  - # 6
    frequency:    -6.9052533500
  - # 7
    frequency:    11.0717449882
  - # 8
    frequency:    11.9791646578
  - # 9
    frequency:    15.2252612028
  - # 10
    frequency:    15.4033596772
  - # 11
    frequency:    17.2896334606
  - # 12
    frequency:    17.4605921531

- q-position: [   -0.2222222,    0.1111111,    0.1250000 ]
  weight: 8    
  band:
  - # 1
    frequency:   -30.1870008275
  - # 2
    frequency:   -29.4009346187
  - # 3
    frequency:   -29.2497080005
  - # 4
    frequency:   -28.4458885804
  - # 5
    frequency:    -3.8057834690
  - # 6
    frequency:    -2.6413624727
  - # 7
    frequency:     7.4426755506
  - # 8
    frequency:     9.5333498095
  - # 9
    frequency:    11.0178781179
  - # 10
    frequency:    11.1975340454
  - # 11
    frequency:    18.2858429362
  - # 12
    frequency:    18.4678612510

- q-position: [   -0.1111111,    0.1111111,    0.1250000 ]
  weight: 4    
  band:
  - # 1
    frequency:   -32.2906655993
  - # 2
    frequency:   -32.1995866226
  - # 3
    frequency:   -31.3695943728
  - # 4
    frequency:   -31.2769069499
  - # 5
    frequency:     2.9908623576
  - # 6
    frequency:     3.9460991734
  - # 7
    frequency:     4.2094941120
  - # 8
    frequency:     6.1391944533
  - # 9
    frequency:     6.2984721370
  - # 10
    frequency:     7.8247848889
  - # 11
    frequency:    18.7874326652
  - # 12
    frequency:    18.9310291137

- q-position: [    0.2222222,    0.2222222,    0.1250000 ]
  weight: 4    
  band:
  - # 1
    frequency:   -23.1595140550
  - # 2
    frequency:   -22.9631637404
  - # 3
    frequency:   -18.7487978613
  - # 4
    frequency:   -18.5301075253
  - # 5
    frequency:     9.8643569868
  - # 6
    frequency:    10.1436434381
  - # 7
    frequency:    13.3853803827
  - # 8
    frequency:    13.4156102351
  - # 9
    frequency:    14.4825893734
  - # 10
    frequency:    14.6326373798
  - # 11
    frequency:    15.5674498867
  - # 12
    frequency:    15.5873583744

- q-position: [    0.3333333,    0.2222222,    0.1250000 ]
  weight: 8    
  band:
  - # 1
    frequency:   -20.7263629624
  - # 2
    frequency:   -20.6878462058
  - # 3
    frequency:   -14.6303866637
  - # 4
    frequency:   -14.4088583214
  - # 5
    frequency:     7.7718476523
  - # 6
    frequency:     8.4174357963
  - # 7
    frequency:    14.9495210093
  - # 8
    frequency:    15.0073576855
  - # 9
    frequency:    15.5356049199
  - # 10
    frequency:    15.6435672503
  - # 11
    frequency:    16.3261369868
  - # 12
    frequency:    16.5260687745

- q-position: [   -0.5555556,    0.2222222,    0.1250000 ]
  weight: 8    
  band:
  - # 1
    frequency:   -20.5180962767
  - # 2
    frequency:   -20.4365672627
  - # 3
    frequency:   -11.7832206520
  - # 4
    frequency:   -11.2072591403
  - # 5
    frequency:    -8.2824562769
  - # 6
    frequency:    -7.8641751730
  - # 7
    frequency:    14.5969551248
  - # 8
    frequency:    14.6118378294
  - # 9
    frequency:    15.8444483394
  - # 10
    frequency:    16.0364572826
  - # 11
    frequency:    17.5648521739
  - # 12
    frequency:    17.7944480277

- q-position: [   -0.4444444,    0.2222222,    0.1250000 ]
  weight: 8    
  band:
  - # 1
    frequency:   -22.8962645063
  - # 2
    frequency:   -22.5909886329
  - # 3
    frequency:   -17.5385973561
  - # 4
    frequency:   -17.1572070493
  - # 5
    frequency:    -8.7454079700
  - # 6
    frequency:    -7.9056463446
  - # 7
    frequency:    12.8594625015
  - # 8
    frequency:    13.3127864736
  - # 9
    frequency:    16.7281419211
  - # 10
    frequency:    16.8567500518
  - # 11
    frequency:    16.9329186808
  - # 12
    frequency:    17.0911478165

- q-position: [   -0.3333333,    0.2222222,    0.1250000 ]
  weight: 8    
  band:
  - # 1
    frequency:   -26.2434412934
  - # 2
    frequency:   -25.6623792696
  - # 3
    frequency:   -24.3930055180
  - # 4
    frequency:   -23.7753243727
  - # 5
    frequency:    -3.8144486798
  - # 6
    frequency:    -1.3639854197
  - # 7
    frequency:    10.2035379814
  - # 8
    frequency:    11.3783147925
  - # 9
    frequency:    14.3666859471
  - # 10
    frequency:    14.5931953574
  - # 11
    frequency:    17.7127564542
  - # 12
    frequency:    17.9602009655

- q-position: [   -0.2222222,    0.2222222,    0.1250000 ]
  weight: 4    
  band:
  - # 1
    frequency:   -28.8290253396
  - # 2
    frequency:   -28.5817530715
  - # 3
    frequency:   -28.0587151575
  - # 4
    frequency:   -27.8090192465
  - # 5
    frequency:     4.5971549636
  - # 6
    frequency:     5.7517336193
  - # 7
    frequency:     7.7752343920
  - # 8
    frequency:     9.7452559482
  - # 9
    frequency:    11.1727210037
  - # 10
    frequency:    11.3537127329
  - # 11
    frequency:    18.3174080337
  - # 12
    frequency:    18.5583760110

- q-position: [   -0.6666667,    0.3333333,    0.1250000 ]
  weight: 4    
  band:
  - # 1
    frequency:   -19.5632319506
  - # 2
    frequency:   -19.4587694610
  - # 3
    frequency:   -12.0378330970
  - # 4
    frequency:   -11.7970793000
  - # 5
    frequency:     5.9299606279
  - # 6
    frequency:     6.8807294918
  - # 7
    frequency:    15.1511991516
  - # 8
    frequency:    15.1754615887
  - # 9
    frequency:    15.5303764527
  - # 10
    frequency:    15.5770707711
  - # 11
    frequency:    16.7207855359
  - # 12
    frequency:    16.7388045245

- q-position: [   -0.5555556,    0.3333333,    0.1250000 ]
  weight: 8    
  band:
  - # 1
    frequency:   -19.6886195191
  - # 2
    frequency:   -19.5942966796
  - # 3
    frequency:   -11.6923073899
  - # 4
    frequency:   -11.3783066940
  - # 5
    frequency:    -8.5517948856
  - # 6
    frequency:    -7.6808832585
  - # 7
    frequency:    14.4262417555
  - # 8
    frequency:    14.6002256613
  - # 9
    frequency:    15.9458088747
  - # 10
    frequency:    16.1008807863
  - # 11
    frequency:    16.6854629943
  - # 12
    frequency:    16.8240229346

- q-position: [   -0.4444444,    0.3333333,    0.1250000 ]
  weight: 8    
  band:
  - # 1
    frequency:   -21.4863241323
  - # 2
    frequency:   -21.1935467291
  - # 3
    frequency:   -18.2137174413
  - # 4
    frequency:   -17.8311382592
  - # 5
    frequency:    -7.0460566429
  - # 6
    frequency:    -5.9001028737
  - # 7
    frequency:    12.6487082746
  - # 8
    frequency:    13.2300336867
  - # 9
    frequency:    15.9787014707
  - # 10
    frequency:    16.1731374443
  - # 11
    frequency:    16.8721660232
  - # 12
    frequency:    17.1043808878

- q-position: [   -0.3333333,    0.3333333,    0.1250000 ]
  weight: 4    
  band:
  - # 1
    frequency:   -23.5356463003
  - # 2
    frequency:   -23.5112776576
  - # 3
    frequency:   -22.9969994632
  - # 4
    frequency:   -22.9500745189
  - # 5
    frequency:    -1.0126846807
  - # 6
    frequency:     3.7982287917
  - # 7
    frequency:    10.9028234350
  - # 8
    frequency:    11.9133569611
  - # 9
    frequency:    14.5453892923
  - # 10
    frequency:    14.7760247693
  - # 11
    frequency:    17.5536809314
  - # 12
    frequency:    17.8239172427

- q-position: [   -0.5555556,    0.4444444,    0.1250000 ]
  weight: 4    
  band:
  - # 1
    frequency:   -18.7707981920
  - # 2
    frequency:   -18.7180844845
  - # 3
    frequency:   -12.3547858093
  - # 4
    frequency:   -12.1216104748
  - # 5
    frequency:   -11.9043656228
  - # 6
    frequency:   -11.5120249529
  - # 7
    frequency:    13.9134935880
  - # 8
    frequency:    14.2901865751
  - # 9
    frequency:    16.2180143172
  - # 10
    frequency:    16.3395181898
  - # 11
    frequency:    16.3437389510
  - # 12
    frequency:    16.3757350082

- q-position: [   -0.4444444,    0.4444444,    0.1250000 ]
  weight: 4    
  band:
  - # 1
    frequency:   -19.2188189127
  - # 2
    frequency:   -18.9459645917
  - # 3
    frequency:   -17.0135450284
  - # 4
    frequency:   -16.5348800883
  - # 5
    frequency:    -9.7929862924
  - # 6
    frequency:    -9.0668138598
  - # 7
    frequency:    13.1314419493
  - # 8
    frequency:    13.6656539040
  - # 9
    frequency:    16.0933487448
  - # 10
    frequency:    16.2060674056
  - # 11
    frequency:    16.6427225125
  - # 12
    frequency:    16.8498046666

- q-position: [    0.0000000,    0.0000000,    0.3750000 ]
  weight: 2    
  band:
  - # 1
    frequency:   -33.2661073416
  - # 2
    frequency:   -33.2655136660
  - # 3
    frequency:   -32.8632502986
  - # 4
    frequency:   -32.8627748457
  - # 5
    frequency:     1.0690299861
  - # 6
    frequency:     1.0721309670
  - # 7
    frequency:     1.6137313144
  - # 8
    frequency:     1.6161043248
  - # 9
    frequency:     4.0695914630
  - # 10
    frequency:     6.0002592335
  - # 11
    frequency:    18.9882350223
  - # 12
    frequency:    19.0084464562

- q-position: [    0.1111111,    0.0000000,    0.3750000 ]
  weight: 8    
  band:
  - # 1
    frequency:   -32.1113910738
  - # 2
    frequency:   -31.7386943251
  - # 3
    frequency:   -31.7005973104
  - # 4
    frequency:   -31.3216606971
  - # 5
    frequency:    -2.3899289958
  - # 6
    frequency:    -2.0426150846
  - # 7
    frequency:     6.2957833694
  - # 8
    frequency:     6.3538590092
  - # 9
    frequency:     6.4081265521
  - # 10
    frequency:     7.5837899662
  - # 11
    frequency:    18.6167016530
  - # 12
    frequency:    18.6476991777

- q-position: [    0.2222222,    0.0000000,    0.3750000 ]
  weight: 8    
  band:
  - # 1
    frequency:   -28.9758620078
  - # 2
    frequency:   -28.6877820553
  - # 3
    frequency:   -27.3253240413
  - # 4
    frequency:   -27.0226060621
  - # 5
    frequency:    -4.9285169441
  - # 6
    frequency:    -4.6450524014
  - # 7
    frequency:    10.0207531514
  - # 8
    frequency:    10.5839722487
  - # 9
    frequency:    11.7132913141
  - # 10
    frequency:    11.7555367555
  - # 11
    frequency:    17.6494246512
  - # 12
    frequency:    17.6879111669

- q-position: [    0.3333333,    0.0000000,    0.3750000 ]
  weight: 8    
  band:
  - # 1
    frequency:   -24.9070458591
  - # 2
    frequency:   -24.7390186993
  - # 3
    frequency:   -21.2156645947
  - # 4
    frequency:   -21.0549710090
  - # 5
    frequency:    -7.0027447505
  - # 6
    frequency:    -6.6206954635
  - # 7
    frequency:    13.0185589401
  - # 8
    frequency:    13.2064995281
  - # 9
    frequency:    15.7296840987
  - # 10
    frequency:    15.7470107306
  - # 11
    frequency:    16.4746921356
  - # 12
    frequency:    16.5033461239

- q-position: [    0.4444444,    0.0000000,    0.3750000 ]
  weight: 8    
  band:
  - # 1
    frequency:   -21.7980458803
  - # 2
    frequency:   -21.7485382672
  - # 3
    frequency:   -15.8435191266
  - # 4
    frequency:   -15.7703283018
  - # 5
    frequency:    -8.4787233517
  - # 6
    frequency:    -8.1752371038
  - # 7
    frequency:    14.7646803462
  - # 8
    frequency:    14.7787166743
  - # 9
    frequency:    15.5389928604
  - # 10
    frequency:    15.5874485222
  - # 11
    frequency:    17.8571764883
  - # 12
    frequency:    17.8614218395

- q-position: [    0.1111111,    0.1111111,    0.3750000 ]
  weight: 4    
  band:
  - # 1
    frequency:   -29.9155608697
  - # 2
    frequency:   -29.6097710982
  - # 3
    frequency:   -28.6221717187
  - # 4
    frequency:   -28.2935041860
  - # 5
    frequency:     6.3175033393
  - # 6
    frequency:     6.3339284982
  - # 7
    frequency:     6.5452035089
  - # 8
    frequency:     6.5497161587
  - # 9
    frequency:     9.4855599158
  - # 10
    frequency:    10.1336194819
  - # 11
    frequency:    17.7542418870
  - # 12
    frequency:    17.7596537807

- q-position: [    0.2222222,    0.1111111,    0.3750000 ]
  weight: 8    
  band:
  - # 1
    frequency:   -26.3144721876
  - # 2
    frequency:   -26.1187911287
  - # 3
    frequency:   -23.4815153499
  - # 4
    frequency:   -23.2616516882
  - # 5
    frequency:     5.7579893529
  - # 6
    frequency:     6.0534583491
  - # 7
    frequency:    11.9391146773
  - # 8
    frequency:    12.0105191315
  - # 9
    frequency:    12.5607290676
  - # 10
    frequency:    12.8165844022
  - # 11
    frequency:    16.5649342442
  - # 12
    frequency:    16.5724097862

- q-position: [    0.3333333,    0.1111111,    0.3750000 ]
  weight: 8    
  band:
  - # 1
    frequency:   -22.7001706677
  - # 2
    frequency:   -22.6198634760
  - # 3
    frequency:   -18.0045708012
  - # 4
    frequency:   -17.9088331513
  - # 5
    frequency:     3.6800514855
  - # 6
    frequency:     4.3575409925
  - # 7
    frequency:    14.6276186270
  - # 8
    frequency:    14.6692007781
  - # 9
    frequency:    15.5453267485
  - # 10
    frequency:    15.5621412632
  - # 11
    frequency:    15.9267010718
  - # 12
    frequency:    15.9952214983

- q-position: [   -0.5555556,    0.1111111,    0.3750000 ]
  weight: 8    
  band:
  - # 1
    frequency:   -21.0415221016
  - # 2
    frequency:   -21.0321302957
  - # 3
    frequency:   -14.2597724377
  - # 4
    frequency:   -14.1116159631
  - # 5
    frequency:    -7.1384222479
  - # 6
    frequency:    -6.9705056334
  - # 7
    frequency:    14.8981521774
  - # 8
    frequency:    14.9392511197
  - # 9
    frequency:    15.5297893066
  - # 10
    frequency:    15.5997230723
  - # 11
    frequency:    17.9169073442
  - # 12
    frequency:    17.9853676378

- q-position: [   -0.4444444,    0.1111111,    0.3750000 ]
  weight: 8    
  band:
  - # 1
    frequency:   -22.6821001034
  - # 2
    frequency:   -22.5841672767
  - # 3
    frequency:   -16.4227924621
  - # 4
    frequency:   -16.3601338759
  - # 5
    frequency:   -10.0405832312
  - # 6
    frequency:    -9.7165895294
  - # 7
    frequency:    13.7776641188
  - # 8
    frequency:    13.8640187630
  - # 9
    frequency:    16.2639827912
  - # 10
    frequency:    16.3251688588
  - # 11
    frequency:    17.6728453190
  - # 12
    frequency:    17.7438513595

- q-position: [   -0.3333333,    0.1111111,    0.3750000 ]
  weight: 8    
  band:
  - # 1
    frequency:   -26.3955529432
  - # 2
    frequency:   -26.1687594133
  - # 3
    frequency:   -23.4918776830
  - # 4
    frequency:   -23.2537275216
  - # 5
    frequency:    -7.4296977034
  - # 6
    frequency:    -7.1153038454
  - # 7
    frequency:    11.3642869123
  - # 8
    frequency:    11.7392583835
  - # 9
    frequency:    15.2823838799
  - # 10
    frequency:    15.3561370666
  - # 11
    frequency:    17.3442239063
  - # 12
    frequency:    17.4149635408

- q-position: [   -0.2222222,    0.1111111,    0.3750000 ]
  weight: 8    
  band:
  - # 1
    frequency:   -30.0030237574
  - # 2
    frequency:   -29.6746040772
  - # 3
    frequency:   -29.0711515192
  - # 4
    frequency:   -28.7354496078
  - # 5
    frequency:    -3.4759677734
  - # 6
    frequency:    -2.9956910814
  - # 7
    frequency:     8.1476464011
  - # 8
    frequency:     9.0048026145
  - # 9
    frequency:    11.0745771123
  - # 10
    frequency:    11.1489392436
  - # 11
    frequency:    18.3445305650
  - # 12
    frequency:    18.4198248674

- q-position: [   -0.1111111,    0.1111111,    0.3750000 ]
  weight: 4    
  band:
  - # 1
    frequency:   -32.0778307199
  - # 2
    frequency:   -31.9864661024
  - # 3
    frequency:   -31.6969963268
  - # 4
    frequency:   -31.6049580727
  - # 5
    frequency:     3.3105227154
  - # 6
    frequency:     3.7024799976
  - # 7
    frequency:     5.5821461276
  - # 8
    frequency:     6.1885939115
  - # 9
    frequency:     6.2545672153
  - # 10
    frequency:     7.0131146700
  - # 11
    frequency:    18.8355236990
  - # 12
    frequency:    18.8949294764

- q-position: [    0.2222222,    0.2222222,    0.3750000 ]
  weight: 4    
  band:
  - # 1
    frequency:   -23.1126490939
  - # 2
    frequency:   -23.0310192560
  - # 3
    frequency:   -18.7010109086
  - # 4
    frequency:   -18.6100347846
  - # 5
    frequency:     9.9556591213
  - # 6
    frequency:    10.0712382233
  - # 7
    frequency:    13.3846786568
  - # 8
    frequency:    13.3971902467
  - # 9
    frequency:    14.5714486212
  - # 10
    frequency:    14.6308844871
  - # 11
    frequency:    15.5456531901
  - # 12
    frequency:    15.5563410159

- q-position: [    0.3333333,    0.2222222,    0.3750000 ]
  weight: 8    
  band:
  - # 1
    frequency:   -20.7158146248
  - # 2
    frequency:   -20.6998338655
  - # 3
    frequency:   -14.5671111659
  - # 4
    frequency:   -14.4752736676
  - # 5
    frequency:     7.9699331358
  - # 6
    frequency:     8.2367762792
  - # 7
    frequency:    15.0057269445
  - # 8
    frequency:    15.0325098515
  - # 9
    frequency:    15.5386037876
  - # 10
    frequency:    15.5813927080
  - # 11
    frequency:    16.3888859849
  - # 12
    frequency:    16.4715734971

- q-position: [   -0.5555556,    0.2222222,    0.3750000 ]
  weight: 8    
  band:
  - # 1
    frequency:   -20.5003599567
  - # 2
    frequency:   -20.4666591704
  - # 3
    frequency:   -11.6042285899
  - # 4
    frequency:   -11.3650119894
  - # 5
    frequency:    -8.1756305168
  - # 6
    frequency:    -8.0026328107
  - # 7
    frequency:    14.6090064183
  - # 8
    frequency:    14.6157833706
  - # 9
    frequency:    15.9037688859
  - # 10
    frequency:    15.9825963213
  - # 11
    frequency:    17.6395274023
  - # 12
    frequency:    17.7345934964

- q-position: [   -0.4444444,    0.2222222,    0.3750000 ]
  weight: 8    
  band:
  - # 1
    frequency:   -22.8274927689
  - # 2
    frequency:   -22.7011039752
  - # 3
    frequency:   -17.4528389839
  - # 4
    frequency:   -17.2951585030
  - # 5
    frequency:    -8.4844762279
  - # 6
    frequency:    -8.1362440931
  - # 7
    frequency:    13.0058276938
  - # 8
    frequency:    13.1933553238
  - # 9
    frequency:    16.7906294125
  - # 10
    frequency:    16.8746940878
  - # 11
    frequency:    16.9351221654
  - # 12
    frequency:    17.0312849246

- q-position: [   -0.3333333,    0.2222222,    0.3750000 ]
  weight: 8    
  band:
  - # 1
    frequency:   -26.1078823637
  - # 2
    frequency:   -25.8668387429
  - # 3
    frequency:   -24.2536154554
  - # 4
    frequency:   -23.9975174189
  - # 5
    frequency:    -3.2300709417
  - # 6
    frequency:    -2.2761498381
  - # 7
    frequency:    10.5835743385
  - # 8
    frequency:    11.0686463717
  - # 9
    frequency:    14.4402829556
  - # 10
    frequency:    14.5340254088
  - # 11
    frequency:    17.7889325322
  - # 12
    frequency:    17.8914396322

- q-position: [   -0.2222222,    0.2222222,    0.3750000 ]
  weight: 4    
  band:
  - # 1
    frequency:   -28.6504221596
  - # 2
    frequency:   -28.4031330452
  - # 3
    frequency:   -28.3318929735
  - # 4
    frequency:   -28.0835626954
  - # 5
    frequency:     4.9930498153
  - # 6
    frequency:     5.4653237754
  - # 7
    frequency:     8.4363378196
  - # 8
    frequency:     9.2444831315
  - # 9
    frequency:    11.2326208468
  - # 10
    frequency:    11.3074605884
  - # 11
    frequency:    18.3925039336
  - # 12
    frequency:    18.4922219116

- q-position: [   -0.6666667,    0.3333333,    0.3750000 ]
  weight: 4    
  band:
  - # 1
    frequency:   -19.5307392876
  - # 2
    frequency:   -19.4874645397
  - # 3
    frequency:   -11.9592469141
  - # 4
    frequency:   -11.8596308329
  - # 5
    frequency:     6.2266562882
  - # 6
    frequency:     6.6190448370
  - # 7
    frequency:    15.1764165231
  - # 8
    frequency:    15.1939469818
  - # 9
    frequency:    15.5351079634
  - # 10
    frequency:    15.5471462426
  - # 11
    frequency:    16.7322537587
  - # 12
    frequency:    16.7397061283

- q-position: [   -0.5555556,    0.3333333,    0.3750000 ]
  weight: 8    
  band:
  - # 1
    frequency:   -19.6660819608
  - # 2
    frequency:   -19.6270214229
  - # 3
    frequency:   -11.5937911428
  - # 4
    frequency:   -11.4641478575
  - # 5
    frequency:    -8.3104822439
  - # 6
    frequency:    -7.9511962670
  - # 7
    frequency:    14.4859876981
  - # 8
    frequency:    14.5585254168
  - # 9
    frequency:    15.9930448298
  - # 10
    frequency:    16.0577212333
  - # 11
    frequency:    16.7318183487
  - # 12
    frequency:    16.7891926509

- q-position: [   -0.4444444,    0.3333333,    0.3750000 ]
  weight: 8    
  band:
  - # 1
    frequency:   -21.4174986093
  - # 2
    frequency:   -21.2960824587
  - # 3
    frequency:   -18.1253814742
  - # 4
    frequency:   -17.9669483940
  - # 5
    frequency:    -6.7037726225
  - # 6
    frequency:    -6.2292549657
  - # 7
    frequency:    12.8366978259
  - # 8
    frequency:    13.0777771310
  - # 9
    frequency:    16.0405778371
  - # 10
    frequency:    16.1210703826
  - # 11
    frequency:    16.9411577838
  - # 12
    frequency:    17.0378534957

- q-position: [   -0.3333333,    0.3333333,    0.3750000 ]
  weight: 4    
  band:
  - # 1
    frequency:   -23.4102020228
  - # 2
    frequency:   -23.3782084323
  - # 3
    frequency:   -23.1873592016
  - # 4
    frequency:   -23.1461468286
  - # 5
    frequency:     1.9836295749
  - # 6
    frequency:     3.2138537820
  - # 7
    frequency:    11.2295521834
  - # 8
    frequency:    11.6472822932
  - # 9
    frequency:    14.6189248411
  - # 10
    frequency:    14.7143572592
  - # 11
    frequency:    17.6347065133
  - # 12
    frequency:    17.7468820971

- q-position: [   -0.5555556,    0.4444444,    0.3750000 ]
  weight: 4    
  band:
  - # 1
    frequency:   -18.7612795069
  - # 2
    frequency:   -18.7393148835
  - # 3
    frequency:   -12.1489490402
  - # 4
    frequency:   -12.0641010673
  - # 5
    frequency:   -11.9347332473
  - # 6
    frequency:   -11.7608703223
  - # 7
    frequency:    14.0395765211
  - # 8
    frequency:    14.1970187018
  - # 9
    frequency:    16.2609827286
  - # 10
    frequency:    16.3272125503
  - # 11
    frequency:    16.3426083736
  - # 12
    frequency:    16.3438539373

- q-position: [   -0.4444444,    0.4444444,    0.3750000 ]
  weight: 4    
  band:
  - # 1
    frequency:   -19.1541950023
  - # 2
    frequency:   -19.0412621497
  - # 3
    frequency:   -16.8830886897
  - # 4
    frequency:   -16.6850636993
  - # 5
    frequency:    -9.5767003446
  - # 6
    frequency:    -9.2764826850
  - # 7
    frequency:    13.3071961936
  - # 8
    frequency:    13.5294800917
  - # 9
    frequency:    16.1274117884
  - # 10
    frequency:    16.1740936585
  - # 11
    frequency:    16.7006956851
  - # 12
    frequency:    16.7875619400

