# Thermal properties / unit cell (natom)

unit:
  temperature:   K
  free_energy:   kJ/mol
  entropy:       J/K/mol
  heat_capacity: J/K/mol

natom:     4
num_modes: 3888
num_integrated_modes: 3868

zero_point_energy:      66.3663481
high_T_entropy:        228.2738832

thermal_properties:
- temperature:         0.0000000
  free_energy:        66.3663481
  entropy:             0.0000000
  heat_capacity:       0.0000000
  energy:             66.3663481

- temperature:        10.0000000
  free_energy:        66.3661940
  entropy:             0.0577806
  heat_capacity:       0.1218941
  energy:             66.3667718

- temperature:        20.0000000
  free_energy:        66.3650205
  entropy:             0.1740772
  heat_capacity:       0.2155461
  energy:             66.3685020

- temperature:        30.0000000
  free_energy:        66.3627518
  entropy:             0.2795629
  heat_capacity:       0.3211995
  energy:             66.3711387

- temperature:        40.0000000
  free_energy:        66.3593970
  entropy:             0.3944029
  heat_capacity:       0.5000385
  energy:             66.3751732

- temperature:        50.0000000
  free_energy:        66.3547823
  entropy:             0.5335598
  heat_capacity:       0.7752167
  energy:             66.3814603

- temperature:        60.0000000
  free_energy:        66.3486091
  entropy:             0.7077063
  heat_capacity:       1.1684834
  energy:             66.3910714

- temperature:        70.0000000
  free_energy:        66.3404815
  entropy:             0.9258070
  heat_capacity:       1.6988482
  energy:             66.4052880

- temperature:        80.0000000
  free_energy:        66.3299216
  entropy:             1.1952515
  heat_capacity:       2.3768804
  energy:             66.4255417

- temperature:        90.0000000
  free_energy:        66.3163868
  entropy:             1.5215160
  heat_capacity:       3.2039725
  energy:             66.4533233

- temperature:       100.0000000
  free_energy:        66.2992900
  entropy:             1.9080854
  heat_capacity:       4.1741169
  energy:             66.4900985

- temperature:       110.0000000
  free_energy:        66.2780184
  entropy:             2.3566045
  heat_capacity:       5.2759433
  energy:             66.5372449

- temperature:       120.0000000
  free_energy:        66.2519511
  entropy:             2.8671299
  heat_capacity:       6.4944802
  energy:             66.5960067

- temperature:       130.0000000
  free_energy:        66.2204732
  entropy:             3.4384128
  heat_capacity:       7.8126931
  energy:             66.6674669

- temperature:       140.0000000
  free_energy:        66.1829878
  entropy:             4.0681844
  heat_capacity:       9.2128415
  energy:             66.7525336

- temperature:       150.0000000
  free_energy:        66.1389245
  entropy:             4.7534294
  heat_capacity:      10.6776105
  energy:             66.8519389

- temperature:       160.0000000
  free_energy:        66.0877460
  entropy:             5.4906349
  heat_capacity:      12.1909590
  energy:             66.9662475

- temperature:       170.0000000
  free_energy:        66.0289513
  entropy:             6.2760066
  heat_capacity:      13.7386612
  energy:             67.0958724

- temperature:       180.0000000
  free_energy:        65.9620783
  entropy:             7.1056459
  heat_capacity:      15.3085659
  energy:             67.2410945

- temperature:       190.0000000
  free_energy:        65.8867037
  entropy:             7.9756859
  heat_capacity:      16.8906268
  energy:             67.4020840

- temperature:       200.0000000
  free_energy:        65.8024424
  entropy:             8.8823906
  heat_capacity:      18.4767702
  energy:             67.5789205

- temperature:       210.0000000
  free_energy:        65.7089455
  entropy:             9.8222203
  heat_capacity:      20.0606662
  energy:             67.7716118

- temperature:       220.0000000
  free_energy:        65.6058986
  entropy:            10.7918700
  heat_capacity:      21.6374538
  energy:             67.9801100

- temperature:       230.0000000
  free_energy:        65.4930189
  entropy:            11.7882865
  heat_capacity:      23.2034601
  energy:             68.2043248

- temperature:       240.0000000
  free_energy:        65.3700530
  entropy:            12.8086710
  heat_capacity:      24.7559398
  energy:             68.4441340

- temperature:       250.0000000
  free_energy:        65.2367741
  entropy:            13.8504700
  heat_capacity:      26.2928469
  energy:             68.6993916

- temperature:       260.0000000
  free_energy:        65.0929800
  entropy:            14.9113612
  heat_capacity:      27.8126458
  energy:             68.9699339

- temperature:       270.0000000
  free_energy:        64.9384903
  entropy:            15.9892343
  heat_capacity:      29.3141624
  energy:             69.2555836

- temperature:       280.0000000
  free_energy:        64.7731451
  entropy:            17.0821714
  heat_capacity:      30.7964702
  energy:             69.5561531

- temperature:       290.0000000
  free_energy:        64.5968025
  entropy:            18.1884272
  heat_capacity:      32.2588078
  energy:             69.8714464

- temperature:       300.0000000
  free_energy:        64.4093375
  entropy:            19.3064101
  heat_capacity:      33.7005218
  energy:             70.2012605

- temperature:       310.0000000
  free_energy:        64.2106401
  entropy:            20.4346647
  heat_capacity:      35.1210287
  energy:             70.5453862

- temperature:       320.0000000
  free_energy:        64.0006144
  entropy:            21.5718569
  heat_capacity:      36.5197932
  energy:             70.9036086

- temperature:       330.0000000
  free_energy:        63.7791773
  entropy:            22.7167594
  heat_capacity:      37.8963154
  energy:             71.2757079

- temperature:       340.0000000
  free_energy:        63.5462573
  entropy:            23.8682409
  heat_capacity:      39.2501273
  energy:             71.6614592

- temperature:       350.0000000
  free_energy:        63.3017940
  entropy:            25.0252550
  heat_capacity:      40.5807921
  energy:             72.0606333

- temperature:       360.0000000
  free_energy:        63.0457370
  entropy:            26.1868321
  heat_capacity:      41.8879079
  energy:             72.4729965

- temperature:       370.0000000
  free_energy:        62.7780452
  entropy:            27.3520717
  heat_capacity:      43.1711112
  energy:             72.8983117

- temperature:       380.0000000
  free_energy:        62.4986861
  entropy:            28.5201364
  heat_capacity:      44.4300822
  energy:             73.3363380

- temperature:       390.0000000
  free_energy:        62.2076356
  entropy:            29.6902462
  heat_capacity:      45.6645478
  energy:             73.7868317

- temperature:       400.0000000
  free_energy:        61.9048768
  entropy:            30.8616742
  heat_capacity:      46.8742860
  energy:             74.2495465

- temperature:       410.0000000
  free_energy:        61.5904000
  entropy:            32.0337424
  heat_capacity:      48.0591275
  energy:             74.7242344

- temperature:       420.0000000
  free_energy:        61.2642020
  entropy:            33.2058184
  heat_capacity:      49.2189571
  energy:             75.2106457

- temperature:       430.0000000
  free_energy:        60.9262856
  entropy:            34.3773124
  heat_capacity:      50.3537143
  energy:             75.7085299

- temperature:       440.0000000
  free_energy:        60.5766595
  entropy:            35.5476747
  heat_capacity:      51.4633924
  energy:             76.2176364

- temperature:       450.0000000
  free_energy:        60.2153376
  entropy:            36.7163928
  heat_capacity:      52.5480370
  energy:             76.7377143

- temperature:       460.0000000
  free_energy:        59.8423387
  entropy:            37.8829897
  heat_capacity:      53.6077443
  energy:             77.2685140

- temperature:       470.0000000
  free_energy:        59.4576863
  entropy:            39.0470218
  heat_capacity:      54.6426579
  energy:             77.8097866

- temperature:       480.0000000
  free_energy:        59.0614082
  entropy:            40.2080769
  heat_capacity:      55.6529663
  energy:             78.3612851

- temperature:       490.0000000
  free_energy:        58.6535360
  entropy:            41.3657727
  heat_capacity:      56.6388993
  energy:             78.9227646

- temperature:       500.0000000
  free_energy:        58.2341051
  entropy:            42.5197552
  heat_capacity:      57.6007244
  energy:             79.4939827

- temperature:       510.0000000
  free_energy:        57.8031544
  entropy:            43.6696969
  heat_capacity:      58.5387436
  energy:             80.0746998

- temperature:       520.0000000
  free_energy:        57.3607257
  entropy:            44.8152956
  heat_capacity:      59.4532896
  energy:             80.6646794

- temperature:       530.0000000
  free_energy:        56.9068639
  entropy:            45.9562729
  heat_capacity:      60.3447220
  energy:             81.2636885

- temperature:       540.0000000
  free_energy:        56.4416165
  entropy:            47.0923733
  heat_capacity:      61.2134244
  energy:             81.8714980

- temperature:       550.0000000
  free_energy:        55.9650334
  entropy:            48.2233621
  heat_capacity:      62.0598006
  energy:             82.4878826

- temperature:       560.0000000
  free_energy:        55.4771670
  entropy:            49.3490251
  heat_capacity:      62.8842717
  energy:             83.1126210

- temperature:       570.0000000
  free_energy:        54.9780713
  entropy:            50.4691669
  heat_capacity:      63.6872731
  energy:             83.7454965

- temperature:       580.0000000
  free_energy:        54.4678026
  entropy:            51.5836099
  heat_capacity:      64.4692517
  energy:             84.3862964

- temperature:       590.0000000
  free_energy:        53.9464187
  entropy:            52.6921936
  heat_capacity:      65.2306636
  energy:             85.0348129

- temperature:       600.0000000
  free_energy:        53.4139788
  entropy:            53.7947731
  heat_capacity:      65.9719713
  energy:             85.6908427

- temperature:       610.0000000
  free_energy:        52.8705437
  entropy:            54.8912184
  heat_capacity:      66.6936419
  energy:             86.3541869

- temperature:       620.0000000
  free_energy:        52.3161753
  entropy:            55.9814135
  heat_capacity:      67.3961450
  energy:             87.0246516

- temperature:       630.0000000
  free_energy:        51.7509366
  entropy:            57.0652554
  heat_capacity:      68.0799509
  energy:             87.7020475

- temperature:       640.0000000
  free_energy:        51.1748916
  entropy:            58.1426535
  heat_capacity:      68.7455294
  energy:             88.3861899

- temperature:       650.0000000
  free_energy:        50.5881052
  entropy:            59.2135286
  heat_capacity:      69.3933477
  energy:             89.0768989

- temperature:       660.0000000
  free_energy:        49.9906430
  entropy:            60.2778123
  heat_capacity:      70.0238700
  energy:             89.7739992

- temperature:       670.0000000
  free_energy:        49.3825712
  entropy:            61.3354462
  heat_capacity:      70.6375556
  energy:             90.4773201

- temperature:       680.0000000
  free_energy:        48.7639564
  entropy:            62.3863812
  heat_capacity:      71.2348585
  energy:             91.1866957

- temperature:       690.0000000
  free_energy:        48.1348660
  entropy:            63.4305771
  heat_capacity:      71.8162264
  energy:             91.9019642

- temperature:       700.0000000
  free_energy:        47.4953675
  entropy:            64.4680016
  heat_capacity:      72.3821000
  energy:             92.6229686

- temperature:       710.0000000
  free_energy:        46.8455286
  entropy:            65.4986301
  heat_capacity:      72.9329122
  energy:             93.3495560

- temperature:       720.0000000
  free_energy:        46.1854176
  entropy:            66.5224451
  heat_capacity:      73.4690881
  energy:             94.0815780

- temperature:       730.0000000
  free_energy:        45.5151025
  entropy:            67.5394354
  heat_capacity:      73.9910442
  energy:             94.8188904

- temperature:       740.0000000
  free_energy:        44.8346516
  entropy:            68.5495963
  heat_capacity:      74.4991880
  energy:             95.5613529

- temperature:       750.0000000
  free_energy:        44.1441333
  entropy:            69.5529281
  heat_capacity:      74.9939180
  energy:             96.3088294

- temperature:       760.0000000
  free_energy:        43.4436158
  entropy:            70.5494368
  heat_capacity:      75.4756236
  energy:             97.0611878

- temperature:       770.0000000
  free_energy:        42.7331673
  entropy:            71.5391330
  heat_capacity:      75.9446844
  energy:             97.8182997

- temperature:       780.0000000
  free_energy:        42.0128558
  entropy:            72.5220318
  heat_capacity:      76.4014708
  energy:             98.5800406

- temperature:       790.0000000
  free_energy:        41.2827492
  entropy:            73.4981521
  heat_capacity:      76.8463436
  energy:             99.3462894

- temperature:       800.0000000
  free_energy:        40.5429153
  entropy:            74.4675170
  heat_capacity:      77.2796539
  energy:            100.1169289

- temperature:       810.0000000
  free_energy:        39.7934213
  entropy:            75.4301528
  heat_capacity:      77.7017434
  energy:            100.8918451

- temperature:       820.0000000
  free_energy:        39.0343346
  entropy:            76.3860889
  heat_capacity:      78.1129443
  energy:            101.6709275

- temperature:       830.0000000
  free_energy:        38.2657218
  entropy:            77.3353578
  heat_capacity:      78.5135795
  energy:            102.4540688

- temperature:       840.0000000
  free_energy:        37.4876495
  entropy:            78.2779945
  heat_capacity:      78.9039625
  energy:            103.2411649

- temperature:       850.0000000
  free_energy:        36.7001839
  entropy:            79.2140365
  heat_capacity:      79.2843980
  energy:            104.0321149

- temperature:       860.0000000
  free_energy:        35.9033906
  entropy:            80.1435233
  heat_capacity:      79.6551813
  energy:            104.8268207

- temperature:       870.0000000
  free_energy:        35.0973351
  entropy:            81.0664967
  heat_capacity:      80.0165993
  energy:            105.6251873

- temperature:       880.0000000
  free_energy:        34.2820823
  entropy:            81.9830001
  heat_capacity:      80.3689300
  energy:            106.4271224

- temperature:       890.0000000
  free_energy:        33.4576965
  entropy:            82.8930786
  heat_capacity:      80.7124429
  energy:            107.2325365

- temperature:       900.0000000
  free_energy:        32.6242420
  entropy:            83.7967786
  heat_capacity:      81.0473996
  energy:            108.0413427

- temperature:       910.0000000
  free_energy:        31.7817821
  entropy:            84.6941481
  heat_capacity:      81.3740532
  energy:            108.8534568

- temperature:       920.0000000
  free_energy:        30.9303799
  entropy:            85.5852359
  heat_capacity:      81.6926492
  energy:            109.6687969

- temperature:       930.0000000
  free_energy:        30.0700981
  entropy:            86.4700920
  heat_capacity:      82.0034254
  energy:            110.4872837

- temperature:       940.0000000
  free_energy:        29.2009987
  entropy:            87.3487675
  heat_capacity:      82.3066119
  energy:            111.3088401

- temperature:       950.0000000
  free_energy:        28.3231432
  entropy:            88.2213139
  heat_capacity:      82.6024319
  energy:            112.1333914

- temperature:       960.0000000
  free_energy:        27.4365927
  entropy:            89.0877836
  heat_capacity:      82.8911012
  energy:            112.9608649

- temperature:       970.0000000
  free_energy:        26.5414076
  entropy:            89.9482296
  heat_capacity:      83.1728290
  energy:            113.7911903

- temperature:       980.0000000
  free_energy:        25.6376480
  entropy:            90.8027052
  heat_capacity:      83.4478177
  energy:            114.6242991

- temperature:       990.0000000
  free_energy:        24.7253732
  entropy:            91.6512642
  heat_capacity:      83.7162632
  energy:            115.4601248

- temperature:      1000.0000000
  free_energy:        23.8046422
  entropy:            92.4939609
  heat_capacity:      83.9783553
  energy:            116.2986031
