  32  32   0   0
  0.6647258E+01  0.4934311E-09  0.4934311E-09  0.1008861E-08  0.5000000E-15
  1.000000000000000E-004
  CAR 
 graphite                                
     19.50949399    -14.85043958  301      7.56959885      1.00000000
    -14.850  0.0000E+00  0.0000E+00
    -14.736  0.0000E+00  0.0000E+00
    -14.621  0.0000E+00  0.0000E+00
    -14.507  0.0000E+00  0.0000E+00
    -14.392  0.0000E+00  0.0000E+00
    -14.278  0.0000E+00  0.0000E+00
    -14.163  0.0000E+00  0.0000E+00
    -14.049  0.0000E+00  0.0000E+00
    -13.934  0.0000E+00  0.0000E+00
    -13.820  0.0000E+00  0.0000E+00
    -13.705  0.0000E+00  0.0000E+00
    -13.591  0.0000E+00  0.0000E+00
    -13.476  0.0000E+00  0.0000E+00
    -13.362  0.0000E+00  0.0000E+00
    -13.247  0.0000E+00  0.0000E+00
    -13.132  0.0000E+00  0.0000E+00
    -13.018  0.0000E+00  0.0000E+00
    -12.903  0.0000E+00  0.0000E+00
    -12.789  0.4432E+00  0.9168E-02
    -12.674  0.9461E+00  0.9542E-01
    -12.560  0.1318E+01  0.2303E+00
    -12.445  0.1566E+01  0.3941E+00
    -12.331  0.1860E+01  0.5902E+00
    -12.216  0.2042E+01  0.8135E+00
    -12.102  0.2234E+01  0.1058E+01
    -11.987  0.2457E+01  0.1327E+01
    -11.873  0.2650E+01  0.1621E+01
    -11.758  0.2821E+01  0.1933E+01
    -11.644  0.3011E+01  0.2267E+01
    -11.529  0.3405E+01  0.2640E+01
    -11.414  0.3657E+01  0.3042E+01
    -11.300  0.4205E+01  0.3510E+01
    -11.185  0.4416E+01  0.4003E+01
    -11.071  0.3455E+01  0.4450E+01
    -10.956  0.3635E+01  0.4835E+01
    -10.842  0.5091E+01  0.5357E+01
    -10.727  0.5962E+01  0.5964E+01
    -10.613  0.5094E+01  0.6639E+01
    -10.498  0.5366E+01  0.7213E+01
    -10.384  0.3847E+01  0.7786E+01
    -10.269  0.3504E+01  0.8174E+01
    -10.155  0.5344E+01  0.8664E+01
    -10.040  0.6309E+01  0.9321E+01
     -9.926  0.4264E+01  0.9960E+01
     -9.811  0.4213E+01  0.1039E+02
     -9.696  0.5614E+01  0.1097E+02
     -9.582  0.5664E+01  0.1164E+02
     -9.467  0.4566E+01  0.1222E+02
     -9.353  0.4552E+01  0.1274E+02
     -9.238  0.5056E+01  0.1330E+02
     -9.124  0.5271E+01  0.1388E+02
     -9.009  0.6215E+01  0.1452E+02
     -8.895  0.5093E+01  0.1513E+02
     -8.780  0.5103E+01  0.1571E+02
     -8.666  0.5249E+01  0.1631E+02
     -8.551  0.5418E+01  0.1692E+02
     -8.437  0.5708E+01  0.1755E+02
     -8.322  0.5666E+01  0.1822E+02
     -8.208  0.5305E+01  0.1884E+02
     -8.093  0.5800E+01  0.1948E+02
     -7.978  0.6146E+01  0.2017E+02
     -7.864  0.5569E+01  0.2084E+02
     -7.749  0.5220E+01  0.2146E+02
     -7.635  0.4722E+01  0.2204E+02
     -7.520  0.4306E+01  0.2254E+02
     -7.406  0.4489E+01  0.2304E+02
     -7.291  0.5017E+01  0.2361E+02
     -7.177  0.6012E+01  0.2423E+02
     -7.062  0.6155E+01  0.2497E+02
     -6.948  0.5389E+01  0.2563E+02
     -6.833  0.5750E+01  0.2625E+02
     -6.719  0.6106E+01  0.2693E+02
     -6.604  0.5956E+01  0.2766E+02
     -6.490  0.1118E+02  0.2857E+02
     -6.375  0.4580E+01  0.2937E+02
     -6.260  0.3760E+01  0.2984E+02
     -6.146  0.3343E+01  0.3024E+02
     -6.031  0.3411E+01  0.3063E+02
     -5.917  0.2502E+01  0.3098E+02
     -5.802  0.1815E+01  0.3122E+02
     -5.688  0.1965E+01  0.3142E+02
     -5.573  0.5069E+01  0.3181E+02
     -5.459  0.3675E+01  0.3227E+02
     -5.344  0.4887E+01  0.3275E+02
     -5.230  0.5409E+01  0.3334E+02
     -5.115  0.4558E+01  0.3393E+02
     -5.001  0.4680E+01  0.3443E+02
     -4.886  0.6350E+01  0.3505E+02
     -4.772  0.8596E+01  0.3591E+02
     -4.657  0.6778E+01  0.3673E+02
     -4.542  0.6692E+01  0.3749E+02
     -4.428  0.6819E+01  0.3827E+02
     -4.313  0.6364E+01  0.3903E+02
     -4.199  0.6755E+01  0.3978E+02
     -4.084  0.5554E+01  0.4047E+02
     -3.970  0.5386E+01  0.4110E+02
     -3.855  0.5253E+01  0.4171E+02
     -3.741  0.5086E+01  0.4230E+02
     -3.626  0.5021E+01  0.4288E+02
     -3.512  0.5023E+01  0.4345E+02
     -3.397  0.4442E+01  0.4399E+02
     -3.283  0.3962E+01  0.4447E+02
     -3.168  0.3623E+01  0.4490E+02
     -3.054  0.3670E+01  0.4531E+02
     -2.939  0.4129E+01  0.4575E+02
     -2.824  0.5376E+01  0.4629E+02
     -2.710  0.7433E+01  0.4701E+02
     -2.595  0.8446E+01  0.4795E+02
     -2.481  0.7649E+01  0.4889E+02
     -2.366  0.6271E+01  0.4968E+02
     -2.252  0.6690E+01  0.5042E+02
     -2.137  0.5962E+01  0.5118E+02
     -2.023  0.3731E+01  0.5185E+02
     -1.908  0.4593E+01  0.5229E+02
     -1.794  0.7124E+01  0.5298E+02
     -1.679  0.8106E+01  0.5386E+02
     -1.565  0.7836E+01  0.5478E+02
     -1.450  0.7063E+01  0.5564E+02
     -1.336  0.5844E+01  0.5639E+02
     -1.221  0.6132E+01  0.5706E+02
     -1.106  0.7455E+01  0.5784E+02
     -0.992  0.8692E+01  0.5876E+02
     -0.877  0.9864E+01  0.5986E+02
     -0.763  0.1093E+02  0.6101E+02
     -0.648  0.8759E+01  0.6213E+02
     -0.534  0.7556E+01  0.6306E+02
     -0.419  0.7318E+01  0.6390E+02
     -0.305  0.8392E+01  0.6480E+02
     -0.190  0.9013E+01  0.6576E+02
     -0.076  0.8774E+01  0.6686E+02
      0.039  0.7894E+01  0.6786E+02
      0.153  0.8481E+01  0.6878E+02
      0.268  0.9855E+01  0.6982E+02
      0.382  0.1093E+02  0.7100E+02
      0.497  0.1132E+02  0.7229E+02
      0.612  0.1231E+02  0.7364E+02
      0.726  0.1167E+02  0.7501E+02
      0.841  0.1356E+02  0.7649E+02
      0.955  0.1198E+02  0.7795E+02
      1.070  0.1314E+02  0.7940E+02
      1.184  0.1081E+02  0.8077E+02
      1.299  0.1811E+02  0.8234E+02
      1.413  0.1114E+02  0.8394E+02
      1.528  0.1433E+02  0.8544E+02
      1.642  0.1222E+02  0.8699E+02
      1.757  0.1044E+02  0.8831E+02
      1.871  0.1086E+02  0.8949E+02
      1.986  0.1109E+02  0.9078E+02
      2.100  0.1086E+02  0.9204E+02
      2.215  0.1006E+02  0.9322E+02
      2.330  0.9515E+01  0.9433E+02
      2.444  0.9462E+01  0.9542E+02
      2.559  0.9618E+01  0.9651E+02
      2.673  0.1007E+02  0.9763E+02
      2.788  0.9798E+01  0.9877E+02
      2.902  0.9058E+01  0.9986E+02
      3.017  0.8952E+01  0.1009E+03
      3.131  0.8881E+01  0.1019E+03
      3.246  0.8933E+01  0.1029E+03
      3.360  0.9251E+01  0.1040E+03
      3.475  0.8901E+01  0.1050E+03
      3.589  0.8709E+01  0.1061E+03
      3.704  0.9630E+01  0.1071E+03
      3.818  0.9040E+01  0.1082E+03
      3.933  0.8937E+01  0.1092E+03
      4.048  0.8587E+01  0.1102E+03
      4.162  0.8129E+01  0.1112E+03
      4.277  0.9153E+01  0.1121E+03
      4.391  0.8308E+01  0.1132E+03
      4.506  0.7791E+01  0.1141E+03
      4.620  0.7113E+01  0.1149E+03
      4.735  0.5074E+01  0.1156E+03
      4.849  0.4477E+01  0.1162E+03
      4.964  0.4239E+01  0.1167E+03
      5.078  0.4050E+01  0.1172E+03
      5.193  0.3810E+01  0.1176E+03
      5.307  0.3948E+01  0.1181E+03
      5.422  0.5003E+01  0.1186E+03
      5.536  0.5763E+01  0.1192E+03
      5.651  0.6685E+01  0.1199E+03
      5.766  0.7162E+01  0.1207E+03
      5.880  0.5937E+01  0.1215E+03
      5.995  0.6469E+01  0.1222E+03
      6.109  0.8457E+01  0.1231E+03
      6.224  0.6365E+01  0.1239E+03
      6.338  0.5069E+01  0.1246E+03
      6.453  0.3790E+01  0.1251E+03
      6.567  0.3652E+01  0.1255E+03
      6.682  0.3334E+01  0.1259E+03
      6.796  0.4091E+01  0.1264E+03
      6.911  0.3454E+01  0.1268E+03
      7.025  0.2854E+01  0.1272E+03
      7.140  0.2526E+01  0.1275E+03
      7.254  0.2116E+01  0.1278E+03
      7.369  0.8182E+00  0.1279E+03
      7.484  0.3032E+00  0.1280E+03
      7.598  0.1178E+00  0.1280E+03
      7.713  0.3404E+00  0.1280E+03
      7.827  0.6324E+00  0.1281E+03
      7.942  0.9335E+00  0.1282E+03
      8.056  0.1121E+01  0.1283E+03
      8.171  0.1077E+01  0.1284E+03
      8.285  0.1164E+01  0.1286E+03
      8.400  0.1277E+01  0.1287E+03
      8.514  0.1417E+01  0.1289E+03
      8.629  0.1579E+01  0.1290E+03
      8.743  0.1740E+01  0.1292E+03
      8.858  0.2475E+01  0.1295E+03
      8.972  0.3087E+01  0.1298E+03
      9.087  0.3781E+01  0.1302E+03
      9.202  0.4896E+01  0.1307E+03
      9.316  0.6598E+01  0.1314E+03
      9.431  0.5726E+01  0.1321E+03
      9.545  0.5392E+01  0.1328E+03
      9.660  0.6935E+01  0.1334E+03
      9.774  0.7387E+01  0.1343E+03
      9.889  0.5970E+01  0.1351E+03
     10.003  0.4624E+01  0.1357E+03
     10.118  0.5515E+01  0.1363E+03
     10.232  0.5437E+01  0.1369E+03
     10.347  0.5205E+01  0.1375E+03
     10.461  0.5179E+01  0.1381E+03
     10.576  0.5135E+01  0.1387E+03
     10.690  0.5203E+01  0.1393E+03
     10.805  0.5082E+01  0.1399E+03
     10.920  0.4685E+01  0.1404E+03
     11.034  0.4585E+01  0.1410E+03
     11.149  0.4145E+01  0.1415E+03
     11.263  0.3950E+01  0.1419E+03
     11.378  0.4151E+01  0.1424E+03
     11.492  0.4293E+01  0.1429E+03
     11.607  0.4512E+01  0.1434E+03
     11.721  0.4289E+01  0.1439E+03
     11.836  0.3719E+01  0.1443E+03
     11.950  0.3610E+01  0.1448E+03
     12.065  0.3536E+01  0.1452E+03
     12.179  0.3513E+01  0.1456E+03
     12.294  0.3504E+01  0.1460E+03
     12.408  0.3498E+01  0.1464E+03
     12.523  0.3686E+01  0.1468E+03
     12.638  0.3249E+01  0.1472E+03
     12.752  0.3028E+01  0.1475E+03
     12.867  0.2904E+01  0.1479E+03
     12.981  0.2750E+01  0.1482E+03
     13.096  0.3141E+01  0.1485E+03
     13.210  0.3294E+01  0.1489E+03
     13.325  0.3071E+01  0.1493E+03
     13.439  0.3326E+01  0.1496E+03
     13.554  0.2357E+01  0.1500E+03
     13.668  0.1872E+01  0.1502E+03
     13.783  0.2772E+01  0.1504E+03
     13.897  0.4041E+01  0.1508E+03
     14.012  0.4028E+01  0.1513E+03
     14.126  0.3721E+01  0.1518E+03
     14.241  0.4089E+01  0.1522E+03
     14.356  0.4706E+01  0.1527E+03
     14.470  0.4489E+01  0.1532E+03
     14.585  0.5706E+01  0.1538E+03
     14.699  0.6787E+01  0.1545E+03
     14.814  0.5947E+01  0.1552E+03
     14.928  0.6138E+01  0.1560E+03
     15.043  0.6376E+01  0.1566E+03
     15.157  0.8060E+01  0.1576E+03
     15.272  0.7406E+01  0.1585E+03
     15.386  0.8114E+01  0.1594E+03
     15.501  0.8550E+01  0.1603E+03
     15.615  0.9876E+01  0.1614E+03
     15.730  0.1169E+02  0.1626E+03
     15.844  0.8178E+01  0.1638E+03
     15.959  0.6730E+01  0.1646E+03
     16.074  0.6188E+01  0.1654E+03
     16.188  0.6252E+01  0.1661E+03
     16.303  0.4124E+01  0.1667E+03
     16.417  0.2881E+01  0.1671E+03
     16.532  0.1971E+01  0.1673E+03
     16.646  0.1577E+01  0.1675E+03
     16.761  0.1243E+01  0.1677E+03
     16.875  0.8627E+00  0.1678E+03
     16.990  0.5562E+00  0.1679E+03
     17.104  0.2620E+00  0.1680E+03
     17.219  0.1474E+00  0.1680E+03
     17.333  0.7403E-01  0.1680E+03
     17.448  0.1698E-01  0.1680E+03
     17.562  0.0000E+00  0.1680E+03
     17.677  0.0000E+00  0.1680E+03
     17.791  0.0000E+00  0.1680E+03
     17.906  0.0000E+00  0.1680E+03
     18.021  0.0000E+00  0.1680E+03
     18.135  0.0000E+00  0.1680E+03
     18.250  0.0000E+00  0.1680E+03
     18.364  0.0000E+00  0.1680E+03
     18.479  0.0000E+00  0.1680E+03
     18.593  0.0000E+00  0.1680E+03
     18.708  0.0000E+00  0.1680E+03
     18.822  0.0000E+00  0.1680E+03
     18.937  0.0000E+00  0.1680E+03
     19.051  0.0000E+00  0.1680E+03
     19.166  0.0000E+00  0.1680E+03
     19.280  0.0000E+00  0.1680E+03
     19.395  0.0000E+00  0.1680E+03
     19.509  0.0000E+00  0.1680E+03
