  32  32   0   0
  0.4874656E+01  0.4934311E-09  0.4934311E-09  0.7398317E-09  0.5000000E-15
  1.000000000000000E-004
  CAR 
 graphite                                
     24.06318236    -13.51455561  301     13.69773938      1.00000000
    -13.515  0.0000E+00  0.0000E+00
    -13.389  0.0000E+00  0.0000E+00
    -13.264  0.0000E+00  0.0000E+00
    -13.139  0.0000E+00  0.0000E+00
    -13.014  0.0000E+00  0.0000E+00
    -12.888  0.0000E+00  0.0000E+00
    -12.763  0.0000E+00  0.0000E+00
    -12.638  0.0000E+00  0.0000E+00
    -12.512  0.0000E+00  0.0000E+00
    -12.387  0.0000E+00  0.0000E+00
    -12.262  0.0000E+00  0.0000E+00
    -12.137  0.0000E+00  0.0000E+00
    -12.011  0.0000E+00  0.0000E+00
    -11.886  0.0000E+00  0.0000E+00
    -11.761  0.0000E+00  0.0000E+00
    -11.636  0.0000E+00  0.0000E+00
    -11.510  0.7410E-03  0.1024E-05
    -11.385  0.4485E+00  0.2506E-01
    -11.260  0.7092E+00  0.1003E+00
    -11.135  0.8684E+00  0.2003E+00
    -11.009  0.1053E+01  0.3197E+00
    -10.884  0.1189E+01  0.4624E+00
    -10.759  0.1283E+01  0.6173E+00
    -10.634  0.1398E+01  0.7848E+00
    -10.508  0.1518E+01  0.9678E+00
    -10.383  0.1603E+01  0.1163E+01
    -10.258  0.1716E+01  0.1371E+01
    -10.133  0.1916E+01  0.1599E+01
    -10.007  0.2009E+01  0.1842E+01
     -9.882  0.2117E+01  0.2108E+01
     -9.757  0.1965E+01  0.2355E+01
     -9.632  0.2349E+01  0.2628E+01
     -9.506  0.2558E+01  0.2938E+01
     -9.381  0.2376E+01  0.3246E+01
     -9.256  0.2704E+01  0.3591E+01
     -9.130  0.1438E+01  0.3819E+01
     -9.005  0.1716E+01  0.4012E+01
     -8.880  0.2158E+01  0.4253E+01
     -8.755  0.2946E+01  0.4598E+01
     -8.629  0.2917E+01  0.4973E+01
     -8.504  0.2824E+01  0.5331E+01
     -8.379  0.2917E+01  0.5692E+01
     -8.254  0.3047E+01  0.6072E+01
     -8.128  0.3435E+01  0.6455E+01
     -8.003  0.3144E+01  0.6869E+01
     -7.878  0.3067E+01  0.7258E+01
     -7.753  0.2941E+01  0.7633E+01
     -7.627  0.2796E+01  0.7992E+01
     -7.502  0.2857E+01  0.8354E+01
     -7.377  0.3297E+01  0.8742E+01
     -7.252  0.3316E+01  0.9153E+01
     -7.126  0.3332E+01  0.9567E+01
     -7.001  0.3477E+01  0.9993E+01
     -6.876  0.3581E+01  0.1043E+02
     -6.751  0.3817E+01  0.1090E+02
     -6.625  0.3806E+01  0.1138E+02
     -6.500  0.3387E+01  0.1186E+02
     -6.375  0.3543E+01  0.1229E+02
     -6.250  0.4077E+01  0.1277E+02
     -6.124  0.4238E+01  0.1330E+02
     -5.999  0.4482E+01  0.1383E+02
     -5.874  0.3979E+01  0.1437E+02
     -5.748  0.3633E+01  0.1485E+02
     -5.623  0.4800E+01  0.1538E+02
     -5.498  0.4950E+01  0.1601E+02
     -5.373  0.4460E+01  0.1660E+02
     -5.247  0.4063E+01  0.1713E+02
     -5.122  0.4082E+01  0.1763E+02
     -4.997  0.4158E+01  0.1815E+02
     -4.872  0.4373E+01  0.1868E+02
     -4.746  0.4242E+01  0.1922E+02
     -4.621  0.3656E+01  0.1973E+02
     -4.496  0.2351E+01  0.2008E+02
     -4.371  0.3746E+01  0.2047E+02
     -4.245  0.3952E+01  0.2094E+02
     -4.120  0.4583E+01  0.2148E+02
     -3.995  0.4833E+01  0.2208E+02
     -3.870  0.5098E+01  0.2269E+02
     -3.744  0.5248E+01  0.2332E+02
     -3.619  0.5674E+01  0.2403E+02
     -3.494  0.4934E+01  0.2467E+02
     -3.369  0.4587E+01  0.2527E+02
     -3.243  0.4771E+01  0.2585E+02
     -3.118  0.5187E+01  0.2647E+02
     -2.993  0.5472E+01  0.2714E+02
     -2.868  0.5964E+01  0.2786E+02
     -2.742  0.4379E+01  0.2852E+02
     -2.617  0.3647E+01  0.2901E+02
     -2.492  0.5053E+01  0.2955E+02
     -2.366  0.4990E+01  0.3020E+02
     -2.241  0.4946E+01  0.3082E+02
     -2.116  0.4849E+01  0.3143E+02
     -1.991  0.4513E+01  0.3202E+02
     -1.865  0.4550E+01  0.3258E+02
     -1.740  0.4920E+01  0.3317E+02
     -1.615  0.6161E+01  0.3388E+02
     -1.490  0.5765E+01  0.3461E+02
     -1.364  0.6040E+01  0.3536E+02
     -1.239  0.6134E+01  0.3612E+02
     -1.114  0.5804E+01  0.3686E+02
     -0.989  0.5718E+01  0.3758E+02
     -0.863  0.5391E+01  0.3828E+02
     -0.738  0.5361E+01  0.3894E+02
     -0.613  0.5685E+01  0.3963E+02
     -0.488  0.5110E+01  0.4032E+02
     -0.362  0.4550E+01  0.4092E+02
     -0.237  0.4355E+01  0.4147E+02
     -0.112  0.4951E+01  0.4205E+02
      0.013  0.5237E+01  0.4271E+02
      0.139  0.6063E+01  0.4342E+02
      0.264  0.7252E+01  0.4422E+02
      0.389  0.6405E+01  0.4510E+02
      0.514  0.6228E+01  0.4589E+02
      0.640  0.6142E+01  0.4665E+02
      0.765  0.6251E+01  0.4744E+02
      0.890  0.5745E+01  0.4819E+02
      1.016  0.5908E+01  0.4891E+02
      1.141  0.6655E+01  0.4969E+02
      1.266  0.7228E+01  0.5058E+02
      1.391  0.7285E+01  0.5148E+02
      1.517  0.6766E+01  0.5235E+02
      1.642  0.5819E+01  0.5315E+02
      1.767  0.5595E+01  0.5385E+02
      1.892  0.5906E+01  0.5458E+02
      2.018  0.6252E+01  0.5531E+02
      2.143  0.7877E+01  0.5625E+02
      2.268  0.7599E+01  0.5726E+02
      2.393  0.8566E+01  0.5830E+02
      2.519  0.6467E+01  0.5926E+02
      2.644  0.4924E+01  0.5997E+02
      2.769  0.6651E+01  0.6061E+02
      2.894  0.1462E+02  0.6204E+02
      3.020  0.8604E+01  0.6347E+02
      3.145  0.6453E+01  0.6441E+02
      3.270  0.6522E+01  0.6522E+02
      3.395  0.8362E+01  0.6615E+02
      3.521  0.9574E+01  0.6727E+02
      3.646  0.9180E+01  0.6852E+02
      3.771  0.9643E+01  0.6970E+02
      3.896  0.8397E+01  0.7081E+02
      4.022  0.9570E+01  0.7192E+02
      4.147  0.8628E+01  0.7306E+02
      4.272  0.8245E+01  0.7414E+02
      4.397  0.8775E+01  0.7521E+02
      4.523  0.1136E+02  0.7650E+02
      4.648  0.8770E+01  0.7764E+02
      4.773  0.6560E+01  0.7854E+02
      4.899  0.7211E+01  0.7939E+02
      5.024  0.9575E+01  0.8060E+02
      5.149  0.1090E+02  0.8190E+02
      5.274  0.9526E+01  0.8325E+02
      5.400  0.9861E+01  0.8448E+02
      5.525  0.9164E+01  0.8562E+02
      5.650  0.1118E+02  0.8695E+02
      5.775  0.7965E+01  0.8802E+02
      5.901  0.6996E+01  0.8895E+02
      6.026  0.7528E+01  0.8982E+02
      6.151  0.9112E+01  0.9095E+02
      6.276  0.7836E+01  0.9198E+02
      6.402  0.8639E+01  0.9303E+02
      6.527  0.7974E+01  0.9403E+02
      6.652  0.8480E+01  0.9508E+02
      6.777  0.8230E+01  0.9612E+02
      6.903  0.8636E+01  0.9718E+02
      7.028  0.7697E+01  0.9821E+02
      7.153  0.7249E+01  0.9917E+02
      7.278  0.6540E+01  0.1000E+03
      7.404  0.6737E+01  0.1009E+03
      7.529  0.6176E+01  0.1017E+03
      7.654  0.6228E+01  0.1024E+03
      7.779  0.5859E+01  0.1032E+03
      7.905  0.5403E+01  0.1039E+03
      8.030  0.5600E+01  0.1046E+03
      8.155  0.6346E+01  0.1053E+03
      8.281  0.6121E+01  0.1061E+03
      8.406  0.5350E+01  0.1068E+03
      8.531  0.5098E+01  0.1075E+03
      8.656  0.5025E+01  0.1081E+03
      8.782  0.5083E+01  0.1087E+03
      8.907  0.5333E+01  0.1094E+03
      9.032  0.3678E+01  0.1100E+03
      9.157  0.3552E+01  0.1104E+03
      9.283  0.2747E+01  0.1108E+03
      9.408  0.2072E+01  0.1111E+03
      9.533  0.1797E+01  0.1113E+03
      9.658  0.2117E+01  0.1116E+03
      9.784  0.2509E+01  0.1119E+03
      9.909  0.2848E+01  0.1122E+03
     10.034  0.3250E+01  0.1126E+03
     10.159  0.3384E+01  0.1130E+03
     10.285  0.3205E+01  0.1134E+03
     10.410  0.3161E+01  0.1138E+03
     10.535  0.3269E+01  0.1142E+03
     10.660  0.3565E+01  0.1146E+03
     10.786  0.4035E+01  0.1151E+03
     10.911  0.4223E+01  0.1156E+03
     11.036  0.3924E+01  0.1161E+03
     11.161  0.3856E+01  0.1166E+03
     11.287  0.4006E+01  0.1171E+03
     11.412  0.4283E+01  0.1176E+03
     11.537  0.4633E+01  0.1182E+03
     11.663  0.4649E+01  0.1188E+03
     11.788  0.4805E+01  0.1193E+03
     11.913  0.4568E+01  0.1199E+03
     12.038  0.4529E+01  0.1205E+03
     12.164  0.4683E+01  0.1211E+03
     12.289  0.4908E+01  0.1217E+03
     12.414  0.5008E+01  0.1223E+03
     12.539  0.4915E+01  0.1229E+03
     12.665  0.4689E+01  0.1235E+03
     12.790  0.4395E+01  0.1241E+03
     12.915  0.4167E+01  0.1246E+03
     13.040  0.4451E+01  0.1252E+03
     13.166  0.4687E+01  0.1258E+03
     13.291  0.4490E+01  0.1263E+03
     13.416  0.4067E+01  0.1269E+03
     13.541  0.4252E+01  0.1273E+03
     13.667  0.4311E+01  0.1279E+03
     13.792  0.4459E+01  0.1284E+03
     13.917  0.6449E+01  0.1291E+03
     14.042  0.6417E+01  0.1299E+03
     14.168  0.8694E+01  0.1308E+03
     14.293  0.6860E+01  0.1318E+03
     14.418  0.6447E+01  0.1326E+03
     14.543  0.6560E+01  0.1335E+03
     14.669  0.5962E+01  0.1342E+03
     14.794  0.8017E+01  0.1351E+03
     14.919  0.8358E+01  0.1361E+03
     15.045  0.8526E+01  0.1372E+03
     15.170  0.6038E+01  0.1381E+03
     15.295  0.5651E+01  0.1388E+03
     15.420  0.5575E+01  0.1395E+03
     15.546  0.7115E+01  0.1403E+03
     15.671  0.6124E+01  0.1413E+03
     15.796  0.7276E+01  0.1421E+03
     15.921  0.8979E+01  0.1431E+03
     16.047  0.7640E+01  0.1442E+03
     16.172  0.6427E+01  0.1450E+03
     16.297  0.6754E+01  0.1458E+03
     16.422  0.5531E+01  0.1466E+03
     16.548  0.4422E+01  0.1472E+03
     16.673  0.4647E+01  0.1478E+03
     16.798  0.5137E+01  0.1484E+03
     16.923  0.5770E+01  0.1491E+03
     17.049  0.5605E+01  0.1498E+03
     17.174  0.4620E+01  0.1505E+03
     17.299  0.4272E+01  0.1510E+03
     17.424  0.4171E+01  0.1516E+03
     17.550  0.4411E+01  0.1521E+03
     17.675  0.5177E+01  0.1527E+03
     17.800  0.4681E+01  0.1533E+03
     17.925  0.4446E+01  0.1539E+03
     18.051  0.4285E+01  0.1544E+03
     18.176  0.3785E+01  0.1550E+03
     18.301  0.3169E+01  0.1553E+03
     18.427  0.3918E+01  0.1558E+03
     18.552  0.4552E+01  0.1563E+03
     18.677  0.4503E+01  0.1569E+03
     18.802  0.4269E+01  0.1575E+03
     18.928  0.3594E+01  0.1580E+03
     19.053  0.3480E+01  0.1584E+03
     19.178  0.3815E+01  0.1588E+03
     19.303  0.2749E+01  0.1592E+03
     19.429  0.2802E+01  0.1595E+03
     19.554  0.3739E+01  0.1599E+03
     19.679  0.3679E+01  0.1604E+03
     19.804  0.4572E+01  0.1609E+03
     19.930  0.4009E+01  0.1615E+03
     20.055  0.4280E+01  0.1620E+03
     20.180  0.4483E+01  0.1625E+03
     20.305  0.4969E+01  0.1631E+03
     20.431  0.5709E+01  0.1638E+03
     20.556  0.5312E+01  0.1645E+03
     20.681  0.4819E+01  0.1651E+03
     20.806  0.4053E+01  0.1657E+03
     20.932  0.3524E+01  0.1661E+03
     21.057  0.3115E+01  0.1666E+03
     21.182  0.2724E+01  0.1669E+03
     21.307  0.2362E+01  0.1672E+03
     21.433  0.2040E+01  0.1675E+03
     21.558  0.1715E+01  0.1677E+03
     21.683  0.1005E+01  0.1679E+03
     21.809  0.1711E+00  0.1680E+03
     21.934  0.2087E-01  0.1680E+03
     22.059  0.1351E-04  0.1680E+03
     22.184  0.0000E+00  0.1680E+03
     22.310  0.0000E+00  0.1680E+03
     22.435  0.0000E+00  0.1680E+03
     22.560  0.0000E+00  0.1680E+03
     22.685  0.0000E+00  0.1680E+03
     22.811  0.0000E+00  0.1680E+03
     22.936  0.0000E+00  0.1680E+03
     23.061  0.0000E+00  0.1680E+03
     23.186  0.0000E+00  0.1680E+03
     23.312  0.0000E+00  0.1680E+03
     23.437  0.0000E+00  0.1680E+03
     23.562  0.0000E+00  0.1680E+03
     23.687  0.0000E+00  0.1680E+03
     23.813  0.0000E+00  0.1680E+03
     23.938  0.0000E+00  0.1680E+03
     24.063  0.0000E+00  0.1680E+03
