   32   32    1    1
  0.4874656E+01  0.4934311E-09  0.4934311E-09  0.7398317E-09  0.5000000E-15
  1.000000000000000E-004
  CAR 
 graphite                                
    128    163     84
 
  0.0000000E+00  0.0000000E+00  0.0000000E+00  0.3086420E-02
    1      -11.514556
    2       -9.311015
    3       -9.304026
    4       -5.825392
    5       -5.824099
    6       -5.823371
    7       -4.664042
    8       -4.663069
    9       -4.661844
   10       -3.843573
   11       -3.798900
   12       -3.787157
   13       -3.786925
   14       -3.786280
   15       -3.786059
   16       -3.776501
   17       -2.567817
   18       -2.566611
   19       -2.562014
   20       -2.561328
   21       -2.557759
   22       -2.557133
   23       -1.406165
   24        1.092979
   25        1.096799
   26        1.097249
   27        1.128677
   28        1.129320
   29        1.130549
   30        3.440183
   31        3.442714
   32        3.443565
   33        4.139236
   34        4.140669
   35        4.141217
   36        4.968408
   37        4.971860
   38        4.974423
   39        4.975050
   40        4.978056
   41        4.981007
   42        6.980800
   43        6.984133
   44        6.985991
   45        7.603014
   46        7.607655
   47        7.636287
   48        7.648202
   49        8.132874
   50        8.135993
   51        8.136822
   52        8.469100
   53        8.474281
   54        8.479883
   55        8.486042
   56        9.252931
   57        9.261184
   58       11.767748
   59       11.786041
   60       11.786567
   61       11.788860
   62       11.789194
   63       11.806448
   64       13.459772
   65       13.476149
   66       13.477513
   67       13.478335
   68       13.479491
   69       13.496270
   70       15.088647
   71       15.094560
   72       15.098556
   73       15.369346
   74       16.289942
   75       16.291549
   76       16.295420
   77       19.000958
   78       19.013552
   79       19.386760
   80       19.396557
   81       19.400242
   82       19.409949
   83       19.613767
   84       20.003656
 
  0.1111111E+00  0.6938894E-17  0.0000000E+00  0.6172840E-02
    1      -11.435860
    2       -9.233512
    3       -9.226523
    4       -6.644540
    5       -6.064414
    6       -6.062349
    7       -4.559472
    8       -4.552434
    9       -4.287557
   10       -4.285340
   11       -4.011296
   12       -4.004235
   13       -4.002785
   14       -3.997897
   15       -3.780743
   16       -3.720164
   17       -2.219076
   18       -2.216397
   19       -2.212657
   20       -2.209937
   21       -1.680392
   22       -1.673797
   23       -1.316415
   24        0.130104
   25        0.636171
   26        0.638568
   27        1.648048
   28        1.650872
   29        2.184285
   30        3.180032
   31        3.182641
   32        3.521284
   33        3.669581
   34        4.063044
   35        4.064666
   36        4.686813
   37        4.692116
   38        4.694723
   39        4.696589
   40        5.046178
   41        5.052543
   42        6.818424
   43        6.821997
   44        7.049883
   45        7.149249
   46        7.346952
   47        7.626637
   48        7.637454
   49        8.221113
   50        8.230151
   51        8.309349
   52        8.317016
   53        8.361231
   54        8.364599
   55        8.742353
   56        9.114392
   57        9.252145
   58       11.425932
   59       11.439269
   60       11.720907
   61       11.734427
   62       11.736843
   63       11.747649
   64       13.695878
   65       13.706874
   66       13.709549
   67       13.721788
   68       13.817034
   69       13.828694
   70       15.165158
   71       15.380780
   72       15.530164
   73       15.537453
   74       15.950513
   75       15.954534
   76       16.284785
   77       18.841413
   78       18.874593
   79       18.883233
   80       19.227569
   81       19.327306
   82       19.714745
   83       19.726043
   84       20.177131
 
  0.2222222E+00  0.0000000E+00  0.0000000E+00  0.6172840E-02
    1      -11.200029
    2       -9.001498
    3       -8.994511
    4       -7.733282
    5       -6.428761
    6       -6.426472
    7       -5.610723
    8       -5.603743
    9       -4.353259
   10       -4.347517
   11       -4.345267
   12       -4.340955
   13       -3.592550
   14       -3.516967
   15       -3.514280
   16       -2.295929
   17       -1.491809
   18       -1.489367
   19       -1.485447
   20       -1.482430
   21       -1.047936
   22       -0.717294
   23       -0.283954
   24       -0.277319
   25        0.248977
   26        0.251403
   27        1.922484
   28        1.925628
   29        2.712200
   30        2.811940
   31        2.814215
   32        3.323746
   33        3.754939
   34        3.890264
   35        3.892618
   36        3.953322
   37        3.958492
   38        3.960793
   39        3.963377
   40        5.265688
   41        5.272133
   42        6.006945
   43        6.366028
   44        6.369403
   45        6.737014
   46        7.068333
   47        7.076266
   48        7.241099
   49        7.871329
   50        7.880142
   51        8.089062
   52        8.099798
   53        8.638787
   54        8.974273
   55        8.978309
   56        9.120486
   57       10.092106
   58       10.746211
   59       10.758525
   60       11.622967
   61       11.636716
   62       11.638876
   63       11.650089
   64       14.206349
   65       14.217848
   66       14.221595
   67       14.234053
   68       14.480002
   69       14.490104
   70       15.073073
   71       15.076974
   72       15.380528
   73       15.397781
   74       16.267776
   75       16.725770
   76       16.732733
   77       18.140420
   78       18.147993
   79       18.283412
   80       18.527260
   81       19.941695
   82       20.536207
   83       20.545396
   84       20.634920
 
  0.3333333E+00  0.5551115E-16  0.0000000E+00  0.6172840E-02
    1      -10.808012
    2       -8.717142
    3       -8.616080
    4       -8.609101
    5       -6.702709
    6       -6.700363
    7       -6.568325
    8       -6.561367
    9       -4.614694
   10       -4.609566
   11       -4.606939
   12       -4.602868
   13       -3.280367
   14       -2.588993
   15       -2.585935
   16       -1.698981
   17       -0.624032
   18       -0.620686
   19       -0.617189
   20       -0.614217
   21       -0.601049
   22       -0.494530
   23       -0.083866
   24       -0.080770
   25        1.217212
   26        1.219725
   27        1.232342
   28        1.239119
   29        1.704690
   30        2.994660
   31        3.000009
   32        3.002082
   33        3.005206
   34        3.310787
   35        3.313031
   36        3.721467
   37        3.724079
   38        4.138040
   39        4.495631
   40        4.505230
   41        5.622061
   42        5.628558
   43        5.710565
   44        5.713913
   45        5.841564
   46        5.848839
   47        6.009916
   48        7.286834
   49        7.294806
   50        7.546394
   51        7.841744
   52        8.372964
   53        8.384583
   54        8.807075
   55        9.837794
   56        9.842135
   57       10.035047
   58       10.047056
   59       11.539352
   60       11.553364
   61       11.555344
   62       11.566629
   63       11.715106
   64       13.944723
   65       13.948286
   66       14.708386
   67       14.720527
   68       14.724874
   69       14.737881
   70       15.194925
   71       15.204086
   72       15.328616
   73       15.737528
   74       16.243971
   75       17.389849
   76       17.396907
   77       17.409406
   78       17.557336
   79       18.438568
   80       18.445167
   81       21.043326
   82       21.051879
   83       21.140590
   84       21.737199
 
  0.4444444E+00  0.0000000E+00  0.0000000E+00  0.6172840E-02
    1      -10.261364
    2       -9.562721
    3       -8.079479
    4       -8.072492
    5       -7.394920
    6       -7.387950
    7       -6.844375
    8       -6.842080
    9       -4.751024
   10       -4.746137
   11       -4.743361
   12       -4.739386
   13       -2.847351
   14       -2.301620
   15       -1.621921
   16       -1.618833
   17       -0.561004
   18       -0.555770
   19        0.011938
   20        0.198584
   21        0.200525
   22        0.204159
   23        0.208345
   24        0.549028
   25        0.553481
   26        0.788574
   27        1.119306
   28        2.100657
   29        2.105756
   30        2.108298
   31        2.111310
   32        2.802823
   33        2.810004
   34        2.825465
   35        3.622858
   36        3.625613
   37        4.044101
   38        4.046408
   39        4.368712
   40        4.375698
   41        4.658431
   42        4.970218
   43        4.973382
   44        5.294566
   45        5.689082
   46        6.099713
   47        6.106655
   48        6.670545
   49        6.677994
   50        6.825981
   51        7.941114
   52        8.383692
   53        8.816832
   54        8.828640
   55        9.379371
   56        9.391223
   57       10.711396
   58       10.715955
   59       11.493285
   60       11.507100
   61       11.509005
   62       11.520615
   63       12.914180
   64       12.916403
   65       13.379562
   66       14.766999
   67       15.005348
   68       15.017850
   69       15.022422
   70       15.036024
   71       15.916762
   72       15.925308
   73       16.230741
   74       16.252658
   75       16.494788
   76       16.647897
   77       16.655746
   78       16.848026
   79       20.467889
   80       20.474210
   81       21.540651
   82       21.547936
   83       21.828074
   84       21.833771
 
 -0.8470329E-21  0.1111111E+00  0.0000000E+00  0.6172840E-02
    1      -11.435858
    2       -9.233509
    3       -9.226521
    4       -6.644489
    5       -6.065285
    6       -6.061462
    7       -4.559521
    8       -4.552483
    9       -4.288688
   10       -4.284781
   11       -4.011286
   12       -4.004250
   13       -4.003377
   14       -3.996797
   15       -3.780653
   16       -3.719818
   17       -2.220960
   18       -2.216458
   19       -2.213724
   20       -2.209380
   21       -1.679100
   22       -1.672992
   23       -1.316420
   24        0.131069
   25        0.634650
   26        0.639395
   27        1.645674
   28        1.651331
   29        2.185504
   30        3.181994
   31        3.182776
   32        3.519669
   33        3.669236
   34        4.062706
   35        4.065434
   36        4.688618
   37        4.691826
   38        4.695074
   39        4.698285
   40        5.045049
   41        5.049961
   42        6.820316
   43        6.822316
   44        7.047558
   45        7.152606
   46        7.343574
   47        7.627071
   48        7.637846
   49        8.226292
   50        8.231549
   51        8.307449
   52        8.311680
   53        8.360756
   54        8.365034
   55        8.741931
   56        9.118991
   57        9.247413
   58       11.425190
   59       11.438065
   60       11.721992
   61       11.734254
   62       11.737003
   63       11.749297
   64       13.694120
   65       13.706627
   66       13.708865
   67       13.720643
   68       13.818740
   69       13.830043
   70       15.164209
   71       15.380707
   72       15.532543
   73       15.536065
   74       15.949354
   75       15.954572
   76       16.286273
   77       18.837394
   78       18.872821
   79       18.878102
   80       19.234013
   81       19.327351
   82       19.724351
   83       19.726807
   84       20.176284
 
  0.1111111E+00  0.1111111E+00  0.0000000E+00  0.6172840E-02
    1      -11.278566
    2       -9.078753
    3       -9.071765
    4       -7.143741
    5       -7.139959
    6       -5.618878
    7       -5.042110
    8       -5.034069
    9       -5.033635
   10       -5.027326
   11       -4.442872
   12       -3.655155
   13       -3.593365
   14       -3.586222
   15       -2.972842
   16       -2.968382
   17       -2.358688
   18       -2.352166
   19       -1.137543
   20       -0.962238
   21       -0.954366
   22       -0.953424
   23       -0.948643
   24       -0.281677
   25       -0.277199
   26        1.033452
   27        1.283718
   28        2.503016
   29        2.677553
   30        2.681770
   31        3.270596
   32        3.273653
   33        3.405546
   34        3.408456
   35        3.879366
   36        3.885525
   37        4.351484
   38        4.837704
   39        4.839282
   40        4.841696
   41        4.847769
   42        6.303775
   43        6.436725
   44        6.820013
   45        6.947430
   46        6.951714
   47        7.337532
   48        7.345850
   49        7.963468
   50        7.972053
   51        8.079878
   52        8.088555
   53        8.386035
   54        8.880796
   55        9.112159
   56        9.417674
   57        9.420801
   58       11.149988
   59       11.162569
   60       11.163393
   61       11.174786
   62       11.968606
   63       11.983388
   64       13.874364
   65       13.888590
   66       14.258559
   67       14.271165
   68       14.271814
   69       14.280801
   70       15.048020
   71       15.396618
   72       15.671211
   73       15.677966
   74       15.959010
   75       15.961168
   76       16.661849
   77       18.396707
   78       18.405172
   79       18.750996
   80       18.783640
   81       19.242338
   82       20.182618
   83       20.194551
   84       20.528838
 
  0.2222222E+00  0.1111111E+00  0.0000000E+00  0.6172840E-02
    1      -10.964649
    2       -8.770041
    3       -8.763053
    4       -8.184614
    5       -7.508981
    6       -6.049548
    7       -6.042571
    8       -5.644449
    9       -5.392868
   10       -5.385917
   11       -3.862785
   12       -3.604705
   13       -3.597635
   14       -3.404887
   15       -2.110364
   16       -1.827600
   17       -1.821019
   18       -1.635101
   19       -0.910363
   20       -0.780643
   21       -0.565004
   22       -0.121368
   23       -0.115196
   24        0.438708
   25        0.501331
   26        0.507793
   27        1.336329
   28        2.263440
   29        2.340954
   30        2.361731
   31        2.828289
   32        2.834536
   33        2.950025
   34        3.433902
   35        3.711908
   36        4.121566
   37        4.186639
   38        4.191745
   39        4.477783
   40        5.132247
   41        5.138635
   42        5.206517
   43        5.583962
   44        6.044651
   45        6.397876
   46        6.406505
   47        6.557291
   48        7.200174
   49        7.384299
   50        7.393973
   51        8.262949
   52        8.274366
   53        8.315558
   54        8.821491
   55        8.851480
   56       10.296054
   57       10.446158
   58       10.458298
   59       10.933673
   60       10.963665
   61       10.975853
   62       12.106166
   63       12.120481
   64       13.838409
   65       14.158696
   66       14.173133
   67       14.885494
   68       14.896823
   69       14.973733
   70       14.983390
   71       15.153091
   72       15.392074
   73       15.957948
   74       15.974488
   75       16.934419
   76       17.792653
   77       17.798758
   78       17.809078
   79       18.270475
   80       18.309498
   81       19.737960
   82       20.915472
   83       20.924882
   84       20.944596
 
  0.3333333E+00  0.1111111E+00  0.0000000E+00  0.6172840E-02
    1      -10.495266
    2       -9.100186
    3       -8.309048
    4       -8.302062
    5       -7.732552
    6       -6.942615
    7       -6.935646
    8       -5.788301
    9       -5.609877
   10       -5.602929
   11       -3.734860
   12       -3.727840
   13       -3.032254
   14       -2.928233
   15       -1.951277
   16       -1.284566
   17       -0.990047
   18       -0.983397
   19       -0.650690
   20       -0.532097
   21       -0.250156
   22        0.318582
   23        0.745714
   24        0.751721
   25        1.062911
   26        1.294363
   27        1.489863
   28        1.749140
   29        1.755301
   30        2.038454
   31        2.045029
   32        2.744125
   33        3.005021
   34        3.346847
   35        3.351988
   36        3.656840
   37        3.965293
   38        4.406878
   39        4.498244
   40        4.760082
   41        5.085039
   42        5.092822
   43        5.228462
   44        5.273626
   45        5.559155
   46        5.565666
   47        5.965413
   48        6.728951
   49        6.737400
   50        7.433826
   51        7.553882
   52        8.426549
   53        8.638901
   54        8.650642
   55        9.626218
   56        9.757294
   57        9.769218
   58       10.846905
   59       10.859205
   60       11.258484
   61       12.166799
   62       12.180272
   63       12.596949
   64       12.601820
   65       14.153210
   66       14.391752
   67       14.405701
   68       15.186454
   69       15.409987
   70       15.421830
   71       15.697612
   72       15.706666
   73       15.997431
   74       16.378101
   75       16.673008
   76       17.120817
   77       17.129336
   78       17.576292
   79       18.704626
   80       20.278080
   81       20.849125
   82       21.408661
   83       21.416462
   84       21.590518
 
  0.4444444E+00  0.1111111E+00  0.0000000E+00  0.6172840E-02
    1       -9.874517
    2       -9.870674
    3       -7.807779
    4       -7.702372
    5       -7.694919
    6       -7.694451
    7       -7.688011
    8       -5.846256
    9       -5.682768
   10       -5.675822
   11       -3.788713
   12       -3.781702
   13       -2.543875
   14       -2.539817
   15       -2.155632
   16       -1.340701
   17       -1.029369
   18       -0.423315
   19       -0.417516
   20       -0.376288
   21        0.444330
   22        0.448140
   23        0.892989
   24        0.971697
   25        1.105273
   26        1.110170
   27        1.269577
   28        1.276106
   29        1.984181
   30        1.988075
   31        2.673580
   32        2.817992
   33        2.823789
   34        3.587825
   35        3.595531
   36        3.599323
   37        3.599707
   38        3.658224
   39        4.072922
   40        4.494634
   41        4.568485
   42        4.573380
   43        4.968945
   44        5.438048
   45        6.099826
   46        6.103314
   47        6.103667
   48        6.115439
   49        6.367800
   50        6.372430
   51        7.976299
   52        7.982960
   53        9.138673
   54        9.151124
   55        9.151615
   56        9.162568
   57       10.200461
   58       10.807728
   59       10.820074
   60       11.866149
   61       11.873352
   62       12.183246
   63       12.196194
   64       13.519942
   65       14.183464
   66       14.188135
   67       14.479436
   68       14.492947
   69       15.613012
   70       15.625234
   71       16.097339
   72       16.102029
   73       16.409287
   74       16.420383
   75       16.421959
   76       16.428003
   77       16.923249
   78       16.927052
   79       20.662866
   80       20.921445
   81       21.711237
   82       21.715320
   83       21.721347
   84       21.729689
 
 -0.4444444E+00  0.1111111E+00  0.0000000E+00  0.6172840E-02
    1      -10.495347
    2       -9.100077
    3       -8.309131
    4       -8.302146
    5       -7.732712
    6       -6.942497
    7       -6.935526
    8       -5.788060
    9       -5.610055
   10       -5.603109
   11       -3.734554
   12       -3.727522
   13       -3.032283
   14       -2.927004
   15       -1.951165
   16       -1.286783
   17       -0.988985
   18       -0.983236
   19       -0.649222
   20       -0.533881
   21       -0.250248
   22        0.318366
   23        0.744356
   24        0.751250
   25        1.063477
   26        1.294493
   27        1.490569
   28        1.748714
   29        1.753891
   30        2.037963
   31        2.044778
   32        2.743991
   33        3.005182
   34        3.347219
   35        3.353785
   36        3.657095
   37        3.964768
   38        4.406683
   39        4.498318
   40        4.759588
   41        5.086242
   42        5.092647
   43        5.228869
   44        5.273696
   45        5.559427
   46        5.566495
   47        5.965989
   48        6.729110
   49        6.735507
   50        7.433904
   51        7.553913
   52        8.426009
   53        8.638991
   54        8.650714
   55        9.628973
   56        9.757245
   57        9.769239
   58       10.846538
   59       10.858959
   60       11.255638
   61       12.167681
   62       12.180725
   63       12.595833
   64       12.599913
   65       14.156378
   66       14.391187
   67       14.404350
   68       15.186653
   69       15.410732
   70       15.422828
   71       15.697219
   72       15.706527
   73       15.998560
   74       16.377684
   75       16.671885
   76       17.121364
   77       17.129191
   78       17.576641
   79       18.708137
   80       20.273822
   81       20.851982
   82       21.408037
   83       21.415608
   84       21.592058
 
 -0.3333333E+00  0.1111111E+00  0.0000000E+00  0.6172840E-02
    1      -10.964707
    2       -8.770099
    3       -8.763111
    4       -8.184463
    5       -7.509331
    6       -6.049406
    7       -6.042427
    8       -5.643932
    9       -5.393230
   10       -5.386282
   11       -3.861657
   12       -3.604017
   13       -3.596944
   14       -3.404965
   15       -2.112065
   16       -1.826687
   17       -1.821056
   18       -1.635250
   19       -0.910281
   20       -0.780711
   21       -0.564252
   22       -0.122583
   23       -0.115756
   24        0.436861
   25        0.500851
   26        0.507505
   27        1.337508
   28        2.263582
   29        2.340637
   30        2.362336
   31        2.827618
   32        2.832973
   33        2.949771
   34        3.432621
   35        3.712198
   36        4.122789
   37        4.187308
   38        4.193635
   39        4.477921
   40        5.132498
   41        5.139042
   42        5.206645
   43        5.583325
   44        6.044620
   45        6.399886
   46        6.405644
   47        6.558069
   48        7.200411
   49        7.385305
   50        7.390707
   51        8.263195
   52        8.274531
   53        8.316240
   54        8.820623
   55        8.854388
   56       10.292798
   57       10.446231
   58       10.458464
   59       10.933219
   60       10.963271
   61       10.975387
   62       12.107756
   63       12.121382
   64       13.835219
   65       14.157487
   66       14.170674
   67       14.887006
   68       14.898540
   69       14.973310
   70       14.983324
   71       15.156703
   72       15.391939
   73       15.957649
   74       15.975361
   75       16.937971
   76       17.792484
   77       17.799179
   78       17.808134
   79       18.269486
   80       18.306050
   81       19.741808
   82       20.923908
   83       20.926845
   84       20.946461
 
 -0.2222222E+00  0.1111111E+00  0.0000000E+00  0.6172840E-02
    1      -11.278601
    2       -9.078787
    3       -9.071799
    4       -7.142541
    5       -7.141521
    6       -5.618053
    7       -5.041454
    8       -5.034484
    9       -5.033706
   10       -5.028253
   11       -4.442060
   12       -3.655186
   13       -3.592210
   14       -3.585135
   15       -2.971883
   16       -2.970856
   17       -2.357924
   18       -2.352778
   19       -1.137588
   20       -0.961222
   21       -0.955842
   22       -0.953924
   23       -0.949737
   24       -0.279765
   25       -0.278474
   26        1.032211
   27        1.284625
   28        2.502108
   29        2.677382
   30        2.680226
   31        3.271401
   32        3.272642
   33        3.407487
   34        3.409255
   35        3.878655
   36        3.883884
   37        4.351705
   38        4.837972
   39        4.840359
   40        4.844353
   41        4.846694
   42        6.303096
   43        6.436447
   44        6.820179
   45        6.949165
   46        6.950805
   47        7.339048
   48        7.345317
   49        7.964986
   50        7.967371
   51        8.080984
   52        8.089289
   53        8.389065
   54        8.882658
   55        9.110196
   56        9.415828
   57        9.419353
   58       11.149736
   59       11.162168
   60       11.163185
   61       11.174260
   62       11.970525
   63       11.984588
   64       13.872452
   65       13.885567
   66       14.260179
   67       14.271480
   68       14.271682
   69       14.282849
   70       15.044735
   71       15.396474
   72       15.674886
   73       15.677677
   74       15.960047
   75       15.964295
   76       16.657904
   77       18.397365
   78       18.403705
   79       18.747661
   80       18.783217
   81       19.249461
   82       20.192110
   83       20.194526
   84       20.527087
 
 -0.1111111E+00  0.1111111E+00  0.0000000E+00  0.6172840E-02
    1      -11.435870
    2       -9.233521
    3       -9.226532
    4       -6.645191
    5       -6.063827
    6       -6.061915
    7       -4.560260
    8       -4.553247
    9       -4.287592
   10       -4.285212
   11       -4.009978
   12       -4.004104
   13       -4.002676
   14       -3.996689
   15       -3.780780
   16       -3.720717
   17       -2.219916
   18       -2.216694
   19       -2.212910
   20       -2.210818
   21       -1.679942
   22       -1.673256
   23       -1.316431
   24        0.131140
   25        0.635993
   26        0.638556
   27        1.646681
   28        1.649457
   29        2.185374
   30        3.180799
   31        3.183094
   32        3.521104
   33        3.668876
   34        4.063361
   35        4.065153
   36        4.689021
   37        4.690667
   38        4.693087
   39        4.698814
   40        5.045617
   41        5.051789
   42        6.819047
   43        6.822858
   44        7.048359
   45        7.152227
   46        7.343848
   47        7.627046
   48        7.637888
   49        8.225388
   50        8.233861
   51        8.303694
   52        8.314091
   53        8.363416
   54        8.365089
   55        8.738884
   56        9.120854
   57        9.245575
   58       11.423937
   59       11.437202
   60       11.723448
   61       11.734676
   62       11.737073
   63       11.750303
   64       13.692666
   65       13.705659
   66       13.708477
   67       13.718095
   68       13.820791
   69       13.832791
   70       15.167938
   71       15.380649
   72       15.529158
   73       15.535531
   74       15.949545
   75       15.951259
   76       16.289699
   77       18.834514
   78       18.871238
   79       18.879092
   80       19.238086
   81       19.327202
   82       19.723058
   83       19.734123
   84       20.178299
 
 -0.3388132E-20  0.2222222E+00  0.0000000E+00  0.6172840E-02
    1      -11.200020
    2       -9.001488
    3       -8.994500
    4       -7.733198
    5       -6.429919
    6       -6.425435
    7       -5.610656
    8       -5.603676
    9       -4.353860
   10       -4.347357
   11       -4.345997
   12       -4.339759
   13       -3.592602
   14       -3.518212
   15       -3.513450
   16       -2.295815
   17       -1.494071
   18       -1.489170
   19       -1.486524
   20       -1.481552
   21       -1.047946
   22       -0.716026
   23       -0.282686
   24       -0.276478
   25        0.247785
   26        0.252200
   27        1.918862
   28        1.925272
   29        2.711966
   30        2.814021
   31        2.815908
   32        3.325232
   33        3.753266
   34        3.889533
   35        3.893846
   36        3.954368
   37        3.958590
   38        3.960997
   39        3.965489
   40        5.264509
   41        5.269401
   42        6.009792
   43        6.367310
   44        6.370209
   45        6.734025
   46        7.072044
   47        7.077564
   48        7.238779
   49        7.869896
   50        7.874271
   51        8.089959
   52        8.100592
   53        8.642935
   54        8.973405
   55        8.979305
   56        9.116013
   57       10.091462
   58       10.745870
   59       10.757979
   60       11.623720
   61       11.636472
   62       11.639029
   63       11.651551
   64       14.205032
   65       14.217672
   66       14.220761
   67       14.233216
   68       14.481002
   69       14.490910
   70       15.072077
   71       15.077546
   72       15.379531
   73       15.397416
   74       16.269346
   75       16.727530
   76       16.732117
   77       18.139271
   78       18.145842
   79       18.280464
   80       18.527574
   81       19.947499
   82       20.535911
   83       20.545381
   84       20.640988
 
  0.1111111E+00  0.2222222E+00  0.0000000E+00  0.6172840E-02
    1      -10.964642
    2       -8.770031
    3       -8.763043
    4       -8.184528
    5       -7.509085
    6       -6.049470
    7       -6.042493
    8       -5.644518
    9       -5.392936
   10       -5.385978
   11       -3.862772
   12       -3.604723
   13       -3.597643
   14       -3.404881
   15       -2.110504
   16       -1.827611
   17       -1.821150
   18       -1.635858
   19       -0.908165
   20       -0.780654
   21       -0.566222
   22       -0.122711
   23       -0.116144
   24        0.439765
   25        0.502634
   26        0.508741
   27        1.333764
   28        2.263230
   29        2.342606
   30        2.361366
   31        2.828460
   32        2.834580
   33        2.950288
   34        3.434483
   35        3.712358
   36        4.120965
   37        4.187865
   38        4.194083
   39        4.477855
   40        5.130888
   41        5.135888
   42        5.208449
   43        5.583957
   44        6.042484
   45        6.400440
   46        6.406712
   47        6.559496
   48        7.197841
   49        7.384181