 running on    6 total cores
 distrk:  each k-point on    6 cores,    1 groups
 distr:  one band on    1 cores,    6 groups
 using from now: INCAR     
 vasp.5.3.5 31Mar14 (build Nov 02 2014 15:17:37) complex                        
  
 POSCAR found :  1 types and      32 ions
 scaLAPACK will be used

 ----------------------------------------------------------------------------- 
|                                                                             |
|           W    W    AA    RRRRR   N    N  II  N    N   GGGG   !!!           |
|           W    W   A  A   R    R  NN   N  II  NN   N  G    G  !!!           |
|           W    W  A    A  R    R  N N  N  II  N N  N  G       !!!           |
|           W WW W  AAAAAA  RRRRR   N  N N  II  N  N N  G  GGG   !            |
|           WW  WW  A    A  R   R   N   NN  II  N   NN  G    G                |
|           W    W  A    A  R    R  N    N  II  N    N   GGGG   !!!           |
|                                                                             |
|      For optimal performance we recommend to set                            |
|        NCORE= 4 - approx SQRT( number of cores)                             |
|      NCORE specifies how many cores store one orbital (NPAR=cpu/NCORE).     |
|      This setting can  greatly improve the performance of VASP for DFT.     |
|      The default, NPAR=number of cores might be grossly inefficient         |
|      on modern multi-core architectures or massively parallel machines.     |
|      Do your own testing !!!!                                               |
|      Unfortunately you need to use the default for GW and RPA calculations. |
|      (for HF NCORE is supported but not extensively tested yet)             |
|                                                                             |
 ----------------------------------------------------------------------------- 


 ----------------------------------------------------------------------------- 
|                                                                             |
|  ADVICE TO THIS USER RUNNING 'VASP/VAMP'   (HEAR YOUR MASTER'S VOICE ...):  |
|                                                                             |
|      You have a (more or less) 'large supercell' and for larger cells       |
|      it might be more efficient to use real space projection operators      |
|      So try LREAL= Auto  in the INCAR   file.                               |
|      Mind: If you want to do a very accurate calculations keep the          |
|      reciprocal projection scheme          (i.e. LREAL=.FALSE.)             |
|                                                                             |
 ----------------------------------------------------------------------------- 

 LDA part: xc-table for Pade appr. of Perdew
 POSCAR, INCAR and KPOINTS ok, starting setup
 WARNING: small aliasing (wrap around) errors must be expected
 FFT: planning ...
 WAVECAR not read
 WARNING: random wavefunctions but no delay for mixing, default for NELMDL
 entering main loop
       N       E                     dE             d eps       ncg     rms          rms(c)
DAV:   1     0.468551757099E+03    0.46855E+03   -0.77762E+04 27384   0.171E+03
DAV:   2    -0.215108554023E+03   -0.68366E+03   -0.65249E+03 34416   0.307E+02
DAV:   3    -0.250397714172E+03   -0.35289E+02   -0.34416E+02 33348   0.626E+01
DAV:   4    -0.250991543178E+03   -0.59383E+00   -0.59055E+00 32928   0.846E+00
DAV:   5    -0.251005379944E+03   -0.13837E-01   -0.13828E-01 33996   0.110E+00    0.218E+01
DAV:   6    -0.241178127426E+03    0.98273E+01   -0.70406E+00 31152   0.905E+00    0.116E+01
DAV:   7    -0.237840197901E+03    0.33379E+01   -0.75703E+00 29772   0.960E+00    0.143E+00
DAV:   8    -0.237856864857E+03   -0.16667E-01   -0.32145E-01 33996   0.198E+00    0.913E-01
DAV:   9    -0.237855121496E+03    0.17434E-02   -0.43460E-02 33924   0.797E-01    0.324E-01
DAV:  10    -0.237856407367E+03   -0.12859E-02   -0.97267E-03 31920   0.312E-01    0.160E-01
DAV:  11    -0.237856304810E+03    0.10256E-03   -0.48797E-03 35772   0.144E-01    0.102E-01
DAV:  12    -0.237856291130E+03    0.13680E-04   -0.12548E-03 35880   0.759E-02    0.373E-02
DAV:  13    -0.237856302577E+03   -0.11447E-04   -0.10926E-04 33708   0.311E-02    0.216E-02
DAV:  14    -0.237856318357E+03   -0.15780E-04   -0.46328E-05 32508   0.202E-02    0.137E-02
DAV:  15    -0.237856303202E+03    0.15155E-04   -0.52613E-05 33636   0.134E-02    0.120E-02
DAV:  16    -0.237856316812E+03   -0.13610E-04   -0.34384E-05 25044   0.990E-03    0.852E-03
DAV:  17    -0.237856310242E+03    0.65701E-05   -0.80267E-06 19620   0.468E-03    0.148E-03
DAV:  18    -0.237856311300E+03   -0.10582E-05   -0.42113E-07 19260   0.187E-03    0.561E-04
DAV:  19    -0.237856310675E+03    0.62533E-06   -0.89110E-08 19440   0.814E-04
   1 F= -.24196281E+03 E0= -.24196281E+03  d E =0.000000E+00
