  32  32   0   0
  0.9254429E+01  0.4932875E-09  0.4932875E-09  0.1405931E-08  0.5000000E-15
  1.000000000000000E-004
  CAR 
 graphite                                
     15.12249476    -17.31387113  301      4.27898702      1.00000000
    -17.314  0.0000E+00  0.0000E+00
    -17.206  0.0000E+00  0.0000E+00
    -17.098  0.0000E+00  0.0000E+00
    -16.990  0.0000E+00  0.0000E+00
    -16.881  0.0000E+00  0.0000E+00
    -16.773  0.0000E+00  0.0000E+00
    -16.665  0.0000E+00  0.0000E+00
    -16.557  0.0000E+00  0.0000E+00
    -16.449  0.0000E+00  0.0000E+00
    -16.341  0.0000E+00  0.0000E+00
    -16.233  0.0000E+00  0.0000E+00
    -16.125  0.0000E+00  0.0000E+00
    -16.016  0.0000E+00  0.0000E+00
    -15.908  0.0000E+00  0.0000E+00
    -15.800  0.0000E+00  0.0000E+00
    -15.692  0.0000E+00  0.0000E+00
    -15.584  0.0000E+00  0.0000E+00
    -15.476  0.0000E+00  0.0000E+00
    -15.368  0.0000E+00  0.0000E+00
    -15.260  0.1322E+01  0.2789E-01
    -15.151  0.3056E+01  0.2739E+00
    -15.043  0.5188E+01  0.7404E+00
    -14.935  0.4939E+01  0.1265E+01
    -14.827  0.4898E+01  0.1798E+01
    -14.719  0.4971E+01  0.2333E+01
    -14.611  0.4911E+01  0.2869E+01
    -14.503  0.4913E+01  0.3397E+01
    -14.395  0.5025E+01  0.3935E+01
    -14.286  0.4992E+01  0.4476E+01
    -14.178  0.4961E+01  0.5013E+01
    -14.070  0.5743E+01  0.5591E+01
    -13.962  0.6129E+01  0.6231E+01
    -13.854  0.6478E+01  0.6931E+01
    -13.746  0.4824E+01  0.7519E+01
    -13.638  0.1819E+01  0.7776E+01
    -13.530  0.4045E+01  0.8078E+01
    -13.422  0.4542E+01  0.8566E+01
    -13.313  0.4397E+01  0.9052E+01
    -13.205  0.6928E+01  0.9840E+01
    -13.097  0.4281E+01  0.1057E+02
    -12.989  0.4369E+01  0.1103E+02
    -12.881  0.4507E+01  0.1151E+02
    -12.773  0.4615E+01  0.1201E+02
    -12.665  0.4725E+01  0.1251E+02
    -12.557  0.5380E+01  0.1306E+02
    -12.448  0.6101E+01  0.1368E+02
    -12.340  0.5365E+01  0.1429E+02
    -12.232  0.5631E+01  0.1488E+02
    -12.124  0.5110E+01  0.1546E+02
    -12.016  0.4809E+01  0.1599E+02
    -11.908  0.4909E+01  0.1652E+02
    -11.800  0.4988E+01  0.1705E+02
    -11.692  0.5047E+01  0.1760E+02
    -11.583  0.5191E+01  0.1814E+02
    -11.475  0.5582E+01  0.1873E+02
    -11.367  0.5819E+01  0.1935E+02
    -11.259  0.5695E+01  0.1998E+02
    -11.151  0.5649E+01  0.2059E+02
    -11.043  0.5764E+01  0.2120E+02
    -10.935  0.5114E+01  0.2181E+02
    -10.827  0.5084E+01  0.2233E+02
    -10.718  0.5387E+01  0.2290E+02
    -10.610  0.5369E+01  0.2348E+02
    -10.502  0.5495E+01  0.2407E+02
    -10.394  0.5713E+01  0.2468E+02
    -10.286  0.5948E+01  0.2531E+02
    -10.178  0.7985E+01  0.2604E+02
    -10.070  0.9357E+01  0.2709E+02
     -9.962  0.6135E+01  0.2792E+02
     -9.854  0.7525E+01  0.2854E+02
     -9.745  0.8497E+01  0.2931E+02
     -9.637  0.3531E+01  0.2972E+02
     -9.529  0.3162E+01  0.3008E+02
     -9.421  0.2794E+01  0.3040E+02
     -9.313  0.2426E+01  0.3068E+02
     -9.205  0.2489E+01  0.3094E+02
     -9.097  0.3055E+01  0.3127E+02
     -8.989  0.1414E+01  0.3152E+02
     -8.880  0.1737E+01  0.3167E+02
     -8.772  0.2655E+01  0.3191E+02
     -8.664  0.7665E+01  0.3241E+02
     -8.556  0.4268E+01  0.3312E+02
     -8.448  0.3965E+01  0.3355E+02
     -8.340  0.4293E+01  0.3399E+02
     -8.232  0.8477E+01  0.3469E+02
     -8.124  0.6442E+01  0.3544E+02
     -8.015  0.7544E+01  0.3619E+02
     -7.907  0.8604E+01  0.3707E+02
     -7.799  0.7777E+01  0.3801E+02
     -7.691  0.6250E+01  0.3872E+02
     -7.583  0.5993E+01  0.3938E+02
     -7.475  0.5740E+01  0.4002E+02
     -7.367  0.5512E+01  0.4063E+02
     -7.259  0.5326E+01  0.4121E+02
     -7.150  0.5145E+01  0.4178E+02
     -7.042  0.4948E+01  0.4232E+02
     -6.934  0.4847E+01  0.4285E+02
     -6.826  0.4818E+01  0.4337E+02
     -6.718  0.4786E+01  0.4389E+02
     -6.610  0.4602E+01  0.4440E+02
     -6.502  0.4407E+01  0.4489E+02
     -6.394  0.4090E+01  0.4536E+02
     -6.286  0.4025E+01  0.4577E+02
     -6.177  0.4379E+01  0.4622E+02
     -6.069  0.5005E+01  0.4673E+02
     -5.961  0.5923E+01  0.4731E+02
     -5.853  0.6677E+01  0.4799E+02
     -5.745  0.1044E+02  0.4898E+02
     -5.637  0.8219E+01  0.4999E+02
     -5.529  0.5992E+01  0.5076E+02
     -5.421  0.3766E+01  0.5128E+02
     -5.312  0.2716E+01  0.5161E+02
     -5.204  0.3218E+01  0.5191E+02
     -5.096  0.4496E+01  0.5233E+02
     -4.988  0.5794E+01  0.5289E+02
     -4.880  0.7482E+01  0.5360E+02
     -4.772  0.7810E+01  0.5446E+02
     -4.664  0.6615E+01  0.5524E+02
     -4.556  0.5592E+01  0.5589E+02
     -4.447  0.7677E+01  0.5658E+02
     -4.339  0.7167E+01  0.5738E+02
     -4.231  0.6657E+01  0.5813E+02
     -4.123  0.6148E+01  0.5882E+02
     -4.015  0.5699E+01  0.5946E+02
     -3.907  0.6588E+01  0.6011E+02
     -3.799  0.9575E+01  0.6126E+02
     -3.691  0.9651E+01  0.6235E+02
     -3.582  0.7792E+01  0.6328E+02
     -3.474  0.6616E+01  0.6405E+02
     -3.366  0.6853E+01  0.6476E+02
     -3.258  0.7668E+01  0.6555E+02
     -3.150  0.8760E+01  0.6643E+02
     -3.042  0.1077E+02  0.6747E+02
     -2.934  0.1386E+02  0.6887E+02
     -2.826  0.1227E+02  0.7040E+02
     -2.718  0.1255E+02  0.7174E+02
     -2.609  0.1305E+02  0.7319E+02
     -2.501  0.1617E+02  0.7466E+02
     -2.393  0.1165E+02  0.7619E+02
     -2.285  0.1933E+02  0.7774E+02
     -2.177  0.1195E+02  0.7939E+02
     -2.069  0.1950E+02  0.8081E+02
     -1.961  0.1719E+02  0.8294E+02
     -1.853  0.1762E+02  0.8486E+02
     -1.744  0.1434E+02  0.8667E+02
     -1.636  0.1083E+02  0.8803E+02
     -1.528  0.8974E+01  0.8909E+02
     -1.420  0.1261E+02  0.9014E+02
     -1.312  0.8610E+01  0.9109E+02
     -1.204  0.1124E+02  0.9216E+02
     -1.096  0.1276E+02  0.9352E+02
     -0.988  0.1947E+02  0.9504E+02
     -0.879  0.9336E+01  0.9629E+02
     -0.771  0.1060E+02  0.9739E+02
     -0.663  0.1064E+02  0.9856E+02
     -0.555  0.1043E+02  0.9969E+02
     -0.447  0.1050E+02  0.1009E+03
     -0.339  0.9624E+01  0.1019E+03
     -0.231  0.9640E+01  0.1030E+03
     -0.123  0.9447E+01  0.1040E+03
     -0.014  0.9348E+01  0.1051E+03
      0.094  0.9163E+01  0.1061E+03
      0.202  0.9114E+01  0.1070E+03
      0.310  0.9574E+01  0.1081E+03
      0.418  0.9437E+01  0.1091E+03
      0.526  0.9360E+01  0.1101E+03
      0.634  0.9226E+01  0.1111E+03
      0.742  0.9244E+01  0.1121E+03
      0.850  0.9467E+01  0.1131E+03
      0.959  0.9377E+01  0.1141E+03
      1.067  0.9693E+01  0.1152E+03
      1.175  0.9769E+01  0.1163E+03
      1.283  0.7050E+01  0.1172E+03
      1.391  0.6256E+01  0.1179E+03
      1.499  0.5538E+01  0.1185E+03
      1.607  0.4692E+01  0.1191E+03
      1.715  0.4059E+01  0.1196E+03
      1.824  0.3814E+01  0.1200E+03
      1.932  0.6723E+01  0.1205E+03
      2.040  0.1007E+02  0.1215E+03
      2.148  0.8428E+01  0.1224E+03
      2.256  0.7438E+01  0.1234E+03
      2.364  0.5619E+01  0.1241E+03
      2.472  0.4760E+01  0.1246E+03
      2.580  0.4082E+01  0.1251E+03
      2.689  0.3463E+01  0.1255E+03
      2.797  0.3183E+01  0.1259E+03
      2.905  0.3007E+01  0.1262E+03
      3.013  0.2770E+01  0.1265E+03
      3.121  0.2305E+01  0.1268E+03
      3.229  0.2019E+01  0.1270E+03
      3.337  0.1788E+01  0.1272E+03
      3.445  0.1549E+01  0.1274E+03
      3.554  0.1308E+01  0.1276E+03
      3.662  0.1070E+01  0.1277E+03
      3.770  0.8316E+00  0.1278E+03
      3.878  0.6122E+00  0.1279E+03
      3.986  0.4250E+00  0.1279E+03
      4.094  0.2552E+00  0.1280E+03
      4.202  0.9967E-01  0.1280E+03
      4.310  0.2505E-01  0.1280E+03
      4.418  0.1450E+00  0.1280E+03
      4.527  0.2795E+00  0.1280E+03
      4.635  0.4322E+00  0.1281E+03
      4.743  0.6095E+00  0.1281E+03
      4.851  0.8361E+00  0.1282E+03
      4.959  0.1087E+01  0.1283E+03
      5.067  0.1477E+01  0.1284E+03
      5.175  0.1862E+01  0.1286E+03
      5.283  0.2243E+01  0.1288E+03
      5.392  0.2790E+01  0.1291E+03
      5.500  0.2769E+01  0.1294E+03
      5.608  0.3524E+01  0.1298E+03
      5.716  0.4396E+01  0.1302E+03
      5.824  0.7859E+01  0.1309E+03
      5.932  0.8266E+01  0.1319E+03
      6.040  0.8494E+01  0.1328E+03
      6.148  0.9100E+01  0.1338E+03
      6.257  0.6664E+01  0.1346E+03
      6.365  0.6291E+01  0.1353E+03
      6.473  0.5934E+01  0.1360E+03
      6.581  0.5500E+01  0.1366E+03
      6.689  0.5034E+01  0.1371E+03
      6.797  0.4423E+01  0.1377E+03
      6.905  0.3774E+01  0.1381E+03
      7.013  0.3633E+01  0.1385E+03
      7.122  0.4019E+01  0.1389E+03
      7.230  0.4535E+01  0.1394E+03
      7.338  0.4723E+01  0.1399E+03
      7.446  0.4538E+01  0.1404E+03
      7.554  0.4398E+01  0.1409E+03
      7.662  0.4248E+01  0.1413E+03
      7.770  0.4103E+01  0.1418E+03
      7.878  0.3960E+01  0.1422E+03
      7.986  0.3798E+01  0.1426E+03
      8.095  0.3654E+01  0.1430E+03
      8.203  0.3551E+01  0.1434E+03
      8.311  0.3650E+01  0.1438E+03
      8.419  0.3889E+01  0.1442E+03
      8.527  0.3966E+01  0.1446E+03
      8.635  0.4046E+01  0.1451E+03
      8.743  0.4116E+01  0.1455E+03
      8.851  0.4255E+01  0.1460E+03
      8.960  0.4282E+01  0.1464E+03
      9.068  0.4344E+01  0.1469E+03
      9.176  0.4349E+01  0.1474E+03
      9.284  0.4178E+01  0.1478E+03
      9.392  0.4172E+01  0.1483E+03
      9.500  0.4165E+01  0.1487E+03
      9.608  0.4152E+01  0.1492E+03
      9.716  0.4283E+01  0.1496E+03
      9.825  0.4465E+01  0.1501E+03
      9.933  0.4513E+01  0.1506E+03
     10.041  0.4768E+01  0.1511E+03
     10.149  0.4829E+01  0.1516E+03
     10.257  0.5766E+01  0.1522E+03
     10.365  0.4921E+01  0.1527E+03
     10.473  0.4849E+01  0.1533E+03
     10.581  0.5142E+01  0.1538E+03
     10.690  0.5959E+01  0.1544E+03
     10.798  0.4235E+01  0.1549E+03
     10.906  0.3740E+01  0.1553E+03
     11.014  0.3600E+01  0.1557E+03
     11.122  0.3228E+01  0.1561E+03
     11.230  0.3349E+01  0.1564E+03
     11.338  0.4055E+01  0.1568E+03
     11.446  0.4294E+01  0.1573E+03
     11.554  0.5168E+01  0.1578E+03
     11.663  0.8494E+01  0.1585E+03
     11.771  0.1066E+02  0.1596E+03
     11.879  0.1255E+02  0.1608E+03
     11.987  0.1378E+02  0.1623E+03
     12.095  0.1255E+02  0.1637E+03
     12.203  0.1046E+02  0.1650E+03
     12.311  0.8114E+01  0.1660E+03
     12.419  0.5071E+01  0.1667E+03
     12.528  0.4298E+01  0.1672E+03
     12.636  0.2883E+01  0.1676E+03
     12.744  0.1665E+01  0.1678E+03
     12.852  0.8595E+00  0.1679E+03
     12.960  0.1522E+00  0.1680E+03
     13.068  0.4551E-02  0.1680E+03
     13.176  0.0000E+00  0.1680E+03
     13.284  0.0000E+00  0.1680E+03
     13.393  0.0000E+00  0.1680E+03
     13.501  0.0000E+00  0.1680E+03
     13.609  0.0000E+00  0.1680E+03
     13.717  0.0000E+00  0.1680E+03
     13.825  0.0000E+00  0.1680E+03
     13.933  0.0000E+00  0.1680E+03
     14.041  0.0000E+00  0.1680E+03
     14.149  0.0000E+00  0.1680E+03
     14.258  0.0000E+00  0.1680E+03
     14.366  0.0000E+00  0.1680E+03
     14.474  0.0000E+00  0.1680E+03
     14.582  0.0000E+00  0.1680E+03
     14.690  0.0000E+00  0.1680E+03
     14.798  0.0000E+00  0.1680E+03
     14.906  0.0000E+00  0.1680E+03
     15.014  0.0000E+00  0.1680E+03
     15.122  0.0000E+00  0.1680E+03
