   32   32    1    1
  0.9749312E+01  0.4934311E-09  0.4934311E-09  0.1479663E-08  0.5000000E-15
  1.000000000000000E-004
  CAR 
 graphite                                
    128    163     84
 
  0.0000000E+00  0.0000000E+00  0.0000000E+00  0.3086420E-02
    1      -15.699641
    2      -15.633684
    3      -15.632843
    4      -15.564532
    5      -10.424021
    6      -10.421709
    7      -10.420005
    8      -10.400842
    9      -10.397017
   10      -10.396658
   11      -10.395867
   12      -10.395847
   13      -10.393156
   14      -10.375409
   15      -10.373615
   16      -10.370998
   17       -9.367297
   18       -9.365666
   19       -9.364349
   20       -9.351625
   21       -9.349055
   22       -9.348725
   23       -9.347552
   24       -9.347537
   25       -9.345932
   26       -9.329011
   27       -9.328107
   28       -9.326559
   29       -4.291523
   30       -3.755116
   31       -3.753862
   32       -3.129815
   33       -2.543063
   34       -2.540646
   35       -2.539657
   36       -2.533466
   37       -2.530953
   38       -2.530946
   39       -2.530302
   40       -2.528272
   41       -2.527799
   42       -2.521573
   43       -2.519110
   44       -2.517905
   45        0.832695
   46        0.838328
   47        0.841152
   48        0.842693
   49        0.843336
   50        0.845946
   51        0.847857
   52        0.852844
   53        1.287194
   54        1.288724
   55        1.290100
   56        1.497418
   57        1.501023
   58        1.501670
   59        1.501723
   60        1.501878
   61        1.504742
   62        1.675873
   63        1.677752
   64        1.679650
   65        5.371504
   66        5.373262
   67        5.375066
   68        5.516864
   69        5.520141
   70        5.521226
   71        5.522347
   72        5.522498
   73        5.524895
   74        5.818425
   75        5.819723
   76        5.821235
   77        7.504541
   78        9.461981
   79        9.464463
   80       11.138007
   81       11.142514
   82       11.146338
   83       11.227627
   84       11.232282
 
  0.1111111E+00  0.0000000E+00  0.0000000E+00  0.6172840E-02
    1      -15.626361
    2      -15.560692
    3      -15.559848
    4      -15.491944
    5      -11.193755
    6      -11.148749
    7      -11.148062
    8      -11.102364
    9      -10.657075
   10      -10.654773
   11      -10.620079
   12      -10.617148
   13      -10.616410
   14      -10.615719
   15      -10.579740
   16      -10.577386
   17       -9.040423
   18       -9.039061
   19       -9.009334
   20       -9.009006
   21       -9.007453
   22       -9.006582
   23       -8.975678
   24       -8.974187
   25       -8.523644
   26       -8.489922
   27       -8.487422
   28       -8.452643
   29       -4.202888
   30       -3.667880
   31       -3.666633
   32       -3.044959
   33       -2.767293
   34       -2.764481
   35       -2.756499
   36       -2.754460
   37       -2.752970
   38       -2.751378
   39       -2.743262
   40       -2.740672
   41       -2.468492
   42       -2.458857
   43       -2.457427
   44       -2.447573
   45        0.535314
   46        0.543500
   47        0.546790
   48        0.550106
   49        0.682541
   50        0.686250
   51        0.688106
   52        0.696128
   53        0.750711
   54        1.076344
   55        1.077822
   56        1.191372
   57        1.193294
   58        1.409328
   59        1.446101
   60        1.450138
   61        1.450295
   62        1.450790
   63        1.683486
   64        1.685768
   65        5.481823
   66        5.483690
   67        5.649910
   68        5.650440
   69        5.652153
   70        5.654543
   71        5.837292
   72        5.950202
   73        5.951894
   74        6.056744
   75        6.060954
   76        6.388914
   77        7.596538
   78        9.548120
   79        9.550584
   80       11.178054
   81       11.267536
   82       11.267842
   83       11.359082
   84       11.477799
 
  0.2222222E+00 -0.1387779E-16  0.0000000E+00  0.6172840E-02
    1      -15.406921
    2      -15.342225
    3      -15.341371
    4      -15.274595
    5      -12.197186
    6      -12.146585
    7      -12.145694
    8      -12.093745
    9      -10.997866
   10      -10.995989
   11      -10.954809
   12      -10.952374
   13      -10.951814
   14      -10.951171
   15      -10.908253
   16      -10.906335
   17       -8.355985
   18       -8.354423
   19       -8.322641
   20       -8.322243
   21       -8.320547
   22       -8.319850
   23       -8.287397
   24       -8.285707
   25       -7.202942
   26       -7.171901
   27       -7.169472
   28       -7.138152
   29       -3.937858
   30       -3.407711
   31       -3.406481
   32       -3.369589
   33       -3.367002
   34       -3.355638
   35       -3.353488
   36       -3.352271
   37       -3.350603
   38       -3.339116
   39       -3.336675
   40       -2.791514
   41       -2.254263
   42       -2.244710
   43       -2.243214
   44       -2.233447
   45       -0.284051
   46       -0.275479
   47       -0.271195
   48       -0.264961
   49       -0.225354
   50        0.188839
   51        0.189892
   52        0.266153
   53        0.271354
   54        0.273625
   55        0.281373
   56        0.648176
   57        1.002772
   58        1.004711
   59        1.325457
   60        1.329412
   61        1.329523
   62        1.330077
   63        1.659096
   64        1.661306
   65        5.784703
   66        5.786675
   67        5.980834
   68        5.981288
   69        5.982935
   70        5.985494
   71        6.263828
   72        6.265882
   73        7.027814
   74        7.275707
   75        7.279289
   76        7.599619
   77        7.873018
   78        9.806198
   79        9.808604
   80       11.283910
   81       11.373611
   82       11.374037
   83       11.433904
   84       12.070544
 
  0.3333333E+00  0.5551115E-16  0.0000000E+00  0.6172840E-02
    1      -15.042395
    2      -14.979344
    3      -14.978473
    4      -14.913488
    5      -13.104632
    6      -13.050089
    7      -13.049177
    8      -12.993267
    9      -11.252148
   10      -11.250469
   11      -11.206744
   12      -11.204441
   13      -11.204097
   14      -11.203402
   15      -11.158019
   16      -11.156301
   17       -7.552337
   18       -7.550577
   19       -7.521971
   20       -7.521646
   21       -7.519875
   22       -7.518887
   23       -7.490288
   24       -7.488346
   25       -5.776593
   26       -5.750449
   27       -5.747800
   28       -5.721270
   29       -4.180743
   30       -4.178449
   31       -4.163990
   32       -4.161585
   33       -4.160968
   34       -4.159068
   35       -4.144083
   36       -4.141925
   37       -3.499196
   38       -2.977708
   39       -2.976530
   40       -2.373033
   41       -1.906477
   42       -1.897106
   43       -1.895493
   44       -1.886139
   45       -1.461201
   46       -1.449672
   47       -1.445631
   48       -1.434832
   49       -1.224629
   50       -0.763555
   51       -0.762585
   52       -0.293584
   53       -0.286923
   54       -0.284642
   55       -0.276666
   56       -0.240382
   57        0.833303
   58        0.835212
   59        1.201921
   60        1.205769
   61        1.205862
   62        1.206484
   63        1.603364
   64        1.605536
   65        6.174793
   66        6.176904
   67        6.367595
   68        6.368268
   69        6.369504
   70        6.372412
   71        6.600073
   72        6.602388
   73        8.333432
   74        8.533146
   75        8.748627
   76        8.751782
   77        9.030881
   78       10.231430
   79       10.233743
   80       10.777443
   81       11.493989
   82       11.524933
   83       11.525836
   84       11.691710
 
  0.4444444E+00 -0.2775558E-16  0.0000000E+00  0.6172840E-02
    1      -14.534753
    2      -14.473955
    3      -14.473050
    4      -14.410444
    5      -13.887106
    6      -13.829133
    7      -13.828248
    8      -13.768573
    9      -11.383652
   10      -11.382058
   11      -11.337541
   12      -11.335242
   13      -11.335070
   14      -11.334311
   15      -11.287889
   16      -11.286256
   17       -6.815485
   18       -6.813835
   19       -6.794219
   20       -6.794085
   21       -6.792887
   22       -6.790705
   23       -6.772213
   24       -6.769891
   25       -4.934189
   26       -4.932250
   27       -4.920102
   28       -4.917644
   29       -4.916732
   30       -4.915296
   31       -4.901713
   32       -4.900280
   33       -4.303800
   34       -4.282574
   35       -4.279581
   36       -4.258317
   37       -2.892447
   38       -2.839272
   39       -2.823535
   40       -2.820062
   41       -2.804041
   42       -2.384024
   43       -2.382866
   44       -2.127714
   45       -1.797002
   46       -1.638378
   47       -1.637336
   48       -1.441474
   49       -1.432875
   50       -1.431078
   51       -1.422108
   52       -1.076881
   53       -0.888125
   54       -0.880322
   55       -0.878172
   56       -0.869525
   57        0.737508
   58        0.739394
   59        1.127569
   60        1.131352
   61        1.131447
   62        1.132100
   63        1.561044
   64        1.563199
   65        6.465243
   66        6.467424
   67        6.631131
   68        6.632220
   69        6.632692
   70        6.636086
   71        6.804647
   72        6.807125
   73        8.977357
   74        9.799062
   75       10.131342
   76       10.268060
   77       10.272456
   78       10.518538
   79       10.786290
   80       10.789755
   81       11.518497
   82       11.523370
   83       11.690917
   84       11.717227
 
  0.0000000E+00  0.1111111E+00  0.0000000E+00  0.6172840E-02
    1      -15.626360
    2      -15.560689
    3      -15.559848
    4      -15.491943
    5      -11.193853
    6      -11.148958
    7      -11.148064
    8      -11.102479
    9      -10.657019
   10      -10.654529
   11      -10.619869
   12      -10.617150
   13      -10.616410
   14      -10.615270
   15      -10.579631
   16      -10.577144
   17       -9.041530
   18       -9.039284
   19       -9.011613
   20       -9.009015
   21       -9.007454
   22       -9.006474
   23       -8.976559
   24       -8.974204
   25       -8.522712
   26       -8.488180
   27       -8.487417
   28       -8.451818
   29       -4.202892
   30       -3.667887
   31       -3.666635
   32       -3.044964
   33       -2.765796
   34       -2.764673
   35       -2.754725
   36       -2.754457
   37       -2.752772
   38       -2.751378
   39       -2.741947
   40       -2.740822
   41       -2.469323
   42       -2.459600
   43       -2.458852
   44       -2.449088
   45        0.541545
   46        0.545491
   47        0.546797
   48        0.550880
   49        0.681860
   50        0.685628
   51        0.686267
   52        0.690125
   53        0.749947
   54        1.075597
   55        1.076760
   56        1.191728
   57        1.193974
   58        1.408242
   59        1.447045
   60        1.450108
   61        1.450279
   62        1.452243
   63        1.684003
   64        1.686536
   65        5.480756
   66        5.482746
   67        5.647344
   68        5.650092
   69        5.652205
   70        5.653551
   71        5.839077
   72        5.949039
   73        5.951174
   74        6.059791
   75        6.061167
   76        6.390453
   77        7.596535
   78        9.548111
   79        9.550575
   80       11.177486
   81       11.266541
   82       11.267870
   83       11.358027
   84       11.486355
 
  0.1111111E+00  0.1111111E+00  0.0000000E+00  0.6172840E-02
    1      -15.479987
    2      -15.414977
    3      -15.414127
    4      -15.346961
    5      -11.654295
    6      -11.651533
    7      -11.607581
    8      -11.604037
    9      -11.604018
   10      -11.602061
   11      -11.556273
   12      -11.553467
   13      -10.234616
   14      -10.211305
   15      -10.209200
   16      -10.187499
   17       -9.182331
   18       -9.167037
   19       -9.165024
   20       -9.146196
   21       -7.843801
   22       -7.840655
   23       -7.812006
   24       -7.807523
   25       -7.807508
   26       -7.806120
   27       -7.775094
   28       -7.772233
   29       -4.026035
   30       -3.494267
   31       -3.493033
   32       -3.442399
   33       -3.428565
   34       -3.425689
   35       -3.411742
   36       -2.875798
   37       -2.622085
   38       -2.620089
   39       -2.611619
   40       -2.609461
   41       -2.609454
   42       -2.606987
   43       -2.598889
   44       -2.595705
   45        0.005499
   46        0.013368
   47        0.016700
   48        0.019952
   49        0.340375
   50        0.341842
   51        0.369304
   52        0.372595
   53        0.374302
   54        0.382687
   55        0.717109
   56        0.719227
   57        0.719389
   58        0.721681
   59        1.124589
   60        1.126831
   61        1.554513
   62        1.764284
   63        1.767535
   64        1.939988
   65        5.334161
   66        5.444102
   67        5.447280
   68        5.686872
   69        6.358188
   70        6.360752
   71        6.595976
   72        6.600491
   73        6.600629
   74        6.601352
   75        6.918905
   76        6.921292
   77        7.780873
   78        9.720543
   79        9.722969
   80       11.547444
   81       11.550240
   82       11.636269
   83       11.640158
   84       11.643938
 
  0.2222222E+00  0.1111111E+00  0.0000000E+00  0.6172840E-02
    1      -15.187999
    2      -15.124301
    3      -15.123435
    4      -15.057696
    5      -12.613553
    6      -12.561124
    7      -12.560216
    8      -12.506391
    9      -11.992013
   10      -11.942221
   11      -11.941453
   12      -11.890356
   13      -10.273167
   14      -10.237039
   15      -10.235531
   16      -10.199293
   17       -8.696949
   18       -8.668377
   19       -8.666859
   20       -8.636921
   21       -7.063136
   22       -7.032830
   23       -7.032242
   24       -7.001497
   25       -6.467297
   26       -6.439079
   27       -6.436645
   28       -6.407981
   29       -4.343925
   30       -4.326264
   31       -4.323432
   32       -4.305483
   33       -3.674072
   34       -3.149136
   35       -3.147932
   36       -3.144310
   37       -3.130779
   38       -3.129635
   39       -3.115691
   40       -2.539747
   41       -2.335020
   42       -2.324308
   43       -2.322853
   44       -2.311958
   45       -0.940672
   46       -0.931764
   47       -0.927373
   48       -0.920900
   49       -0.670118
   50       -0.230457
   51       -0.229493
   52       -0.172218
   53       -0.167124
   54       -0.164729
   55       -0.156305
   56        0.022263
   57        0.263925
   58        0.432055
   59        0.433384
   60        0.886121
   61        1.711416
   62        1.966515
   63        1.969672
   64        2.203087
   65        5.339630
   66        5.448626
   67        5.451583
   68        5.649820
   69        6.943350
   70        7.166670
   71        7.167734
   72        7.439285
   73        7.733386
   74        7.963753
   75        7.967031
   76        8.150050
   77        8.255445
   78       10.064379
   79       10.066725
   80       11.380338
   81       11.728133
   82       11.769513
   83       11.770040
   84       11.953886
 
  0.3333333E+00  0.1111111E+00  0.0000000E+00  0.6172840E-02
    1      -14.751912
    2      -14.690165
    3      -14.689274
    4      -14.625623
    5      -13.459144
    6      -13.403022
    7      -13.402130
    8      -13.344447
    9      -12.198754
   10      -12.148050
   11      -12.147294
   12      -12.095231
   13      -10.412626
   14      -10.371663
   15      -10.370583
   16      -10.328703
   17       -7.932396
   18       -7.904548
   19       -7.903181
   20       -7.874905
   21       -6.271731
   22       -6.246742
   23       -6.246610
   24       -6.221561
   25       -5.277482
   26       -5.258870
   27       -5.255885
   28       -5.236636
   29       -5.025494
   30       -5.002264
   31       -4.999614
   32       -4.976055
   33       -3.841852
   34       -3.826741
   35       -3.824859
   36       -3.809627
   37       -3.151097
   38       -2.637011
   39       -2.635894
   40       -2.176800
   41       -2.164331
   42       -2.160107
   43       -2.148105
   44       -2.041972
   45       -1.919849
   46       -1.909952
   47       -1.908404
   48       -1.898185
   49       -1.628341
   50       -1.153114
   51       -1.152091
   52       -0.793096
   53       -0.785957
   54       -0.783392
   55       -0.774686
   56       -0.610586
   57       -0.178509
   58        0.249110
   59        0.250599
   60        0.728884
   61        1.738576
   62        2.056882
   63        2.059624
   64        2.387507
   65        5.414510
   66        5.563338
   67        5.565657
   68        5.746765
   69        7.438592
   70        7.619314
   71        7.620309
   72        7.816988
   73        8.703140
   74        9.282556
   75        9.463864
   76        9.466903
   77        9.706982
   78       10.347286
   79       10.569121
   80       10.571452
   81       11.848391
   82       11.850665
   83       11.920675
   84       12.097369
 
  0.4444444E+00  0.1111111E+00  0.0000000E+00  0.6172840E-02
    1      -14.175672
    2      -14.173076
    3      -14.117655
    4      -14.114258
    5      -14.114134
    6      -14.112472
    7      -14.054466
    8      -14.051847
    9      -12.268302
   10      -12.217112
   11      -12.216366
   12      -12.164074
   13      -10.467398
   14      -10.425612
   15      -10.424697
   16      -10.381671
   17       -7.440077
   18       -7.423053
   19       -7.421868
   20       -7.405368
   21       -5.808403
   22       -5.805469
   23       -5.795519
   24       -5.794466
   25       -5.792455
   26       -5.792308
   27       -5.780927
   28       -5.779250
   29       -4.270953
   30       -4.261692
   31       -4.258273
   32       -4.248716
   33       -3.574236
   34       -3.570431
   35       -3.556601
   36       -3.551437
   37       -3.550958
   38       -3.550906
   39       -3.534029
   40       -3.531946
   41       -2.465642
   42       -2.463552
   43       -1.968306
   44       -1.965723
   45       -1.965537
   46       -1.963488
   47       -1.396597
   48       -1.394159
   49       -1.393797
   50       -1.391528
   51       -1.388064
   52       -1.385906
   53       -1.385840
   54       -1.381669
   55       -1.377311
   56       -1.368522
   57       -0.246862
   58        0.186311
   59        0.187959
   60        0.674230
   61        1.737399
   62        2.079522
   63        2.081748
   64        2.447689
   65        5.461946
   66        5.628391
   67        5.629917
   68        5.802678
   69        7.646996
   70        7.796828
   71        7.798076
   72        7.948477
   73        9.437509
   74        9.438202
   75       10.842884
   76       10.847019
   77       10.872154
   78       10.879476
   79       10.880889
   80       10.887654
   81       11.154791
   82       11.157904
   83       11.362197
   84       11.370768
 
 -0.4444444E+00  0.1111111E+00  0.0000000E+00  0.6172840E-02
    1      -14.751999
    2      -14.690242
    3      -14.689370
    4      -14.625709
    5      -13.459009
    6      -13.402894
    7      -13.401981
    8      -13.344319
    9      -12.198961
   10      -12.148254
   11      -12.147505
   12      -12.095439
   13      -10.412275
   14      -10.371193
   15      -10.370341
   16      -10.328341
   17       -7.931549
   18       -7.903222
   19       -7.902990
   20       -7.874250
   21       -6.272946
   22       -6.248508
   23       -6.247063
   24       -6.222536
   25       -5.278562
   26       -5.259361
   27       -5.257884
   28       -5.237989
   29       -5.025823
   30       -5.002713
   31       -4.999750
   32       -4.976323
   33       -3.840659
   34       -3.826018
   35       -3.822557
   36       -3.807947
   37       -3.151192
   38       -2.637124
   39       -2.635968
   40       -2.176223
   41       -2.163727
   42       -2.160593
   43       -2.148219
   44       -2.042065
   45       -1.919746
   46       -1.909857
   47       -1.907961
   48       -1.897729
   49       -1.628202
   50       -1.152962
   51       -1.151968
   52       -0.792843
   53       -0.785459
   54       -0.783822
   55       -0.775840
   56       -0.610451
   57       -0.178746
   58        0.248699
   59        0.250519
   60        0.728621
   61        1.738928
   62        2.057802
   63        2.059554
   64        2.388049
   65        5.414586
   66        5.564104
   67        5.565094
   68        5.746819
   69        7.438114
   70        7.618580
   71        7.620244
   72        7.816725
   73        8.703018
   74        9.282451
   75        9.463549
   76        9.466999
   77        9.706880
   78       10.347475
   79       10.569010
   80       10.571341
   81       11.848210
   82       11.850654
   83       11.920392
   84       12.096951
 
 -0.3333333E+00  0.1111111E+00  0.0000000E+00  0.6172840E-02
    1      -15.188060
    2      -15.124356
    3      -15.123503
    4      -15.057757
    5      -12.613385
    6      -12.560961
    7      -12.560043
    8      -12.506222
    9      -11.992438
   10      -11.942649
   11      -11.941874
   12      -11.890780
   13      -10.272368
   14      -10.235887
   15      -10.235055
   16      -10.198463
   17       -8.696311
   18       -8.667414
   19       -8.666724
   20       -8.636471
   21       -7.064320
   22       -7.034161
   23       -7.033143
   24       -7.002537
   25       -6.467609
   26       -6.439463
   27       -6.436855
   28       -6.408267
   29       -4.345374
   30       -4.326924
   31       -4.325977
   32       -4.307190
   33       -3.674141
   34       -3.149221
   35       -3.147977
   36       -3.142736
   37       -3.129892
   38       -3.126744
   39       -3.113636
   40       -2.539814
   41       -2.334841
   42       -2.324184
   43       -2.322561
   44       -2.311681
   45       -0.939122
   46       -0.931618
   47       -0.928820
   48       -0.921839
   49       -0.669961
   50       -0.230302
   51       -0.229348
   52       -0.171057
   53       -0.165642
   54       -0.164502
   55       -0.158644
   56        0.021799
   57        0.264071
   58        0.431220
   59        0.433235
   60        0.885597
   61        1.712070
   62        1.968184
   63        1.969581
   64        2.204065
   65        5.339726
   66        5.449699
   67        5.450804
   68        5.649955
   69        6.942700
   70        7.165585
   71        7.167598
   72        7.438793
   73        7.733240
   74        7.963405
   75        7.967087
   76        8.149962
   77        8.255304
   78       10.064291
   79       10.066637
   80       11.380521
   81       11.727922
   82       11.769157
   83       11.770019
   84       11.953672
 
 -0.2222222E+00  0.1111111E+00  0.0000000E+00  0.6172840E-02
    1      -15.480024
    2      -15.415010
    3      -15.414168
    4      -15.346998
    5      -11.653453
    6      -11.652635
    7      -11.605493
    8      -11.604705
    9      -11.604597
   10      -11.603826
   11      -11.555612
   12      -11.554784
   13      -10.233216
   14      -10.209285
   15      -10.208455
   16      -10.186132
   17       -9.181995
   18       -9.166353
   19       -9.165550
   20       -9.146383
   21       -7.842772
   22       -7.842618
   23       -7.810203
   24       -7.809260
   25       -7.808383
   26       -7.807740
   27       -7.774456
   28       -7.774287
   29       -4.026076
   30       -3.494317
   31       -3.493066
   32       -3.443993
   33       -3.429341
   34       -3.428530
   35       -3.413681
   36       -2.875838
   37       -2.620303
   38       -2.619698
   39       -2.609412
   40       -2.609364
   41       -2.607898
   42       -2.606347
   43       -2.596687
   44       -2.596118
   45        0.008316
   46        0.012526
   47        0.013569
   48        0.017686
   49        0.339979
   50        0.341643
   51        0.371941
   52        0.375304
   53        0.375820
   54        0.379261
   55        0.717059
   56        0.719180
   57        0.719387
   58        0.720635
   59        1.124506
   60        1.126244
   61        1.555368
   62        1.766312
   63        1.767514
   64        1.941182
   65        5.334291
   66        5.445200
   67        5.446595
   68        5.687118
   69        6.358550
   70        6.359673
   71        6.596627
   72        6.598683
   73        6.600325
   74        6.601269
   75        6.919243
   76        6.920222
   77        7.780818
   78        9.720487
   79        9.722914
   80       11.549294
   81       11.551807
   82       11.639747
   83       11.641506
   84       11.644475
 
 -0.1111111E+00  0.1111111E+00  0.0000000E+00  0.6172840E-02
    1      -15.626372
    2      -15.560699
    3      -15.559862
    4      -15.491955
    5      -11.194725
    6      -11.149908
    7      -11.148866
    8      -11.103359
    9      -10.656104
   10      -10.654097
   11      -10.618869
   12      -10.616257
   13      -10.616234
   14      -10.614659
   15      -10.578814
   16      -10.576598
   17       -9.041182
   18       -9.039298
   19       -9.011192
   20       -9.007828
   21       -9.007629
   22       -9.007610
   23       -8.976195
   24       -8.974634
   25       -8.523443
   26       -8.488963
   27       -8.487992
   28       -8.452442
   29       -4.202906
   30       -3.667904
   31       -3.666646
   32       -3.044978
   33       -2.767027
   34       -2.765247
   35       -2.756329
   36       -2.754430
   37       -2.754423
   38       -2.752102
   39       -2.743660
   40       -2.740770
   41       -2.467718
   42       -2.458690
   43       -2.455705
   44       -2.446865
   45        0.539151
   46        0.543307
   47        0.545299
   48        0.552932
   49        0.678767
   50        0.686717
   51        0.689767
   52        0.692640
   53        0.749120
   54        1.073978
   55        1.076599
   56        1.192459
   57        1.194241
   58        1.407279
   59        1.448597
   60        1.449965
   61        1.450226
   62        1.453017
   63        1.684719
   64        1.687019
   65        5.480417
   66        5.483271
   67        5.646833
   68        5.651856
   69        5.652317
   70        5.652776
   71        5.838636
   72        5.949064
   73        5.951464
   74        6.058611
   75        6.061289
   76        6.389936
   77        7.596516
   78        9.548092
   79        9.550556
   80       11.181412
   81       11.270204
   82       11.272047
   83       11.361426
   84       11.481589
 
 -0.1694066E-20  0.2222222E+00  0.0000000E+00  0.6172840E-02
    1      -15.406914
    2      -15.342212
    3      -15.341371
    4      -15.274588
    5      -12.197167
    6      -12.146551
    7      -12.145693
    8      -12.093729
    9      -10.998224
   10      -10.995629
   11      -10.955416
   12      -10.952375
   13      -10.951814
   14      -10.950368
   15      -10.908508
   16      -10.905893
   17       -8.357204
   18       -8.354449
   19       -8.325086
   20       -8.322250
   21       -8.320546
   22       -8.319332
   23       -8.288325
   24       -8.285510
   25       -7.202069
   26       -7.170262
   27       -7.169468
   28       -7.137372
   29       -3.937876
   30       -3.407742
   31       -3.406488
   32       -3.368516
   33       -3.366920
   34       -3.354332
   35       -3.353486
   36       -3.351387
   37       -3.350601
   38       -3.338049
   39       -3.336443
   40       -2.791537
   41       -2.255137
   42       -2.245499
   43       -2.244706
   44       -2.235058
   45       -0.279988
   46       -0.272571
   47       -0.271191
   48       -0.263958
   49       -0.225674
   50        0.188281
   51        0.189401
   52        0.265196
   53        0.270535
   54        0.271361
   55        0.276862
   56        0.647545
   57        1.002940
   58        1.005481
   59        1.326056
   60        1.329398
   61        1.329519
   62        1.331627
   63        1.659482
   64        1.662132
   65        5.783415
   66        5.785988
   67        5.977881
   68        5.981143
   69        5.982978
   70        5.984715
   71        6.262383
   72        6.265408
   73        7.029171
   74        7.277959
   75        7.279468
   76        7.600779
   77        7.873010
   78        9.806167
   79        9.808573
   80       11.283320
   81       11.372705
   82       11.373727
   83       11.433307
   84       12.070354
 
  0.1111111E+00  0.2222222E+00  0.0000000E+00  0.6172840E-02
    1      -15.187994
    2      -15.124291
    3      -15.123435
    4      -15.057691
    5      -12.613515
    6      -12.561050
    7      -12.560216
    8      -12.506354
    9      -11.992041
   10      -11.942274
   11      -11.941454
   12      -11.890381
   13      -10.273159
   14      -10.237022
   15      -10.235530
   16      -10.199285
   17       -8.697006
   18       -8.668377
   19       -8.667003
   20       -8.637013
   21       -7.064088
   22       -7.034635
   23       -7.032247
   24       -7.002364
   25       -6.466341
   26       -6.437279
   27       -6.436640
   28       -6.407121
   29       -4.343831
   30       -4.326124
   31       -4.323432
   32       -4.305428
   33       -3.674086
   34       -3.149151
   35       -3.147925
   36       -3.143304
   37       -3.129638
   38       -3.128410
   39       -3.114294
   40       -2.539766
   41       -2.336008
   42       -2.325303
   43       -2.324305
   44       -2.313567
   45       -0.938214
   46       -0.930637
   47       -0.927372
   48       -0.920541
   49       -0.670486