   32   32    1    1
  0.8643287E+01  0.4932875E-09  0.4932875E-09  0.1313087E-08  0.5000000E-15
  1.000000000000000E-004
  CAR 
 graphite                                
    128    163     84
 
  0.0000000E+00  0.0000000E+00  0.0000000E+00  0.3086420E-02
    1      -14.784577
    2      -14.614550
    3      -14.614049
    4      -14.430264
    5       -9.446461
    6       -9.438303
    7       -9.435768
    8       -9.373761
    9       -9.373222
   10       -9.365537
   11       -9.362023
   12       -9.361961
   13       -9.359735
   14       -9.315050
   15       -9.304166
   16       -9.300861
   17       -8.361866
   18       -8.358521
   19       -8.356414
   20       -8.327682
   21       -8.324088
   22       -8.321952
   23       -8.321499
   24       -8.321411
   25       -8.317575
   26       -8.262845
   27       -8.257927
   28       -8.255879
   29       -3.725092
   30       -2.741913
   31       -2.740078
   32       -1.535087
   33       -1.532671
   34       -1.532363
   35       -1.513107
   36       -1.502455
   37       -1.498542
   38       -1.498533
   39       -1.497547
   40       -1.479863
   41       -1.477380
   42       -1.465845
   43       -1.463436
   44       -1.444019
   45        1.860937
   46        1.873487
   47        1.878731
   48        1.885087
   49        1.888558
   50        1.894812
   51        1.899552
   52        1.911762
   53        2.049799
   54        2.051194
   55        2.052367
   56        2.512588
   57        2.515033
   58        2.516822
   59        2.520736
   60        2.521181
   61        2.522915
   62        2.808096
   63        2.823099
   64        2.825915
   65        6.396881
   66        6.400106
   67        6.401723
   68        6.516274
   69        6.521658
   70        6.526331
   71        6.527213
   72        6.527485
   73        6.532875
   74        7.112652
   75        7.126245
   76        7.128645
   77        9.367254
   78       12.037034
   79       12.040925
   80       12.074229
   81       12.178209
   82       12.183621
   83       12.260772
   84       12.266627
 
  0.1111111E+00  0.6938894E-17  0.0000000E+00  0.6172840E-02
    1      -14.710796
    2      -14.541400
    3      -14.540901
    4      -14.357980
    5      -10.241513
    6      -10.119072
    7      -10.118519
    8       -9.990437
    9       -9.700196
   10       -9.692040
   11       -9.594228
   12       -9.593948
   13       -9.585321
   14       -9.584763
   15       -9.487232
   16       -9.477739
   17       -8.068783
   18       -8.062419
   19       -7.986460
   20       -7.983597
   21       -7.978255
   22       -7.978004
   23       -7.889855
   24       -7.882787
   25       -7.552197
   26       -7.456501
   27       -7.454609
   28       -7.353067
   29       -3.635495
   30       -2.654886
   31       -2.653054
   32       -1.760384
   33       -1.740855
   34       -1.722748
   35       -1.722444
   36       -1.704147
   37       -1.701655
   38       -1.684144
   39       -1.664463
   40       -1.461554
   41       -1.449552
   42       -1.428836
   43       -1.426130
   44       -1.393314
   45        1.445926
   46        1.577902
   47        1.592410
   48        1.596705
   49        1.611891
   50        1.707812
   51        1.721834
   52        1.726530
   53        1.739584
   54        1.928961
   55        1.930803
   56        2.091340
   57        2.094087
   58        2.461024
   59        2.463222
   60        2.467621
   61        2.470076
   62        2.718635
   63        2.876451
   64        2.890720
   65        6.460201
   66        6.462887
   67        6.647824
   68        6.653118
   69        6.658050
   70        6.659757
   71        6.728658
   72        7.067986
   73        7.071943
   74        7.249273
   75        7.260906
   76        7.734642
   77        9.455055
   78       12.080128
   79       12.249768
   80       12.254641
   81       12.301359
   82       12.303082
   83       12.374584
   84       12.410008
 
  0.2222222E+00  0.1387779E-16  0.0000000E+00  0.6172840E-02
    1      -14.489779
    2      -14.322446
    3      -14.321955
    4      -14.141474
    5      -11.255319
    6      -11.119220
    7      -11.118813
    8      -10.974554
    9      -10.049670
   10      -10.043967
   11       -9.929752
   12       -9.929097
   13       -9.923499
   14       -9.922917
   15       -9.803272
   16       -9.797101
   17       -7.390511
   18       -7.381278
   19       -7.298243
   20       -7.295772
   21       -7.287724
   22       -7.287460
   23       -7.197620
   24       -7.188285
   25       -6.225482
   26       -6.135507
   27       -6.133759
   28       -6.039861
   29       -3.367464
   30       -2.394943
   31       -2.393113
   32       -2.369156
   33       -2.350804
   34       -2.323080
   35       -2.322889
   36       -2.305725
   37       -2.303232
   38       -2.275306
   39       -2.256824
   40       -1.246515
   41       -1.214442
   42       -1.211586
   43       -1.201124
   44       -1.179445
   45        0.414874
   46        0.749061
   47        0.773857
   48        0.778102
   49        0.803101
   50        1.202453
   51        1.204593
   52        1.286500
   53        1.305534
   54        1.310299
   55        1.328884
   56        1.698888
   57        1.701607
   58        2.099401
   59        2.339866
   60        2.341491
   61        2.345144
   62        2.347723
   63        2.963462
   64        2.973272
   65        6.679808
   66        6.683340
   67        6.982935
   68        6.988011
   69        6.992745
   70        6.994412
   71        7.554908
   72        7.562735
   73        7.829741
   74        8.290740
   75        8.293853
   76        8.945412
   77        9.719237
   78       12.198815
   79       12.412112
   80       12.413856
   81       12.461128
   82       12.464814
   83       12.613640
   84       13.244291
 
  0.3333333E+00  0.2775558E-16  0.0000000E+00  0.6172840E-02
    1      -14.122575
    2      -13.958773
    3      -13.958295
    4      -13.781851
    5      -12.170185
    6      -12.024994
    7      -12.024577
    8      -11.869555
    9      -10.307080
   10      -10.303458
   11      -10.181903
   12      -10.180892
   13      -10.177699
   14      -10.176963
   15      -10.049026
   16      -10.045210
   17       -6.581175
   18       -6.570451
   19       -6.495981
   20       -6.493383
   21       -6.484167
   22       -6.483724
   23       -6.404362
   24       -6.393878
   25       -4.789138
   26       -4.711036
   27       -4.709089
   28       -4.628059
   29       -3.186245
   30       -3.170296
   31       -3.132564
   32       -3.132236
   33       -3.117474
   34       -3.114868
   35       -3.076126
   36       -3.059923
   37       -2.923553
   38       -1.965248
   39       -1.963438
   40       -0.897294
   41       -0.866581
   42       -0.863491
   43       -0.832358
   44       -0.791491
   45       -0.612504
   46       -0.439517
   47       -0.401961
   48       -0.398297
   49       -0.360392
   50        0.249278
   51        0.251210
   52        0.722817
   53        0.746193
   54        0.750457
   55        0.773815
   56        1.273569
   57        1.501271
   58        1.503770
   59        2.215960
   60        2.217085
   61        2.219578
   62        2.222500
   63        2.993183
   64        2.999110
   65        7.017691
   66        7.022754
   67        7.375341
   68        7.380239
   69        7.383719
   70        7.385309
   71        7.852317
   72        7.856685
   73        9.332308
   74        9.768826
   75        9.771518
   76       10.159894
   77       10.344373
   78       12.305541
   79       12.528927
   80       12.582877
   81       12.584908
   82       12.761837
   83       12.764056
   84       12.947635
 
  0.4444444E+00  0.2775558E-16  0.0000000E+00  0.6172840E-02
    1      -13.611107
    2      -13.452182
    3      -13.451716
    4      -13.280958
    5      -12.958639
    6      -12.805865
    7      -12.805431
    8      -12.641813
    9      -10.439380
   10      -10.437343
   11      -10.312585
   12      -10.311033
   13      -10.309988
   14      -10.308805
   15      -10.176893
   16      -10.174771
   17       -5.826349
   18       -5.818278
   19       -5.764605
   20       -5.761268
   21       -5.755859
   22       -5.754508
   23       -5.699823
   24       -5.692905
   25       -3.931145
   26       -3.922545
   27       -3.888343
   28       -3.886835
   29       -3.879789
   30       -3.876714
   31       -3.837551
   32       -3.827775
   33       -3.305111
   34       -3.240328
   35       -3.237965
   36       -3.171159
   37       -2.308898
   38       -1.829355
   39       -1.779060
   40       -1.776211
   41       -1.722978
   42       -1.532666
   43       -1.370817
   44       -1.368861
   45       -0.625783
   46       -0.623904
   47       -0.430769
   48       -0.401658
   49       -0.398218
   50       -0.368824
   51       -0.229007
   52        0.125089
   53        0.151992
   54        0.155688
   55        0.182696
   56        0.470336
   57        1.392413
   58        1.394392
   59        2.141483
   60        2.142685
   61        2.143667
   62        2.147198
   63        2.992518
   64        2.995592
   65        7.295952
   66        7.299489
   67        7.643541
   68        7.648617
   69        7.649805
   70        7.651109
   71        8.012161
   72        8.015125
   73       10.773723
   74       10.962152
   75       11.308277
   76       11.311473
   77       11.549439
   78       11.788376
   79       12.565812
   80       12.665378
   81       12.688945
   82       12.693467
   83       12.788279
   84       12.795400
 
  0.6776264E-20  0.1111111E+00  0.0000000E+00  0.6172840E-02
    1      -14.710798
    2      -14.541402
    3      -14.540902
    4      -14.357982
    5      -10.241440
    6      -10.118922
    7      -10.118490
    8       -9.990327
    9       -9.700213
   10       -9.692295
   11       -9.594250
   12       -9.593923
   13       -9.585548
   14       -9.585168
   15       -9.487177
   16       -9.478187
   17       -8.068882
   18       -8.061134
   19       -7.986773
   20       -7.983597
   21       -7.978180
   22       -7.975343
   23       -7.889978
   24       -7.881408
   25       -7.553166
   26       -7.456680
   27       -7.456381
   28       -7.354054
   29       -3.635491
   30       -2.654880
   31       -2.653049
   32       -1.761686
   33       -1.740823
   34       -1.725147
   35       -1.722455
   36       -1.704147
   37       -1.701821
   38       -1.685394
   39       -1.664613
   40       -1.460102
   41       -1.449544
   42       -1.426221
   43       -1.426095
   44       -1.392088
   45        1.446662
   46        1.575599
   47        1.591076
   48        1.592412
   49        1.607812
   50        1.712119
   51        1.726527
   52        1.727434
   53        1.741848
   54        1.928527
   55        1.930222
   56        2.092769
   57        2.094625
   58        2.460822
   59        2.463324
   60        2.466344
   61        2.468913
   62        2.719943
   63        2.876522
   64        2.889175
   65        6.462015
   66        6.463259
   67        6.648183
   68        6.653086
   69        6.658623
   70        6.663081
   71        6.726623
   72        7.067143
   73        7.069155
   74        7.249396
   75        7.262895
   76        7.732967
   77        9.455061
   78       12.080626
   79       12.249803
   80       12.254418
   81       12.302221
   82       12.303225
   83       12.373624
   84       12.408918
 
  0.1111111E+00  0.1111111E+00  0.0000000E+00  0.6172840E-02
    1      -14.563297
    2      -14.395275
    3      -14.394782
    4      -14.213476
    5      -10.708348
    6      -10.705277
    7      -10.580068
    8      -10.576779
    9      -10.576750
   10      -10.573864
   11      -10.441021
   12      -10.437874
   13       -9.257017
   14       -9.185708
   15       -9.184343
   16       -9.127804
   17       -8.176837
   18       -8.144272
   19       -8.140950
   20       -8.082528
   21       -6.869626
   22       -6.866390
   23       -6.776561
   24       -6.773973
   25       -6.773945
   26       -6.769886
   27       -6.676109
   28       -6.672642
   29       -3.456592
   30       -2.481330
   31       -2.479501
   32       -2.426460
   33       -2.380763
   34       -2.378558
   35       -2.331620
   36       -1.617070
   37       -1.614130
   38       -1.581629
   39       -1.577608
   40       -1.577599
   41       -1.576231
   42       -1.541648
   43       -1.539106
   44       -1.283662
   45        1.004360
   46        1.006006
   47        1.048876
   48        1.063355
   49        1.068043
   50        1.082528
   51        1.393753
   52        1.405942
   53        1.410570
   54        1.422541
   55        1.731197
   56        1.734815
   57        1.734945
   58        1.737090
   59        2.318355
   60        2.519763
   61        2.522395
   62        2.778639
   63        2.781836
   64        3.068032
   65        6.389597
   66        6.444761
   67        6.449511
   68        6.925107
   69        7.189946
   70        7.192793
   71        7.609301
   72        7.611005
   73        7.611340
   74        7.615555
   75        8.257607
   76        8.260111
   77        9.631402
   78       12.394453
   79       12.399188
   80       12.453420
   81       12.457463
   82       12.674149
   83       12.676853
   84       12.679289
 
  0.2222222E+00  0.1111111E+00  0.0000000E+00  0.6172840E-02
    1      -14.269082
    2      -14.103838
    3      -14.103357
    4      -13.925308
    5      -11.675727
    6      -11.535484
    7      -11.535066
    8      -11.385904
    9      -11.050034
   10      -10.916196
   11      -10.915765
   12      -10.773851
   13       -9.313440
   14       -9.211494
   15       -9.210791
   16       -9.108476
   17       -7.720683
   18       -7.643955
   19       -7.641150
   20       -7.554022
   21       -6.082971
   22       -5.996384
   23       -5.995830
   24       -5.905573
   25       -5.483346
   26       -5.400088
   27       -5.398312
   28       -5.311502
   29       -3.336892
   30       -3.281551
   31       -3.279390
   32       -3.221898
   33       -3.100358
   34       -2.143567
   35       -2.136272
   36       -2.134460
   37       -2.099048
   38       -2.098732
   39       -2.052997
   40       -1.329819
   41       -1.294934
   42       -1.292156
   43       -1.256805
   44       -0.954396
   45       -0.045514
   46        0.091616
   47        0.116941
   48        0.121795
   49        0.146645
   50        0.665933
   51        0.782231
   52        0.784232
   53        0.847996
   54        0.865841
   55        0.870989
   56        0.889003
   57        1.446161
   58        1.447972
   59        1.750736
   60        2.335193
   61        2.448446
   62        2.980767
   63        2.983809
   64        3.394497
   65        6.348021
   66        6.454052
   67        6.458669
   68        6.864357
   69        7.756593
   70        8.180243
   71        8.182428
   72        8.532212
   73        8.733875
   74        8.981804
   75        8.984453
   76        9.574006
   77        9.985095
   78       12.594154
   79       12.677588
   80       12.680848
   81       12.816585
   82       12.818336
   83       12.918639
   84       13.406636
 
  0.3333333E+00  0.1111111E+00  0.0000000E+00  0.6172840E-02
    1      -13.829614
    2      -13.668575
    3      -13.668107
    4      -13.494939
    5      -12.528021
    6      -12.379351
    7      -12.378921
    8      -12.220092
    9      -11.259509
   10      -11.123260
   11      -11.122804
   12      -10.978426
   13       -9.459580
   14       -9.345690
   15       -9.345329
   16       -9.226799
   17       -6.955555
   18       -6.877265
   19       -6.874614
   20       -6.792551
   21       -5.280519
   22       -5.209118
   23       -5.207879
   24       -5.134627
   25       -4.275451
   26       -4.218644
   27       -4.216333
   28       -4.155125
   29       -4.030655
   30       -3.960363
   31       -3.958373
   32       -3.885896
   33       -2.842611
   34       -2.795656
   35       -2.794519
   36       -2.744456
   37       -2.570804
   38       -1.624639
   39       -1.622891
   40       -1.158942
   41       -1.117628
   42       -1.113934
   43       -1.073460
   44       -1.024835
   45       -0.912932
   46       -0.880054
   47       -0.877103
   48       -0.843750
   49       -0.467741
   50       -0.140844
   51       -0.138973
   52        0.222061
   53        0.246892
   54        0.251514
   55        0.276750
   56        0.453814
   57        0.920320
   58        1.262117
   59        1.263952
   60        2.205289
   61        2.438563
   62        3.070837
   63        3.073454
   64        3.698282
   65        6.300104
   66        6.574639
   67        6.578643
   68        6.966149
   69        8.265297
   70        8.634958
   71        8.637489
   72        9.044909
   73       10.100298
   74       10.486953
   75       10.489568
   76       10.517119
   77       10.984094
   78       12.065713
   79       12.865737
   80       12.983982
   81       12.989281
   82       13.001093
   83       13.002900
   84       13.228549
 
  0.4444444E+00  0.1111111E+00  0.0000000E+00  0.6172840E-02
    1      -13.249612
    2      -13.246592
    3      -13.095282
    4      -13.092709
    5      -13.091739
    6      -13.089399
    7      -12.926833
    8      -12.923739
    9      -11.330191
   10      -11.193388
   11      -11.192921
   12      -11.047741
   13       -9.514916
   14       -9.398689
   15       -9.398346
   16       -9.276859
   17       -6.440169
   18       -6.389563
   19       -6.387059
   20       -6.339413
   21       -4.802779
   22       -4.791591
   23       -4.762991
   24       -4.761770
   25       -4.759502
   26       -4.757541
   27       -4.721608
   28       -4.717927
   29       -3.252121
   30       -3.225577
   31       -3.222555
   32       -3.188703
   33       -2.568149
   34       -2.564914
   35       -2.511720
   36       -2.511325
   37       -2.509756
   38       -2.504949
   39       -2.452397
   40       -2.448457
   41       -1.876330
   42       -1.873852
   43       -0.955978
   44       -0.952822
   45       -0.952058
   46       -0.949901
   47       -0.387883
   48       -0.381305
   49       -0.358592
   50       -0.351812
   51       -0.349590
   52       -0.349337
   53       -0.322281
   54       -0.318017
   55        0.163053
   56        0.165869
   57        0.381282
   58        1.198471
   59        1.200359
   60        2.158477
   61        2.423891
   62        3.093906
   63        3.096086
   64        3.815607
   65        6.290900
   66        6.643389
   67        6.646535
   68        7.021222
   69        8.486039
   70        8.811670
   71        8.814673
   72        9.138013
   73       11.213734
   74       11.215495
   75       11.701273
   76       11.705011
   77       11.981425
   78       11.984231
   79       11.985278
   80       11.990029
   81       12.386138
   82       12.389385
   83       13.101560
   84       13.124006
 
 -0.4444444E+00  0.1111111E+00  0.0000000E+00  0.6172840E-02
    1      -13.830381
    2      -13.669343
    3      -13.668868
    4      -13.495701
    5      -12.526806
    6      -12.378142
    7      -12.377719
    8      -12.218869
    9      -11.261288
   10      -11.125056
   11      -11.124590
   12      -10.980232
   13       -9.456926
   14       -9.342787
   15       -9.342429
   16       -9.223743
   17       -6.947184
   18       -6.868062
   19       -6.867153
   20       -6.784395
   21       -5.291963
   22       -5.220988
   23       -5.218255
   24       -5.145383
   25       -4.287570
   26       -4.230200
   27       -4.229581
   28       -4.167768
   29       -4.032799
   30       -3.962752
   31       -3.960397
   32       -3.888131
   33       -2.828235
   34       -2.781883
   35       -2.778954
   36       -2.729525
   37       -2.571545
   38       -1.625353
   39       -1.623619
   40       -1.158875
   41       -1.116988
   42       -1.114764
   43       -1.073784
   44       -1.023780
   45       -0.910909
   46       -0.878162
   47       -0.874813
   48       -0.841645
   49       -0.468437
   50       -0.139825
   51       -0.137911
   52        0.222336
   53        0.247389
   54        0.250498
   55        0.276199
   56        0.452455
   57        0.921277
   58        1.260389
   59        1.262377
   60        2.203008
   61        2.439074
   62        3.073605
   63        3.075527
   64        3.705071
   65        6.300724
   66        6.578401
   67        6.580824
   68        6.967498
   69        8.259711
   70        8.629812
   71        8.633249
   72        9.042935
   73       10.100847
   74       10.486585
   75       10.488995
   76       10.516159
   77       10.982843
   78       12.067081
   79       12.862498
   80       12.985676
   81       12.990370
   82       12.997802
   83       13.000128
   84       13.271671
 
 -0.3333333E+00  0.1111111E+00  0.0000000E+00  0.6172840E-02
    1      -14.269619
    2      -14.104388
    3      -14.103901
    4      -13.925846
    5      -11.674307
    6      -11.534053
    7      -11.533648
    8      -11.384477
    9      -11.053619
   10      -10.919817
   11      -10.919370
   12      -10.777507
   13       -9.307748
   14       -9.205014
   15       -9.204673
   16       -9.101278
   17       -7.713977
   18       -7.635575
   19       -7.635189
   20       -7.546472
   21       -6.094579
   22       -6.008797
   23       -6.006573
   24       -5.916935
   25       -5.485658
   26       -5.402486
   27       -5.400566
   28       -5.313948
   29       -3.352760
   30       -3.296567
   31       -3.296387
   32       -3.237902
   33       -3.100899
   34       -2.136820
   35       -2.135000
   36       -2.125217
   37       -2.081729
   38       -2.079146
   39       -2.034531
   40       -1.328141
   41       -1.293331
   42       -1.290309
   43       -1.255099
   44       -0.954908
   45       -0.044332
   46        0.087778
   47        0.114005
   48        0.116054
   49        0.141520
   50        0.663403
   51        0.783270
   52        0.785384
   53        0.853580
   54        0.871239
   55        0.873591
   56        0.892319
   57        1.442763
   58        1.444918
   59        1.751670
   60        2.330508
   61        2.448450
   62        2.985895
   63        2.987777
   64        3.407521
   65        6.346341
   66        6.460317
   67        6.462425
   68        6.870119
   69        7.749558
   70        8.171883
   71        8.175634
   72        8.532185
   73        8.728462
   74        8.980848
   75        8.983820
   76        9.572549
   77        9.984339
   78       12.591830
   79       12.677269
   80       12.680447
   81       12.814076
   82       12.816216
   83       12.917713
   84       13.384953
 
 -0.2222222E+00  0.1111111E+00  0.0000000E+00  0.6172840E-02
    1      -14.563628
    2      -14.395611
    3      -14.395114
    4      -14.213812
    5      -10.712179
    6      -10.705180
    7      -10.582556
    8      -10.582153
    9      -10.575488
   10      -10.575067
   11      -10.445069
   12      -10.437946
   13       -9.247731
   14       -9.174518
   15       -9.174253
   16       -9.115617
   17       -8.174115
   18       -8.139038
   19       -8.138840
   20       -8.077965
   21       -6.878351
   22       -6.869634
   23       -6.784950
   24       -6.782897
   25       -6.776140
   26       -6.774354
   27       -6.684766
   28       -6.676164
   29       -3.456920
   30       -2.481651
   31       -2.479825
   32       -2.444277
   33       -2.397625
   34       -2.397418
   35       -2.349529
   36       -1.615192
   37       -1.595163
   38       -1.579191
   39       -1.576408
   40       -1.559163
   41       -1.556669
   42       -1.539978
   43       -1.520095
   44       -1.283974
   45        1.001851
   46        1.005980
   47        1.036881
   48        1.053361
   49        1.053473
   50        1.068832
   51        1.408271
   52        1.420354
   53        1.420569
   54        1.434087
   55        1.728907
   56        1.731313
   57        1.734079
   58        1.736509
   59        2.317700
   60        2.514281
   61        2.521196
   62        2.785220
   63        2.787142
   64        3.084645
   65        6.385834
   66        6.452365
   67        6.454445
   68        6.935586
   69        7.184686
   70        7.192210
   71        7.600338
   72        7.604361
   73        7.610021
   74        7.613605
   75        8.249962
   76        8.258149
   77        9.630930
   78       12.393952
   79       12.398309
   80       12.453719
   81       12.489649
   82       12.674062
   83       12.681775
   84       12.709916
 
 -0.1111111E+00  0.1111111E+00  0.0000000E+00  0.6172840E-02
    1      -14.710917
    2      -14.541512
    3      -14.541010
    4      -14.358093
    5      -10.248769
    6      -10.126426
    7      -10.126072
    8       -9.998059
    9       -9.691942
   10       -9.689780
   11       -9.586661
   12       -9.583814
   13       -9.583764
   14       -9.581993
   15       -9.478074
   16       -9.475575
   17       -8.064451
   18       -8.062488
   19       -7.980633
   20       -7.979778
   21       -7.979731
   22       -7.976719
   23       -7.884910
   24       -7.882971
   25       -7.560809
   26       -7.465299
   27       -7.463193
   28       -7.361776
   29       -3.635601
   30       -2.654988
   31       -2.653157
   32       -1.762001
   33       -1.759355
   34       -1.725897
   35       -1.722060
   36       -1.722050
   37       -1.721047
   38       -1.685538
   39       -1.683270
   40       -1.449651
   41       -1.440358
   42       -1.407581
   43       -1.405113
   44       -1.372179
   45        1.443194
   46        1.559774
   47        1.575255
   48        1.580328
   49        1.594630
   50        1.725624
   51        1.738642
   52        1.743259
   53        1.757513
   54        1.929687
   55        1.931760
   56        2.086592
   57        2.089301
   58        2.464470
   59        2.468864
   60        2.469283
   61        2.470340
   62        2.709504
   63        2.888512
   64        2.891258
   65        6.460769
   66        6.463847
   67        6.656671
   68        6.658187
   69        6.658451
   70        6.663611
   71        6.723738
   72        7.057706
   73        7.062035
   74        7.259675
   75        7.262195
   76        7.723305
   77        9.454898
   78       12.115142
   79       12.249650
   80       12.254519
   81       12.336960
   82       12.337961
   83       12.371207
   84       12.375104
 
  0.1355253E-19  0.2222222E+00  0.0000000E+00  0.6172840E-02
    1      -14.489786
    2      -14.322455
    3      -14.321959
    4      -14.141481
    5      -11.255357
    6      -11.119271
    7      -11.118834
    8      -10.974587
    9      -10.049837
   10      -10.043894
   11       -9.930230
   12       -9.929110
   13       -9.923466
   14       -9.922607
   15       -9.803366
   16       -9.797074
   17       -7.390668
   18       -7.380140
   19       -7.298655
   20       -7.295774
   21       -7.287575
   22       -7.285032
   23       -7.197700
   24       -7.187017
   25       -6.226379
   26       -6.135705
   27       -6.135407
   28       -6.040812
   29       -3.367445
   30       -2.394917
   31       -2.393093
   32       -2.370462
   33       -2.350877
   34       -2.325486
   35       -2.322919
   36       -2.305725
   37       -2.303466
   38       -2.276508
   39       -2.256962
   40       -1.244998
   41       -1.211721
   42       -1.211564
   43       -1.201093
   44       -1.178185
   45        0.415314
   46        0.747106
   47        0.773444
   48        0.773866
   49        0.800149
   50        1.203193
   51        1.204994
   52        1.289855
   53        1.310262
   54        1.310347
   55        1.330818
   56        1.698336
   57        1.701221
   58        2.100205
   59        2.339305
   60        2.341080
   61        2.344878
   62        2.346633
   63        2.963393
   64        2.971881
   65        6.680126
   66        6.685163
   67        6.983426
   68        6.987985
   69        6.993408
   70        6.997539
   71        7.555197
   72        7.564655
   73        7.828139
   74        8.289958
   75        8.291929
   76        8.944130
   77        9.719256
   78       12.199419
   79       12.413205
   80       12.413976
   81       12.461332
   82       12.465012
   83       12.614233
   84       13.269593
 
  0.1111111E+00  0.2222222E+00  0.0000000E+00  0.6172840E-02
    1      -14.269086
    2      -14.103845
    3      -14.103360
    4      -13.925312
    5      -11.675782
    6      -11.535560
    7      -11.535097
    8      -11.385956
    9      -11.049995
   10      -10.916146
   11      -10.915743
   12      -10.773819
   13       -9.313429
   14       -9.211494
   15       -9.210775
   16       -9.108470
   17       -7.720629
   18       -7.643834
   19       -7.641150
   20       -7.553953
   21       -6.081964
   22       -5.995874
   23       -5.994272
   24       -5.904509
   25       -5.484333
   26       -5.400414
   27       -5.400029
   28       -5.312561
   29       -3.336973
   30       -3.281551
   31       -3.279557
   32       -3.221985
   33       -3.100343
   34       -2.145019
   35       -2.136254
   36       -2.134444
   37       -2.101512
   38       -2.099028
   39       -2.054312
   40       -1.328247
   41       -1.292183
   42       -1.292015
   43       -1.255458
   44       -0.954371
   45       -0.045156
   46        0.090763
   47        0.116941
   48        0.119626
   49        0.145029