  32  32   0   0
  0.3988355E+01  0.4934311E-09  0.4934311E-09  0.6053168E-09  0.5000000E-15
  1.000000000000000E-004
  CAR 
 graphite                                
     27.10011264    -13.22813661  301     17.56370422      1.00000000
    -13.228  0.0000E+00  0.0000E+00
    -13.094  0.0000E+00  0.0000E+00
    -12.959  0.0000E+00  0.0000E+00
    -12.825  0.0000E+00  0.0000E+00
    -12.690  0.0000E+00  0.0000E+00
    -12.556  0.0000E+00  0.0000E+00
    -12.422  0.0000E+00  0.0000E+00
    -12.287  0.0000E+00  0.0000E+00
    -12.153  0.0000E+00  0.0000E+00
    -12.018  0.0000E+00  0.0000E+00
    -11.884  0.0000E+00  0.0000E+00
    -11.749  0.0000E+00  0.0000E+00
    -11.615  0.0000E+00  0.0000E+00
    -11.481  0.0000E+00  0.0000E+00
    -11.346  0.0000E+00  0.0000E+00
    -11.212  0.7893E-02  0.4318E-04
    -11.077  0.3612E+00  0.2419E-01
    -10.943  0.6250E+00  0.9505E-01
    -10.808  0.7503E+00  0.1880E+00
    -10.674  0.8882E+00  0.2973E+00
    -10.540  0.1011E+01  0.4252E+00
    -10.405  0.1126E+01  0.5685E+00
    -10.271  0.1220E+01  0.7260E+00
    -10.136  0.1291E+01  0.8950E+00
    -10.002  0.1360E+01  0.1073E+01
     -9.867  0.1511E+01  0.1265E+01
     -9.733  0.1607E+01  0.1476E+01
     -9.599  0.1721E+01  0.1705E+01
     -9.464  0.1530E+01  0.1924E+01
     -9.330  0.1764E+01  0.2138E+01
     -9.195  0.2095E+01  0.2401E+01
     -9.061  0.2263E+01  0.2690E+01
     -8.926  0.2356E+01  0.3010E+01
     -8.792  0.1951E+01  0.3338E+01
     -8.658  0.1533E+01  0.3575E+01
     -8.523  0.1282E+01  0.3760E+01
     -8.389  0.1411E+01  0.3938E+01
     -8.254  0.2487E+01  0.4181E+01
     -8.120  0.2772E+01  0.4561E+01
     -7.985  0.2464E+01  0.4910E+01
     -7.851  0.2222E+01  0.5226E+01
     -7.717  0.2214E+01  0.5518E+01
     -7.582  0.2341E+01  0.5833E+01
     -7.448  0.2388E+01  0.6149E+01
     -7.313  0.2720E+01  0.6490E+01
     -7.179  0.3026E+01  0.6876E+01
     -7.044  0.3377E+01  0.7309E+01
     -6.910  0.3127E+01  0.7742E+01
     -6.776  0.2949E+01  0.8151E+01
     -6.641  0.2808E+01  0.8536E+01
     -6.507  0.2870E+01  0.8914E+01
     -6.372  0.2924E+01  0.9301E+01
     -6.238  0.3048E+01  0.9695E+01
     -6.103  0.3295E+01  0.1012E+02
     -5.969  0.3126E+01  0.1057E+02
     -5.835  0.3104E+01  0.1098E+02
     -5.700  0.3210E+01  0.1142E+02
     -5.566  0.2957E+01  0.1182E+02
     -5.431  0.3479E+01  0.1226E+02
     -5.297  0.3560E+01  0.1273E+02
     -5.162  0.3812E+01  0.1322E+02
     -5.028  0.4068E+01  0.1375E+02
     -4.894  0.3826E+01  0.1428E+02
     -4.759  0.3422E+01  0.1477E+02
     -4.625  0.2566E+01  0.1518E+02
     -4.490  0.2383E+01  0.1551E+02
     -4.356  0.2406E+01  0.1583E+02
     -4.221  0.2648E+01  0.1616E+02
     -4.087  0.3103E+01  0.1653E+02
     -3.953  0.3676E+01  0.1702E+02
     -3.818  0.3569E+01  0.1751E+02
     -3.684  0.3493E+01  0.1799E+02
     -3.549  0.3540E+01  0.1846E+02
     -3.415  0.3512E+01  0.1894E+02
     -3.281  0.3375E+01  0.1940E+02
     -3.146  0.3131E+01  0.1984E+02
     -3.012  0.2801E+01  0.2021E+02
     -2.877  0.3014E+01  0.2060E+02
     -2.743  0.3573E+01  0.2104E+02
     -2.608  0.4114E+01  0.2156E+02
     -2.474  0.4295E+01  0.2215E+02
     -2.340  0.4879E+01  0.2275E+02
     -2.205  0.4384E+01  0.2337E+02
     -2.071  0.4441E+01  0.2396E+02
     -1.936  0.4209E+01  0.2455E+02
     -1.802  0.3465E+01  0.2505E+02
     -1.667  0.3117E+01  0.2549E+02
     -1.533  0.3114E+01  0.2589E+02
     -1.399  0.3503E+01  0.2634E+02
     -1.264  0.3749E+01  0.2683E+02
     -1.130  0.4394E+01  0.2738E+02
     -0.995  0.5167E+01  0.2803E+02
     -0.861  0.5547E+01  0.2875E+02
     -0.726  0.5211E+01  0.2946E+02
     -0.592  0.5120E+01  0.3018E+02
     -0.458  0.4529E+01  0.3081E+02
     -0.323  0.4351E+01  0.3143E+02
     -0.189  0.4026E+01  0.3199E+02
     -0.054  0.3940E+01  0.3252E+02
      0.080  0.4221E+01  0.3307E+02
      0.215  0.4860E+01  0.3367E+02
      0.349  0.5881E+01  0.3441E+02
      0.483  0.5410E+01  0.3518E+02
      0.618  0.4556E+01  0.3585E+02
      0.752  0.3988E+01  0.3641E+02
      0.887  0.3863E+01  0.3693E+02
      1.021  0.5388E+01  0.3754E+02
      1.156  0.5817E+01  0.3831E+02
      1.290  0.5786E+01  0.3908E+02
      1.424  0.5329E+01  0.3983E+02
      1.559  0.5083E+01  0.4053E+02
      1.693  0.5264E+01  0.4121E+02
      1.828  0.5554E+01  0.4192E+02
      1.962  0.4792E+01  0.4265E+02
      2.097  0.4587E+01  0.4328E+02
      2.231  0.4653E+01  0.4389E+02
      2.365  0.4817E+01  0.4453E+02
      2.500  0.4700E+01  0.4517E+02
      2.634  0.5191E+01  0.4583E+02
      2.769  0.4929E+01  0.4651E+02
      2.903  0.4795E+01  0.4717E+02
      3.038  0.4630E+01  0.4780E+02
      3.172  0.5460E+01  0.4847E+02
      3.306  0.6361E+01  0.4925E+02
      3.441  0.6829E+01  0.5016E+02
      3.575  0.6744E+01  0.5105E+02
      3.710  0.6624E+01  0.5196E+02
      3.844  0.5612E+01  0.5278E+02
      3.979  0.5517E+01  0.5350E+02
      4.113  0.7116E+01  0.5437E+02
      4.247  0.7555E+01  0.5533E+02
      4.382  0.5711E+01  0.5617E+02
      4.516  0.5957E+01  0.5693E+02
      4.651  0.6441E+01  0.5778E+02
      4.785  0.5791E+01  0.5861E+02
      4.920  0.6065E+01  0.5939E+02
      5.054  0.6946E+01  0.6033E+02
      5.188  0.5331E+01  0.6111E+02
      5.323  0.6004E+01  0.6185E+02
      5.457  0.7830E+01  0.6277E+02
      5.592  0.8251E+01  0.6386E+02
      5.726  0.6587E+01  0.6485E+02
      5.861  0.6122E+01  0.6568E+02
      5.995  0.6898E+01  0.6654E+02
      6.129  0.7435E+01  0.6752E+02
      6.264  0.6852E+01  0.6852E+02
      6.398  0.6983E+01  0.6944E+02
      6.533  0.7391E+01  0.7043E+02
      6.667  0.7207E+01  0.7141E+02
      6.802  0.6519E+01  0.7232E+02
      6.936  0.6602E+01  0.7318E+02
      7.070  0.6717E+01  0.7409E+02
      7.205  0.6804E+01  0.7497E+02
      7.339  0.7141E+01  0.7600E+02
      7.474  0.6070E+01  0.7688E+02
      7.608  0.5192E+01  0.7763E+02
      7.743  0.4997E+01  0.7831E+02
      7.877  0.4885E+01  0.7897E+02
      8.011  0.4758E+01  0.7964E+02
      8.146  0.4770E+01  0.8028E+02
      8.280  0.4780E+01  0.8092E+02
      8.415  0.4907E+01  0.8157E+02
      8.549  0.5220E+01  0.8225E+02
      8.684  0.5638E+01  0.8298E+02
      8.818  0.5723E+01  0.8374E+02
      8.952  0.5959E+01  0.8454E+02
      9.087  0.5974E+01  0.8533E+02
      9.221  0.5990E+01  0.8613E+02
      9.356  0.5802E+01  0.8698E+02
      9.490  0.4812E+01  0.8768E+02
      9.625  0.4356E+01  0.8831E+02
      9.759  0.4256E+01  0.8886E+02
      9.893  0.4955E+01  0.8949E+02
     10.028  0.4805E+01  0.9015E+02
     10.162  0.4408E+01  0.9076E+02
     10.297  0.4688E+01  0.9137E+02
     10.431  0.5912E+01  0.9208E+02
     10.566  0.6777E+01  0.9295E+02
     10.700  0.5538E+01  0.9380E+02
     10.834  0.4366E+01  0.9444E+02
     10.969  0.5038E+01  0.9504E+02
     11.103  0.5605E+01  0.9576E+02
     11.238  0.6477E+01  0.9660E+02
     11.372  0.6270E+01  0.9747E+02
     11.507  0.5828E+01  0.9829E+02
     11.641  0.5428E+01  0.9904E+02
     11.775  0.6295E+01  0.9980E+02
     11.910  0.5149E+01  0.1007E+03
     12.044  0.5533E+01  0.1013E+03
     12.179  0.7686E+01  0.1022E+03
     12.313  0.6085E+01  0.1032E+03
     12.448  0.7385E+01  0.1042E+03
     12.582  0.6597E+01  0.1052E+03
     12.716  0.5198E+01  0.1059E+03
     12.851  0.4285E+01  0.1066E+03
     12.985  0.3924E+01  0.1071E+03
     13.120  0.3734E+01  0.1077E+03
     13.254  0.3590E+01  0.1081E+03
     13.389  0.3436E+01  0.1086E+03
     13.523  0.3144E+01  0.1091E+03
     13.657  0.2924E+01  0.1095E+03
     13.792  0.2421E+01  0.1098E+03
     13.926  0.2395E+01  0.1101E+03
     14.061  0.2534E+01  0.1105E+03
     14.195  0.2531E+01  0.1108E+03
     14.330  0.2914E+01  0.1112E+03
     14.464  0.2992E+01  0.1116E+03
     14.598  0.2905E+01  0.1120E+03
     14.733  0.3014E+01  0.1124E+03
     14.867  0.3361E+01  0.1128E+03
     15.002  0.3647E+01  0.1133E+03
     15.136  0.4060E+01  0.1138E+03
     15.270  0.4746E+01  0.1144E+03
     15.405  0.5029E+01  0.1150E+03
     15.539  0.5380E+01  0.1157E+03
     15.674  0.5671E+01  0.1165E+03
     15.808  0.6337E+01  0.1173E+03
     15.943  0.6962E+01  0.1182E+03
     16.077  0.8013E+01  0.1192E+03
     16.211  0.7516E+01  0.1202E+03
     16.346  0.6721E+01  0.1212E+03
     16.480  0.5551E+01  0.1220E+03
     16.615  0.5652E+01  0.1227E+03
     16.749  0.5357E+01  0.1235E+03
     16.884  0.4522E+01  0.1242E+03
     17.018  0.4487E+01  0.1248E+03
     17.152  0.4664E+01  0.1254E+03
     17.287  0.5442E+01  0.1261E+03
     17.421  0.7051E+01  0.1269E+03
     17.556  0.7499E+01  0.1279E+03
     17.690  0.8042E+01  0.1289E+03
     17.825  0.8968E+01  0.1301E+03
     17.959  0.9841E+01  0.1313E+03
     18.093  0.1058E+02  0.1328E+03
     18.228  0.1014E+02  0.1341E+03
     18.362  0.1293E+02  0.1358E+03
     18.497  0.1570E+02  0.1378E+03
     18.631  0.1070E+02  0.1396E+03
     18.766  0.7460E+01  0.1408E+03
     18.900  0.8526E+01  0.1418E+03
     19.034  0.8762E+01  0.1430E+03
     19.169  0.9686E+01  0.1443E+03
     19.303  0.8413E+01  0.1454E+03
     19.438  0.7537E+01  0.1465E+03
     19.572  0.6839E+01  0.1475E+03
     19.707  0.6667E+01  0.1484E+03
     19.841  0.6310E+01  0.1493E+03
     19.975  0.6324E+01  0.1501E+03
     20.110  0.6139E+01  0.1509E+03
     20.244  0.8626E+01  0.1519E+03
     20.379  0.6389E+01  0.1530E+03
     20.513  0.5135E+01  0.1537E+03
     20.648  0.5105E+01  0.1544E+03
     20.782  0.5594E+01  0.1551E+03
     20.916  0.3956E+01  0.1558E+03
     21.051  0.4045E+01  0.1563E+03
     21.185  0.3857E+01  0.1568E+03
     21.320  0.3553E+01  0.1573E+03
     21.454  0.5586E+01  0.1579E+03
     21.589  0.4805E+01  0.1586E+03
     21.723  0.4266E+01  0.1592E+03
     21.857  0.4123E+01  0.1598E+03
     21.992  0.4372E+01  0.1604E+03
     22.126  0.3960E+01  0.1610E+03
     22.261  0.3438E+01  0.1615E+03
     22.395  0.3089E+01  0.1619E+03
     22.530  0.2922E+01  0.1623E+03
     22.664  0.2769E+01  0.1627E+03
     22.798  0.2469E+01  0.1630E+03
     22.933  0.2395E+01  0.1634E+03
     23.067  0.2704E+01  0.1637E+03
     23.202  0.2731E+01  0.1641E+03
     23.336  0.2487E+01  0.1644E+03
     23.471  0.3071E+01  0.1648E+03
     23.605  0.2997E+01  0.1652E+03
     23.739  0.2990E+01  0.1656E+03
     23.874  0.2809E+01  0.1660E+03
     24.008  0.2618E+01  0.1664E+03
     24.143  0.2711E+01  0.1667E+03
     24.277  0.2657E+01  0.1671E+03
     24.412  0.1881E+01  0.1674E+03
     24.546  0.1582E+01  0.1676E+03
     24.680  0.1237E+01  0.1678E+03
     24.815  0.6658E+00  0.1680E+03
     24.949  0.5922E-01  0.1680E+03
     25.084  0.6853E-04  0.1680E+03
     25.218  0.0000E+00  0.1680E+03
     25.353  0.0000E+00  0.1680E+03
     25.487  0.0000E+00  0.1680E+03
     25.621  0.0000E+00  0.1680E+03
     25.756  0.0000E+00  0.1680E+03
     25.890  0.0000E+00  0.1680E+03
     26.025  0.0000E+00  0.1680E+03
     26.159  0.0000E+00  0.1680E+03
     26.294  0.0000E+00  0.1680E+03
     26.428  0.0000E+00  0.1680E+03
     26.562  0.0000E+00  0.1680E+03
     26.697  0.0000E+00  0.1680E+03
     26.831  0.0000E+00  0.1680E+03
     26.966  0.0000E+00  0.1680E+03
     27.100  0.0000E+00  0.1680E+03
