   32   32    1    1
  0.3988355E+01  0.4934311E-09  0.4934311E-09  0.6053168E-09  0.5000000E-15
  1.000000000000000E-004
  CAR 
 graphite                                
    128    163     84
 
  0.0000000E+00  0.0000000E+00  0.0000000E+00  0.3086420E-02
    1      -11.228137
    2       -8.000587
    3       -7.990753
    4       -5.639271
    5       -5.634663
    6       -5.629706
    7       -4.116821
    8       -4.111902
    9       -4.106614
   10       -2.628623
   11       -2.622539
   12       -2.618316
   13       -2.617262
   14       -2.613298
   15       -2.607225
   16       -0.726410
   17       -0.717789
   18       -0.714933
   19       -0.714289
   20       -0.711783
   21       -0.702266
   22        0.054474
   23        3.319924
   24        4.143682
   25        4.146842
   26        4.151725
   27        4.710060
   28        4.714297
   29        4.718539
   30        7.044472
   31        7.047563
   32        7.050821
   33        7.254762
   34        7.262135
   35        7.265647
   36        7.266248
   37        7.268703
   38        7.277097
   39        7.878531
   40        7.883314
   41        7.889188
   42        8.746408
   43        8.763714
   44       10.871491
   45       10.879009
   46       10.886450
   47       10.895554
   48       10.905653
   49       10.910491
   50       10.922003
   51       12.207384
   52       12.212445
   53       12.218841
   54       12.280354
   55       12.286069
   56       15.332984
   57       15.338210
   58       15.339075
   59       15.339917
   60       15.340162
   61       15.345738
   62       15.600245
   63       15.607983
   64       15.614226
   65       15.702905
   66       15.710767
   67       19.160668
   68       19.163450
   69       19.165954
   70       19.167591
   71       19.170004
   72       19.172871
   73       19.270665
   74       19.272998
   75       19.278949
   76       20.188587
   77       20.434356
   78       20.443413
   79       20.761571
   80       21.396251
   81       21.413410
   82       21.415446
   83       21.432247
   84       22.121851
 
  0.1111111E+00  0.2081668E-16  0.0000000E+00  0.6172840E-02
    1      -11.149308
    2       -7.921653
    3       -7.911819
    4       -6.375503
    5       -5.831482
    6       -5.825992
    7       -3.779730
    8       -3.773980
    9       -3.259772
   10       -3.250003
   11       -3.233443
   12       -2.775315
   13       -2.767988
   14       -2.763507
   15       -2.759102
   16       -0.440455
   17       -0.431038
   18       -0.428329
   19       -0.424153
   20        0.046309
   21        0.055707
   22        0.139090
   23        3.373469
   24        3.762199
   25        3.767791
   26        4.226935
   27        4.415037
   28        4.676341
   29        4.681943
   30        6.567109
   31        6.905204
   32        6.910029
   33        6.912949
   34        6.921578
   35        6.981435
   36        6.984534
   37        7.333364
   38        7.342978
   39        8.099716
   40        8.106348
   41        8.221718
   42        8.407108
   43        8.435722
   44       10.499583
   45       10.508961
   46       10.720408
   47       10.729944
   48       11.046916
   49       11.056668
   50       11.309637
   51       12.091014
   52       12.098849
   53       12.259399
   54       12.326292
   55       12.490211
   56       15.384591
   57       15.388460
   58       15.697621
   59       15.700424
   60       15.703295
   61       15.708715
   62       15.713044
   63       15.819564
   64       15.827424
   65       16.068963
   66       16.078547
   67       18.918769
   68       18.925079
   69       19.090011
   70       19.097000
   71       19.154143
   72       19.158317
   73       19.161292
   74       19.164387
   75       19.349418
   76       19.746089
   77       19.749961
   78       19.950345
   79       20.888352
   80       21.753540
   81       21.770168
   82       21.848549
   83       22.135602
   84       22.252030
 
  0.2222222E+00  0.5551115E-16  0.0000000E+00  0.6172840E-02
    1      -10.913096
    2       -7.686674
    3       -7.676813
    4       -7.444776
    5       -6.160685
    6       -6.156193
    7       -4.271727
    8       -4.261915
    9       -3.053393
   10       -3.047434
   11       -3.042056
   12       -3.038760
   13       -3.027271
   14       -3.023094
   15       -1.762154
   16        0.242097
   17        0.250240
   18        0.253492
   19        0.257831
   20        0.390825
   21        1.434582
   22        1.443961
   23        2.832211
   24        2.837601
   25        3.532470
   26        3.710840
   27        4.472897
   28        4.589433
   29        4.594695
   30        5.876138
   31        6.022767
   32        6.027395
   33        6.030756
   34        6.038512
   35        6.833312
   36        6.836431
   37        6.912396
   38        7.557592
   39        7.567425
   40        7.722570
   41        8.618340
   42        8.624476
   43        9.210988
   44        9.430592
   45        9.439762
   46       10.256931
   47       10.266434
   48       11.535474
   49       11.545101
   50       11.750751
   51       11.758344
   52       12.264130
   53       12.386938
   54       12.403730
   55       12.861326
   56       15.525536
   57       15.529134
   58       16.023802
   59       16.058276
   60       16.066435
   61       16.574860
   62       16.576004
   63       16.578377
   64       16.582373
   65       17.335161
   66       17.344845
   67       18.027980
   68       18.034847
   69       18.890911
   70       18.898541
   71       18.948757
   72       18.954953
   73       19.136165
   74       19.139765
   75       19.143306
   76       19.146259
   77       19.269719
   78       19.584825
   79       20.326327
   80       22.275914
   81       22.359374
   82       22.570056
   83       22.705564
   84       22.722027
 
  0.3333333E+00  0.2775558E-16  0.0000000E+00  0.6172840E-02
    1      -10.520367
    2       -8.426367
    3       -7.296318
    4       -7.286501
    5       -6.420619
    6       -6.416557
    7       -5.227387
    8       -5.217571
    9       -3.284969
   10       -3.279883
   11       -3.274326
   12       -3.270434
   13       -2.090921
   14       -2.086076
   15       -0.120427
   16        0.804920
   17        1.116658
   18        1.124214
   19        1.127592
   20        1.132086
   21        1.681846
   22        1.686952
   23        2.878973
   24        3.003072
   25        3.012285
   26        3.785644
   27        4.496235
   28        4.501741
   29        4.877408
   30        4.924236
   31        4.928464
   32        4.932449
   33        4.939096
   34        5.233554
   35        5.261771
   36        6.688828
   37        6.691852
   38        6.901330
   39        7.923283
   40        7.932866
   41        7.977865
   42        7.986824
   43        9.258429
   44        9.264680
   45        9.644581
   46        9.653967
   47       10.023240
   48       11.239570
   49       11.246750
   50       11.959347
   51       12.226714
   52       12.236224
   53       12.618647
   54       13.072405
   55       13.806454
   56       15.744009
   57       15.747433
   58       16.233818
   59       16.241763
   60       16.551920
   61       16.945231
   62       16.952584
   63       17.536497
   64       17.538433
   65       17.541310
   66       17.544693
   67       18.216017
   68       18.417185
   69       18.426507
   70       18.621067
   71       18.628927
   72       19.116741
   73       19.119448
   74       19.123771
   75       19.125135
   76       19.161048
   77       19.169444
   78       19.261972
   79       19.974361
   80       21.902612
   81       23.059949
   82       23.451962
   83       24.119854
   84       24.135406
 
  0.4444444E+00  0.1110223E-15  0.0000000E+00  0.6172840E-02
    1       -9.972662
    2       -9.272651
    3       -6.752993
    4       -6.743200
    5       -6.557329
    6       -6.553399
    7       -6.060674
    8       -6.050848
    9       -3.410302
   10       -3.405519
   11       -3.399810
   12       -3.395988
   13       -1.129269
   14       -1.124412
   15        0.587860
   16        0.592407
   17        1.372384
   18        1.621272
   19        1.979558
   20        1.987901
   21        1.991216
   22        1.994914
   23        2.075747
   24        3.387560
   25        3.923456
   26        3.926854
   27        3.931812
   28        3.937277
   29        4.238618
   30        4.438992
   31        4.444344
   32        4.660237
   33        4.668126
   34        4.675668
   35        5.431072
   36        6.116244
   37        6.345514
   38        6.354483
   39        6.606082
   40        6.608992
   41        8.414561
   42        8.424152
   43        9.004265
   44        9.013619
   45        9.938028
   46        9.944475
   47       10.619864
   48       10.626511
   49       10.783226
   50       11.445183
   51       12.855909
   52       12.857780
   53       12.865864
   54       13.044685
   55       15.354820
   56       16.001660
   57       16.005650
   58       16.088290
   59       16.096029
   60       16.209551
   61       16.216353
   62       16.872522
   63       17.287672
   64       18.168718
   65       18.171622
   66       18.175626
   67       18.180523
   68       18.208699
   69       18.239660
   70       18.248967
   71       18.361805
   72       18.370457
   73       19.107983
   74       19.109737
   75       19.113055
   76       19.114089
   77       20.510976
   78       21.173888
   79       21.343107
   80       21.352607
   81       23.751061
   82       23.760753
   83       24.290836
   84       24.894069
 
  0.8470329E-21  0.1111111E+00  0.0000000E+00  0.6172840E-02
    1      -11.149310
    2       -7.921652
    3       -7.911819
    4       -6.375224
    5       -5.831181
    6       -5.826933
    7       -3.779388
    8       -3.772442
    9       -3.259252
   10       -3.249451
   11       -3.235220
   12       -2.773875
   13       -2.769859
   14       -2.763953
   15       -2.759739
   16       -0.438732
   17       -0.430784
   18       -0.429167
   19       -0.421098
   20        0.044666
   21        0.053951
   22        0.139066
   23        3.373481
   24        3.760538
   25        3.767651
   26        4.228864
   27        4.416495
   28        4.676324
   29        4.680252
   30        6.565705
   31        6.902394
   32        6.910672
   33        6.912219
   34        6.920321
   35        6.981195
   36        6.987003
   37        7.336040
   38        7.344750
   39        8.100487
   40        8.105344
   41        8.216788
   42        8.405667
   43        8.441112
   44       10.497592
   45       10.501280
   46       10.728420
   47       10.731964
   48       11.048228
   49       11.059478
   50       11.305936
   51       12.089014
   52       12.097942
   53       12.262354
   54       12.324227
   55       12.492563
   56       15.385094
   57       15.387922
   58       15.697350
   59       15.700484
   60       15.703791
   61       15.707489
   62       15.715414
   63       15.819312
   64       15.827185
   65       16.068883
   66       16.077089
   67       18.916186
   68       18.925304
   69       19.091584
   70       19.096093
   71       19.154893
   72       19.156478
   73       19.162128
   74       19.164020
   75       19.351561
   76       19.748657
   77       19.751293
   78       19.950101
   79       20.888826
   80       21.749459
   81       21.761659
   82       21.850627
   83       22.132028
   84       22.259468
 
  0.1111111E+00  0.1111111E+00  0.0000000E+00  0.6172840E-02
    1      -10.991781
    2       -7.764665
    3       -7.754828
    4       -6.862094
    5       -6.855352
    6       -5.428816
    7       -3.888808
    8       -3.713158
    9       -3.705907
   10       -3.703896
   11       -3.694718
   12       -2.480946
   13       -2.474391
   14       -2.424140
   15       -2.413746
   16       -0.502454
   17       -0.493175
   18        0.306862
   19        0.751540
   20        0.758387
   21        0.759545
   22        0.770114
   23        2.756470
   24        3.479757
   25        3.921431
   26        3.924531
   27        4.138865
   28        4.145045
   29        4.878095
   30        5.947562
   31        5.957057
   32        6.296706
   33        6.302281
   34        7.052935
   35        7.060680
   36        7.065363
   37        7.067649
   38        7.389278
   39        7.402326
   40        7.835625
   41        8.000676
   42        8.874704
   43        8.881001
   44        9.808884
   45        9.818043
   46       10.348982
   47       10.358411
   48       11.136452
   49       11.707771
   50       11.836039
   51       11.843657
   52       12.185977
   53       12.191834
   54       12.405630
   55       12.684257
   56       15.785570
   57       15.791167
   58       15.792360
   59       15.793354
   60       16.004633
   61       16.012675
   62       16.266437
   63       16.275089
   64       16.544133
   65       16.547797
   66       17.251441
   67       17.937649
   68       19.014314
   69       19.019050
   70       19.020735
   71       19.026604
   72       19.082180
   73       19.087236
   74       19.164028
   75       19.167943
   76       19.207806
   77       19.214919
   78       19.495750
   79       20.910299
   80       21.283213
   81       22.290894
   82       22.305163
   83       22.691711
   84       22.710179
 
  0.2222222E+00  0.1111111E+00  0.0000000E+00  0.6172840E-02
    1      -10.677258
    2       -7.894276
    3       -7.451980
    4       -7.442172
    5       -7.220198
    6       -5.412606
    7       -4.707239
    8       -4.697428
    9       -4.052169
   10       -4.042336
   11       -3.340782
   12       -2.372348
   13       -2.362437
   14       -1.574784
   15       -0.912325
   16       -0.011868
   17       -0.002552
   18        0.640128
   19        1.516941
   20        1.608964
   21        1.618004
   22        2.244611
   23        2.253898
   24        3.073344
   25        3.350976
   26        3.688399
   27        3.909162
   28        4.237511
   29        4.752984
   30        4.762520
   31        4.992008
   32        5.627586
   33        6.018713
   34        6.116400
   35        6.261829
   36        6.270600
   37        6.970097
   38        7.357125
   39        7.366531
   40        7.438713
   41        8.407725
   42        8.630013
   43        8.639673
   44        9.489499
   45        9.715524
   46        9.719566
   47        9.726100
   48       11.150738
   49       11.557573
   50       11.892686
   51       12.295877
   52       12.370006
   53       12.557085
   54       12.886049
   55       13.104686
   56       15.955018
   57       15.958451
   58       16.254096
   59       16.262100
   60       16.665561
   61       16.668283
   62       16.677448
   63       16.706599
   64       17.520704
   65       17.524519
   66       17.613583
   67       18.320786
   68       18.624898
   69       18.630947
   70       18.652606
   71       18.776260
   72       18.783991
   73       18.947720
   74       18.953181
   75       18.999666
   76       19.251217
   77       19.257621
   78       19.416677
   79       20.104364
   80       21.472640
   81       22.105680
   82       23.200685
   83       23.213023
   84       23.846132
 
  0.3333333E+00  0.1111111E+00  0.0000000E+00  0.6172840E-02
    1      -10.207031
    2       -8.809600
    3       -7.441442
    4       -6.985082
    5       -6.975262
    6       -5.603916
    7       -5.594133
    8       -5.524837
    9       -4.263932
   10       -4.254107
   11       -2.445447
   12       -2.435991
   13       -2.428402
   14       -0.593978
   15        0.260588
   16        0.775752
   17        0.811229
   18        0.820475
   19        1.131543
   20        2.027784
   21        2.517807
   22        2.525300
   23        2.527606
   24        3.557613
   25        3.567078
   26        3.755092
   27        3.852944
   28        3.862013
   29        3.933518
   30        4.411873
   31        4.646605
   32        5.039152
   33        5.088888
   34        5.287844
   35        5.296699
   36        5.992001
   37        6.132386
   38        7.141757
   39        7.151026
   40        7.344829
   41        7.798058
   42        7.807384
   43        9.017968
   44        9.028052
   45        9.063421
   46       10.155281
   47       10.488087
   48       10.536156
   49       11.417610
   50       11.884923
   51       12.193008
   52       12.602998
   53       12.950398
   54       13.294063
   55       14.583249
   56       15.536736
   57       16.168714
   58       16.172593
   59       16.407897
   60       16.415414
   61       17.282536
   62       17.454869
   63       17.492382
   64       17.542564
   65       17.546163
   66       18.270854
   67       18.274021
   68       18.314542
   69       18.322751
   70       18.503891
   71       18.512340
   72       18.891317
   73       18.896823
   74       19.048899
   75       19.302271
   76       19.307260
   77       19.497832
   78       19.914686
   79       21.116586
   80       21.334023
   81       22.368199
   82       24.195802
   83       24.362911
   84       24.372333
 
  0.4444444E+00  0.1111111E+00  0.0000000E+00  0.6172840E-02
    1       -9.586218
    2       -9.580025
    3       -7.515674
    4       -6.371845
    5       -6.362851
    6       -6.360876
    7       -6.353462
    8       -5.574646
    9       -4.335405
   10       -4.325576
   11       -2.483032
   12       -2.473234
   13       -1.708675
   14       -0.569465
   15        0.082577
   16        1.315480
   17        1.421217
   18        1.430003
   19        1.764432
   20        1.771359
   21        2.529182
   22        2.532643
   23        2.829003
   24        2.838153
   25        3.085099
   26        3.093594
   27        3.701497
   28        4.441375
   29        4.446917
   30        4.685669
   31        4.694782
   32        5.050395
   33        5.397796
   34        5.406340
   35        5.510095
   36        5.510688
   37        5.515470
   38        5.524449
   39        5.947944
   40        7.306347
   41        8.353158
   42        8.368862
   43        8.369355
   44        8.373920
   45        9.770355
   46        9.779841
   47       10.732287
   48       10.903390
   49       11.272179
   50       11.278398
   51       12.602525
   52       12.822629
   53       12.831091
   54       13.660283
   55       14.943994
   56       16.092658
   57       16.098707
   58       16.356623
   59       16.360710
   60       16.363086
   61       16.370454
   62       17.030186
   63       17.922066
   64       17.927417
   65       18.080939
   66       18.088064
   67       18.295718
   68       18.306403
   69       18.309818
   70       18.311990
   71       18.538227
   72       18.541107
   73       18.864970
   74       18.868881
   75       19.341089
   76       19.345224
   77       20.563317
   78       20.571166
   79       21.675375
   80       21.799656
   81       23.370582
   82       23.557736
   83       23.732684
   84       23.744258
 
 -0.4444444E+00  0.1111111E+00  0.0000000E+00  0.6172840E-02
    1      -10.207136
    2       -8.809440
    3       -7.441644
    4       -6.985168
    5       -6.975325
    6       -5.603820
    7       -5.594141
    8       -5.524692
    9       -4.264079
   10       -4.254241
   11       -2.445356
   12       -2.435566
   13       -2.425919
   14       -0.597204
   15        0.257164
   16        0.775498
   17        0.814698
   18        0.823944
   19        1.131557
   20        2.031545
   21        2.514585
   22        2.524139
   23        2.525559
   24        3.554325
   25        3.563266
   26        3.755415
   27        3.853043
   28        3.862331
   29        3.933555
   30        4.410837
   31        4.645960
   32        5.038445
   33        5.090654
   34        5.291199
   35        5.300932
   36        5.991704
   37        6.132180
   38        7.140754
   39        7.148800
   40        7.345325
   41        7.797879
   42        7.807441
   43        9.020456
   44        9.028835
   45        9.066765
   46       10.150790
   47       10.483621
   48       10.533877
   49       11.423114
   50       11.887937
   51       12.198335
   52       12.603300
   53       12.949980
   54       13.290065
   55       14.584230
   56       15.532044
   57       16.168392
   58       16.172116
   59       16.407360
   60       16.415072
   61       17.282746
   62       17.458297
   63       17.491267
   64       17.544012
   65       17.547981
   66       18.269388
   67       18.271586
   68       18.317343
   69       18.325778
   70       18.503363
   71       18.511079
   72       18.891544
   73       18.896627
   74       19.048168
   75       19.303193
   76       19.307620
   77       19.504420
   78       19.913868
   79       21.109331
   80       21.335276
   81       22.373935
   82       24.188302
   83       24.365965
   84       24.372551
 
 -0.3333333E+00  0.1111111E+00  0.0000000E+00  0.6172840E-02
    1      -10.677334
    2       -7.894086
    3       -7.452061
    4       -7.442280
    5       -7.220478
    6       -5.412861
    7       -4.707067
    8       -4.697249
    9       -4.052444
   10       -4.042596
   11       -3.337131
   12       -2.372635
   13       -2.362827
   14       -1.578078
   15       -0.912479
   16       -0.007977
   17        0.001292
   18        0.640137
   19        1.513049
   20        1.605467
   21        1.614669
   22        2.244554
   23        2.253885
   24        3.077667
   25        3.350921
   26        3.688353
   27        3.909903
   28        4.237633
   29        4.749100
   30        4.758067
   31        4.990668
   32        5.628573
   33        6.015806
   34        6.115820
   35        6.266078
   36        6.275739
   37        6.971853
   38        7.357104
   39        7.366629
   40        7.439766
   41        8.410540
   42        8.627951
   43        8.634520
   44        9.485502
   45        9.715140
   46        9.723922
   47        9.728062
   48       11.145642
   49       11.564468
   50       11.898559
   51       12.298860
   52       12.370163
   53       12.551388
   54       12.885828
   55       13.105371
   56       15.954630
   57       15.958023
   58       16.253284
   59       16.261366
   60       16.666750
   61       16.672611
   62       16.676915
   63       16.701232
   64       17.519400
   65       17.519940
   66       17.619969
   67       18.325945
   68       18.629236
   69       18.634296
   70       18.651209
   71       18.776100
   72       18.783182
   73       18.946231
   74       18.953880
   75       18.993591
   76       19.252982
   77       19.256920
   78       19.416115
   79       20.103622
   80       21.477331
   81       22.106853
   82       23.202221
   83       23.208604
   84       23.840111
 
 -0.2222222E+00  0.1111111E+00  0.0000000E+00  0.6172840E-02
    1      -10.991826
    2       -7.764708
    3       -7.754875
    4       -6.859087
    5       -6.858591
    6       -5.429250
    7       -3.884953
    8       -3.711797
    9       -3.707002
   10       -3.702119
   11       -3.697024
   12       -2.481416
   13       -2.477000
   14       -2.424465
   15       -2.414665
   16       -0.498383
   17       -0.489100
   18        0.306860
   19        0.749742
   20        0.757155
   21        0.758929
   22        0.766715
   23        2.752303
   24        3.479753
   25        3.922207
   26        3.928571
   27        4.141244
   28        4.143749
   29        4.876368
   30        5.943276
   31        5.952144
   32        6.297684
   33        6.301073
   34        7.055346
   35        7.063496
   36        7.065006
   37        7.073007
   38        7.381993
   39        7.404627
   40        7.842395
   41        8.002232
   42        8.874197
   43        8.876966
   44        9.804258
   45        9.807834
   46       10.359746
   47       10.363111
   48       11.143851
   49       11.702238
   50       11.831468
   51       11.842130
   52       12.187556
   53       12.196456
   54       12.405462
   55       12.686448
   56       15.788068
   57       15.791570
   58       15.792242
   59       15.796015
   60       16.003941
   61       16.011878
   62       16.269980
   63       16.277678
   64       16.541724
   65       16.543441
   66       17.244848
   67       17.931672
   68       19.014298
   69       19.018671
   70       19.021601
   71       19.025646
   72       19.083191
   73       19.091540
   74       19.170170
   75       19.170986
   76       19.209874
   77       19.213782
   78       19.494681
   79       20.912886
   80       21.283749
   81       22.288469
   82       22.295825
   83       22.685895
   84       22.710942
 
 -0.1111111E+00  0.1111111E+00  0.0000000E+00  0.6172840E-02
    1      -11.149325
    2       -7.921666
    3       -7.911834
    4       -6.375604
    5       -5.831732
    6       -5.826176
    7       -3.776854
    8       -3.771706
    9       -3.259616
   10       -3.249871
   11       -3.237922
   12       -2.774295
   13       -2.769680
   14       -2.765363
   15       -2.758192
   16       -0.434333
   17       -0.431508
   18       -0.427988
   19       -0.418613
   20        0.041144
   21        0.050496
   22        0.139082
   23        3.373458
   24        3.760120
   25        3.763593
   26        4.233740
   27        4.418066
   28        4.674528
   29        4.680202
   30        6.563679
   31        6.900482
   32        6.907874
   33        6.912601
   34        6.914768
   35        6.984025
   36        6.987534
   37        7.340728
   38        7.350368
   39        8.099969
   40        8.106484
   41        8.208421
   42        8.403813
   43        8.449010
   44       10.486922
   45       10.496549
   46       10.733109
   47       10.743082
   48       11.053420
   49       11.061911
   50       11.298792
   51       12.087774
   52       12.093380
   53       12.268458
   54       12.320627
   55       12.496703
   56       15.387718
   57       15.391665
   58       15.696905
   59       15.700331
   60       15.702911
   61       15.704176
   62       15.719319
   63       15.818964
   64       15.826837
   65       16.065672
   66       16.074066
   67       18.916146
   68       18.919223
   69       19.090096
   70       19.097554
   71       19.154954
   72       19.157755
   73       19.160448
   74       19.164432
   75       19.357522
   76       19.751443
   77       19.755382
   78       19.949715
   79       20.890766
   80       21.738887
   81       21.756337
   82       21.850481
   83       22.128573
   84       22.260151
 
  0.0000000E+00  0.2222222E+00  0.0000000E+00  0.6172840E-02
    1      -10.913101
    2       -7.686636
    3       -7.676803
    4       -7.444794
    5       -6.161290
    6       -6.155884
    7       -4.271588
    8       -4.261788
    9       -3.053371
   10       -3.047456
   11       -3.042646
   12       -3.038360
   13       -3.028634
   14       -3.020834
   15       -1.763473
   16        0.242796
   17        0.251138
   18        0.252779
   19        0.260973
   20        0.390899
   21        1.433159
   22        1.442315
   23        2.830295
   24        2.837848
   25        3.532474
   26        3.711827
   27        4.474918
   28        4.589019
   29        4.593455
   30        5.875129
   31        6.019746
   32        6.027971
   33        6.029612
   34        6.037789
   35        6.832980
   36        6.839130
   37        6.908573
   38        7.560637
   39        7.569221
   40        7.726316
   41        8.617758
   42        8.624259
   43        9.209481
   44        9.428589
   45        9.434091
   46       10.263324
   47       10.268591
   48       11.537376
   49       11.547857
   50       11.748803
   51       11.757632
   52       12.261418
   53       12.383701
   54       12.406970
   55       12.864688
   56       15.526168
   57       15.528397
   58       16.025432
   59       16.057666
   60       16.065698
   61       16.572517
   62       16.577408
   63       16.578231
   64       16.582978
   65       17.334673
   66       17.343921
   67       18.024517
   68       18.035267
   69       18.892633
   70       18.898055
   71       18.950988
   72       18.957171
   73       19.136411
   74       19.137985
   75       19.144212
   76       19.145965
   77       19.268905
   78       19.586905
   79       20.327918
   80       22.275849
   81       22.355229
   82       22.570657
   83       22.702096
   84       22.714365
 
  0.1111111E+00  0.2222222E+00  0.0000000E+00  0.6172840E-02
    1      -10.677262
    2       -7.894243
    3       -7.452054
    4       -7.442195
    5       -7.220181
    6       -5.412648
    7       -4.707151
    8       -4.697352
    9       -4.052302
   10       -4.042469
   11       -3.340684
   12       -2.372386
   13       -2.362489
   14       -1.573334
   15       -0.913738
   16       -0.011670
   17       -0.002366
   18        0.640165
   19        1.516856
   20        1.610612
   21        1.619918
   22        2.243071
   23        2.252092
   24        3.071620
   25        3.351808
   26        3.688417
   27        3.908127
   28        4.239524
   29        4.752851
   30        4.762340
   31        4.991835
   32        5.626499
   33        6.016350
   34        6.117646
   35        6.259318
   36        6.268650
   37        6.972638
   38        7.359862
   39        7.368399
   40        7.439811
   41        8.406510
   42        8.629489
   43        8.636560
   44        9.490222
   45        9.714223
   46        9.722389
   47        9.727547
   48       11.150790
   49       11.558141