  32  32   0   0
  0.5760957E+01  0.4934311E-09  0.4934311E-09  0.8743465E-09  0.5000000E-15
  1.000000000000000E-004
  CAR 
 graphite                                
     20.72881233    -13.63791978  301      9.74952861      1.00000000
    -13.638  0.0000E+00  0.0000E+00
    -13.523  0.0000E+00  0.0000E+00
    -13.409  0.0000E+00  0.0000E+00
    -13.294  0.0000E+00  0.0000E+00
    -13.180  0.0000E+00  0.0000E+00
    -13.065  0.0000E+00  0.0000E+00
    -12.951  0.0000E+00  0.0000E+00
    -12.836  0.0000E+00  0.0000E+00
    -12.721  0.0000E+00  0.0000E+00
    -12.607  0.1579E-14  0.1809E-15
    -12.492  0.1038E-09  0.1189E-10
    -12.378  0.5385E-06  0.6170E-07
    -12.263  0.2493E-03  0.2863E-04
    -12.149  0.1464E-01  0.1705E-02
    -12.034  0.1741E+00  0.2165E-01
    -11.920  0.5694E+00  0.8689E-01
    -11.805  0.8345E+00  0.1825E+00
    -11.690  0.1151E+01  0.3143E+00
    -11.576  0.1186E+01  0.4502E+00
    -11.461  0.1554E+01  0.6282E+00
    -11.347  0.1712E+01  0.8243E+00
    -11.232  0.1281E+01  0.9711E+00
    -11.118  0.1954E+01  0.1195E+01
    -11.003  0.2552E+01  0.1487E+01
    -10.889  0.1889E+01  0.1704E+01
    -10.774  0.1637E+01  0.1891E+01
    -10.659  0.2562E+01  0.2185E+01
    -10.545  0.2407E+01  0.2460E+01
    -10.430  0.2676E+01  0.2767E+01
    -10.316  0.2883E+01  0.3097E+01
    -10.201  0.2585E+01  0.3393E+01
    -10.087  0.2607E+01  0.3692E+01
     -9.972  0.2454E+01  0.3973E+01
     -9.858  0.2780E+01  0.4292E+01
     -9.743  0.3685E+01  0.4714E+01
     -9.628  0.4341E+01  0.5211E+01
     -9.514  0.2891E+01  0.5542E+01
     -9.399  0.2098E+01  0.5783E+01
     -9.285  0.3055E+01  0.6133E+01
     -9.170  0.4033E+01  0.6595E+01
     -9.056  0.4320E+01  0.7089E+01
     -8.941  0.4376E+01  0.7591E+01
     -8.827  0.3671E+01  0.8011E+01
     -8.712  0.3349E+01  0.8395E+01
     -8.597  0.3410E+01  0.8785E+01
     -8.483  0.4157E+01  0.9262E+01
     -8.368  0.5108E+01  0.9847E+01
     -8.254  0.5244E+01  0.1045E+02
     -8.139  0.3837E+01  0.1089E+02
     -8.025  0.4974E+01  0.1146E+02
     -7.910  0.5570E+01  0.1210E+02
     -7.796  0.4650E+01  0.1263E+02
     -7.681  0.5246E+01  0.1323E+02
     -7.566  0.5167E+01  0.1382E+02
     -7.452  0.4121E+01  0.1429E+02
     -7.337  0.4845E+01  0.1485E+02
     -7.223  0.5161E+01  0.1544E+02
     -7.108  0.6184E+01  0.1615E+02
     -6.994  0.6736E+01  0.1692E+02
     -6.879  0.4620E+01  0.1745E+02
     -6.765  0.3794E+01  0.1788E+02
     -6.650  0.4093E+01  0.1835E+02
     -6.535  0.5274E+01  0.1896E+02
     -6.421  0.6240E+01  0.1967E+02
     -6.306  0.6823E+01  0.2045E+02
     -6.192  0.5508E+01  0.2108E+02
     -6.077  0.5607E+01  0.2173E+02
     -5.963  0.4597E+01  0.2225E+02
     -5.848  0.4616E+01  0.2278E+02
     -5.734  0.5066E+01  0.2336E+02
     -5.619  0.4308E+01  0.2385E+02
     -5.504  0.5798E+01  0.2452E+02
     -5.390  0.5012E+01  0.2509E+02
     -5.275  0.4505E+01  0.2561E+02
     -5.161  0.6554E+01  0.2636E+02
     -5.046  0.5730E+01  0.2702E+02
     -4.932  0.5678E+01  0.2767E+02
     -4.817  0.5002E+01  0.2824E+02
     -4.703  0.5931E+01  0.2892E+02
     -4.588  0.5502E+01  0.2955E+02
     -4.473  0.4336E+01  0.3005E+02
     -4.359  0.3080E+01  0.3040E+02
     -4.244  0.2776E+01  0.3072E+02
     -4.130  0.3280E+01  0.3109E+02
     -4.015  0.3322E+01  0.3147E+02
     -3.901  0.4957E+01  0.3204E+02
     -3.786  0.5669E+01  0.3269E+02
     -3.672  0.4685E+01  0.3323E+02
     -3.557  0.4774E+01  0.3377E+02
     -3.442  0.6241E+01  0.3449E+02
     -3.328  0.4437E+01  0.3500E+02
     -3.213  0.5371E+01  0.3561E+02
     -3.099  0.7267E+01  0.3645E+02
     -2.984  0.8388E+01  0.3741E+02
     -2.870  0.5184E+01  0.3800E+02
     -2.755  0.4364E+01  0.3850E+02
     -2.641  0.6349E+01  0.3923E+02
     -2.526  0.4908E+01  0.3979E+02
     -2.411  0.4907E+01  0.4035E+02
     -2.297  0.4627E+01  0.4088E+02
     -2.182  0.5671E+01  0.4153E+02
     -2.068  0.6481E+01  0.4227E+02
     -1.953  0.5354E+01  0.4289E+02
     -1.839  0.6491E+01  0.4363E+02
     -1.724  0.4898E+01  0.4419E+02
     -1.610  0.4839E+01  0.4475E+02
     -1.495  0.4853E+01  0.4530E+02
     -1.380  0.4341E+01  0.4580E+02
     -1.266  0.5530E+01  0.4643E+02
     -1.151  0.6218E+01  0.4715E+02
     -1.037  0.8179E+01  0.4808E+02
     -0.922  0.6950E+01  0.4888E+02
     -0.808  0.4232E+01  0.4936E+02
     -0.693  0.4685E+01  0.4990E+02
     -0.579  0.6597E+01  0.5066E+02
     -0.464  0.7558E+01  0.5152E+02
     -0.349  0.8965E+01  0.5255E+02
     -0.235  0.8984E+01  0.5358E+02
     -0.120  0.5690E+01  0.5423E+02
     -0.006  0.5540E+01  0.5486E+02
      0.109  0.6848E+01  0.5565E+02
      0.223  0.7298E+01  0.5648E+02
      0.338  0.8155E+01  0.5742E+02
      0.452  0.7946E+01  0.5833E+02
      0.567  0.7354E+01  0.5917E+02
      0.682  0.8789E+01  0.6018E+02
      0.796  0.9195E+01  0.6123E+02
      0.911  0.5380E+01  0.6185E+02
      1.025  0.6517E+01  0.6259E+02
      1.140  0.1014E+02  0.6376E+02
      1.254  0.8115E+01  0.6469E+02
      1.369  0.7440E+01  0.6554E+02
      1.483  0.1012E+02  0.6670E+02
      1.598  0.9785E+01  0.6782E+02
      1.713  0.7720E+01  0.6870E+02
      1.827  0.7971E+01  0.6962E+02
      1.942  0.8493E+01  0.7059E+02
      2.056  0.1209E+02  0.7197E+02
      2.171  0.1389E+02  0.7357E+02
      2.285  0.9548E+01  0.7466E+02
      2.400  0.8946E+01  0.7568E+02
      2.514  0.9824E+01  0.7681E+02
      2.629  0.1061E+02  0.7802E+02
      2.744  0.1188E+02  0.7939E+02
      2.858  0.1234E+02  0.8080E+02
      2.973  0.1365E+02  0.8236E+02
      3.087  0.1252E+02  0.8380E+02
      3.202  0.1110E+02  0.8507E+02
      3.316  0.8817E+01  0.8608E+02
      3.431  0.9308E+01  0.8715E+02
      3.545  0.1370E+02  0.8871E+02
      3.660  0.1421E+02  0.9034E+02
      3.775  0.1236E+02  0.9176E+02
      3.889  0.1105E+02  0.9302E+02
      4.004  0.8405E+01  0.9399E+02
      4.118  0.1055E+02  0.9520E+02
      4.233  0.7712E+01  0.9608E+02
      4.347  0.7334E+01  0.9692E+02
      4.462  0.8498E+01  0.9789E+02
      4.576  0.1089E+02  0.9914E+02
      4.691  0.1052E+02  0.1003E+03
      4.806  0.8891E+01  0.1014E+03
      4.920  0.6412E+01  0.1021E+03
      5.035  0.6386E+01  0.1028E+03
      5.149  0.6699E+01  0.1036E+03
      5.264  0.8035E+01  0.1045E+03
      5.378  0.9101E+01  0.1056E+03
      5.493  0.8360E+01  0.1065E+03
      5.607  0.6044E+01  0.1072E+03
      5.722  0.4993E+01  0.1078E+03
      5.837  0.7238E+01  0.1086E+03
      5.951  0.7478E+01  0.1095E+03
      6.066  0.5528E+01  0.1101E+03
      6.180  0.5206E+01  0.1107E+03
      6.295  0.5434E+01  0.1113E+03
      6.409  0.4808E+01  0.1119E+03
      6.524  0.3486E+01  0.1123E+03
      6.638  0.3488E+01  0.1127E+03
      6.753  0.4214E+01  0.1132E+03
      6.868  0.5106E+01  0.1137E+03
      6.982  0.3361E+01  0.1141E+03
      7.097  0.3127E+01  0.1145E+03
      7.211  0.1830E+01  0.1147E+03
      7.326  0.2583E+01  0.1150E+03
      7.440  0.5067E+01  0.1156E+03
      7.555  0.6273E+01  0.1163E+03
      7.669  0.5822E+01  0.1170E+03
      7.784  0.3455E+01  0.1173E+03
      7.899  0.2266E+01  0.1176E+03
      8.013  0.4151E+01  0.1181E+03
      8.128  0.7994E+01  0.1190E+03
      8.242  0.8264E+01  0.1199E+03
      8.357  0.5838E+01  0.1206E+03
      8.471  0.5684E+01  0.1213E+03
      8.586  0.5109E+01  0.1219E+03
      8.700  0.5287E+01  0.1225E+03
      8.815  0.6949E+01  0.1233E+03
      8.930  0.7459E+01  0.1241E+03
      9.044  0.4359E+01  0.1246E+03
      9.159  0.4729E+01  0.1251E+03
      9.273  0.3849E+01  0.1256E+03
      9.388  0.4149E+01  0.1261E+03
      9.502  0.6136E+01  0.1268E+03
      9.617  0.6012E+01  0.1275E+03
      9.731  0.4156E+01  0.1279E+03
      9.846  0.3225E+01  0.1283E+03
      9.961  0.1649E+01  0.1285E+03
     10.075  0.1127E+01  0.1286E+03
     10.190  0.1199E+01  0.1288E+03
     10.304  0.4752E+00  0.1288E+03
     10.419  0.3828E+00  0.1289E+03
     10.533  0.2557E+01  0.1291E+03
     10.648  0.3752E+01  0.1296E+03
     10.762  0.3193E+01  0.1299E+03
     10.877  0.2394E+01  0.1302E+03
     10.992  0.6817E+00  0.1303E+03
     11.106  0.7767E+00  0.1304E+03
     11.221  0.3389E+01  0.1308E+03
     11.335  0.6212E+01  0.1315E+03
     11.450  0.5861E+01  0.1322E+03
     11.564  0.5874E+01  0.1328E+03
     11.679  0.6928E+01  0.1336E+03
     11.793  0.4889E+01  0.1342E+03
     11.908  0.4098E+01  0.1347E+03
     12.023  0.4189E+01  0.1351E+03
     12.137  0.5189E+01  0.1357E+03
     12.252  0.6569E+01  0.1365E+03
     12.366  0.6227E+01  0.1372E+03
     12.481  0.5346E+01  0.1378E+03
     12.595  0.4586E+01  0.1383E+03
     12.710  0.3425E+01  0.1387E+03
     12.824  0.3034E+01  0.1391E+03
     12.939  0.3884E+01  0.1395E+03
     13.054  0.6426E+01  0.1403E+03
     13.168  0.6180E+01  0.1410E+03
     13.283  0.4167E+01  0.1414E+03
     13.397  0.3618E+01  0.1419E+03
     13.512  0.3341E+01  0.1422E+03
     13.626  0.3654E+01  0.1427E+03
     13.741  0.4973E+01  0.1432E+03
     13.855  0.3565E+01  0.1436E+03
     13.970  0.2091E+01  0.1439E+03
     14.085  0.2794E+01  0.1442E+03
     14.199  0.3246E+01  0.1446E+03
     14.314  0.4692E+01  0.1451E+03
     14.428  0.6173E+01  0.1458E+03
     14.543  0.6898E+01  0.1466E+03
     14.657  0.3794E+01  0.1470E+03
     14.772  0.5642E+01  0.1477E+03
     14.886  0.6371E+01  0.1484E+03
     15.001  0.5263E+01  0.1490E+03
     15.116  0.5425E+01  0.1496E+03
     15.230  0.6287E+01  0.1504E+03
     15.345  0.7131E+01  0.1512E+03
     15.459  0.4594E+01  0.1517E+03
     15.574  0.3633E+01  0.1521E+03
     15.688  0.6149E+01  0.1528E+03
     15.803  0.6621E+01  0.1536E+03
     15.917  0.5058E+01  0.1542E+03
     16.032  0.4872E+01  0.1547E+03
     16.147  0.6406E+01  0.1554E+03
     16.261  0.9466E+01  0.1565E+03
     16.376  0.5893E+01  0.1572E+03
     16.490  0.4829E+01  0.1578E+03
     16.605  0.5100E+01  0.1583E+03
     16.719  0.6746E+01  0.1591E+03
     16.834  0.8298E+01  0.1601E+03
     16.948  0.7423E+01  0.1609E+03
     17.063  0.5263E+01  0.1615E+03
     17.178  0.7463E+01  0.1624E+03
     17.292  0.7581E+01  0.1632E+03
     17.407  0.5284E+01  0.1638E+03
     17.521  0.5533E+01  0.1645E+03
     17.636  0.3649E+01  0.1649E+03
     17.750  0.3023E+01  0.1652E+03
     17.865  0.2962E+01  0.1656E+03
     17.979  0.3635E+01  0.1660E+03
     18.094  0.5239E+01  0.1666E+03
     18.209  0.3591E+01  0.1670E+03
     18.323  0.2668E+01  0.1673E+03
     18.438  0.1900E+01  0.1675E+03
     18.552  0.1665E+01  0.1677E+03
     18.667  0.9463E+00  0.1678E+03
     18.781  0.4322E+00  0.1679E+03
     18.896  0.4026E+00  0.1679E+03
     19.010  0.3362E+00  0.1680E+03
     19.125  0.1166E+00  0.1680E+03
     19.240  0.1187E+00  0.1680E+03
     19.354  0.2561E-01  0.1680E+03
     19.469  0.6030E-03  0.1680E+03
     19.583  0.1312E-05  0.1680E+03
     19.698  0.2393E-09  0.1680E+03
     19.812  0.3470E-14  0.1680E+03
     19.927  0.0000E+00  0.1680E+03
     20.041  0.0000E+00  0.1680E+03
     20.156  0.0000E+00  0.1680E+03
     20.271  0.0000E+00  0.1680E+03
     20.385  0.0000E+00  0.1680E+03
     20.500  0.0000E+00  0.1680E+03
     20.614  0.0000E+00  0.1680E+03
     20.729  0.0000E+00  0.1680E+03
