<?xml version="1.0" encoding="ISO-8859-1"?>
<modeling>
 <generator>
  <i name="program" type="string">vasp </i>
  <i name="version" type="string">5.3.5  </i>
  <i name="subversion" type="string">31Mar14 (build Nov 02 2014 15:17:37) complex                          parallel </i>
  <i name="platform" type="string">ion-Intel-MKL </i>
  <i name="date" type="string">2016 08 14 </i>
  <i name="time" type="string">02:03:51 </i>
 </generator>
 <incar>
  <i type="string" name="SYSTEM">graphite</i>
  <i type="string" name="PREC">accurate</i>
  <i type="int" name="NELM">   200</i>
  <i type="int" name="IBRION">    -1</i>
  <i name="EDIFF">      0.00000100</i>
  <i name="EDIFFG">      0.00100000</i>
  <i type="int" name="NSW">     0</i>
  <i type="int" name="ISIF">     2</i>
  <i name="ENCUT">    600.00000000</i>
  <i type="int" name="ISMEAR">     0</i>
  <i name="SIGMA">      0.10000000</i>
  <i type="logical" name="LWAVE"> F  </i>
  <i type="logical" name="LCHARG"> F  </i>
  <i type="int" name="NELM">   200</i>
  <i type="string" name="GGA">PE</i>
 </incar>
 <kpoints>
  <generation param="Gamma">
   <v type="int" name="divisions">       9        9        4 </v>
   <v name="usershift">      0.00000000       0.00000000       0.00000000 </v>
   <v name="genvec1">      0.11111111       0.00000000       0.00000000 </v>
   <v name="genvec2">      0.00000000       0.11111111       0.00000000 </v>
   <v name="genvec3">      0.00000000       0.00000000       0.25000000 </v>
   <v name="shift">      0.00000000       0.00000000       0.00000000 </v>
  </generation>
  <varray name="kpointlist" >
   <v>       0.00000000       0.00000000       0.00000000 </v>
   <v>       0.11111111      -0.00000000       0.00000000 </v>
   <v>       0.22222222      -0.00000000       0.00000000 </v>
   <v>       0.33333333      -0.00000000       0.00000000 </v>
   <v>       0.44444444      -0.00000000       0.00000000 </v>
   <v>       0.00000000       0.11111111       0.00000000 </v>
   <v>       0.11111111       0.11111111       0.00000000 </v>
   <v>       0.22222222       0.11111111       0.00000000 </v>
   <v>       0.33333333       0.11111111       0.00000000 </v>
   <v>       0.44444444       0.11111111       0.00000000 </v>
   <v>      -0.44444444       0.11111111       0.00000000 </v>
   <v>      -0.33333333       0.11111111       0.00000000 </v>
   <v>      -0.22222222       0.11111111       0.00000000 </v>
   <v>      -0.11111111       0.11111111       0.00000000 </v>
   <v>       0.00000000       0.22222222       0.00000000 </v>
   <v>       0.11111111       0.22222222       0.00000000 </v>
   <v>       0.22222222       0.22222222       0.00000000 </v>
   <v>       0.33333333       0.22222222       0.00000000 </v>
   <v>       0.44444444       0.22222222       0.00000000 </v>
   <v>      -0.44444444       0.22222222       0.00000000 </v>
   <v>      -0.33333333       0.22222222       0.00000000 </v>
   <v>      -0.22222222       0.22222222       0.00000000 </v>
   <v>      -0.11111111       0.22222222       0.00000000 </v>
   <v>       0.00000000       0.33333333       0.00000000 </v>
   <v>       0.11111111       0.33333333       0.00000000 </v>
   <v>       0.22222222       0.33333333       0.00000000 </v>
   <v>       0.33333333       0.33333333       0.00000000 </v>
   <v>       0.44444444       0.33333333       0.00000000 </v>
   <v>      -0.44444444       0.33333333       0.00000000 </v>
   <v>      -0.33333333       0.33333333       0.00000000 </v>
   <v>      -0.22222222       0.33333333       0.00000000 </v>
   <v>      -0.11111111       0.33333333       0.00000000 </v>
   <v>       0.00000000       0.44444444       0.00000000 </v>
   <v>       0.11111111       0.44444444       0.00000000 </v>
   <v>       0.22222222       0.44444444       0.00000000 </v>
   <v>       0.33333333       0.44444444       0.00000000 </v>
   <v>       0.44444444       0.44444444       0.00000000 </v>
   <v>      -0.44444444       0.44444444       0.00000000 </v>
   <v>      -0.33333333       0.44444444       0.00000000 </v>
   <v>      -0.22222222       0.44444444       0.00000000 </v>
   <v>      -0.11111111       0.44444444       0.00000000 </v>
   <v>       0.00000000       0.00000000       0.25000000 </v>
   <v>       0.11111111      -0.00000000       0.25000000 </v>
   <v>       0.22222222      -0.00000000       0.25000000 </v>
   <v>       0.33333333      -0.00000000       0.25000000 </v>
   <v>       0.44444444      -0.00000000       0.25000000 </v>
   <v>      -0.44444444       0.00000000       0.25000000 </v>
   <v>      -0.33333333       0.00000000       0.25000000 </v>
   <v>      -0.22222222       0.00000000       0.25000000 </v>
   <v>      -0.11111111       0.00000000       0.25000000 </v>
   <v>       0.00000000       0.11111111       0.25000000 </v>
   <v>       0.11111111       0.11111111       0.25000000 </v>
   <v>       0.22222222       0.11111111       0.25000000 </v>
   <v>       0.33333333       0.11111111       0.25000000 </v>
   <v>       0.44444444       0.11111111       0.25000000 </v>
   <v>      -0.44444444       0.11111111       0.25000000 </v>
   <v>      -0.33333333       0.11111111       0.25000000 </v>
   <v>      -0.22222222       0.11111111       0.25000000 </v>
   <v>      -0.11111111       0.11111111       0.25000000 </v>
   <v>       0.00000000       0.22222222       0.25000000 </v>
   <v>       0.11111111       0.22222222       0.25000000 </v>
   <v>       0.22222222       0.22222222       0.25000000 </v>
   <v>       0.33333333       0.22222222       0.25000000 </v>
   <v>       0.44444444       0.22222222       0.25000000 </v>
   <v>      -0.44444444       0.22222222       0.25000000 </v>
   <v>      -0.33333333       0.22222222       0.25000000 </v>
   <v>      -0.22222222       0.22222222       0.25000000 </v>
   <v>      -0.11111111       0.22222222       0.25000000 </v>
   <v>       0.00000000       0.33333333       0.25000000 </v>
   <v>       0.11111111       0.33333333       0.25000000 </v>
   <v>       0.22222222       0.33333333       0.25000000 </v>
   <v>       0.33333333       0.33333333       0.25000000 </v>
   <v>       0.44444444       0.33333333       0.25000000 </v>
   <v>      -0.44444444       0.33333333       0.25000000 </v>
   <v>      -0.33333333       0.33333333       0.25000000 </v>
   <v>      -0.22222222       0.33333333       0.25000000 </v>
   <v>      -0.11111111       0.33333333       0.25000000 </v>
   <v>       0.00000000       0.44444444       0.25000000 </v>
   <v>       0.11111111       0.44444444       0.25000000 </v>
   <v>       0.22222222       0.44444444       0.25000000 </v>
   <v>       0.33333333       0.44444444       0.25000000 </v>
   <v>       0.44444444       0.44444444       0.25000000 </v>
   <v>      -0.44444444       0.44444444       0.25000000 </v>
   <v>      -0.33333333       0.44444444       0.25000000 </v>
   <v>      -0.22222222       0.44444444       0.25000000 </v>
   <v>      -0.11111111       0.44444444       0.25000000 </v>
   <v>      -0.00000000      -0.44444444       0.25000000 </v>
   <v>       0.11111111      -0.44444444       0.25000000 </v>
   <v>       0.22222222      -0.44444444       0.25000000 </v>
   <v>       0.33333333      -0.44444444       0.25000000 </v>
   <v>       0.44444444      -0.44444444       0.25000000 </v>
   <v>      -0.44444444      -0.44444444       0.25000000 </v>
   <v>      -0.33333333      -0.44444444       0.25000000 </v>
   <v>      -0.22222222      -0.44444444       0.25000000 </v>
   <v>      -0.11111111      -0.44444444       0.25000000 </v>
   <v>       0.00000000      -0.33333333       0.25000000 </v>
   <v>       0.11111111      -0.33333333       0.25000000 </v>
   <v>       0.22222222      -0.33333333       0.25000000 </v>
   <v>       0.33333333      -0.33333333       0.25000000 </v>
   <v>       0.44444444      -0.33333333       0.25000000 </v>
   <v>      -0.44444444      -0.33333333       0.25000000 </v>
   <v>      -0.33333333      -0.33333333       0.25000000 </v>
   <v>      -0.22222222      -0.33333333       0.25000000 </v>
   <v>      -0.11111111      -0.33333333       0.25000000 </v>
   <v>      -0.00000000      -0.22222222       0.25000000 </v>
   <v>       0.11111111      -0.22222222       0.25000000 </v>
   <v>       0.22222222      -0.22222222       0.25000000 </v>
   <v>       0.33333333      -0.22222222       0.25000000 </v>
   <v>       0.44444444      -0.22222222       0.25000000 </v>
   <v>      -0.44444444      -0.22222222       0.25000000 </v>
   <v>      -0.33333333      -0.22222222       0.25000000 </v>
   <v>      -0.22222222      -0.22222222       0.25000000 </v>
   <v>      -0.11111111      -0.22222222       0.25000000 </v>
   <v>      -0.00000000      -0.11111111       0.25000000 </v>
   <v>       0.11111111      -0.11111111       0.25000000 </v>
   <v>       0.22222222      -0.11111111       0.25000000 </v>
   <v>       0.33333333      -0.11111111       0.25000000 </v>
   <v>       0.44444444      -0.11111111       0.25000000 </v>
   <v>      -0.44444444      -0.11111111       0.25000000 </v>
   <v>      -0.33333333      -0.11111111       0.25000000 </v>
   <v>      -0.22222222      -0.11111111       0.25000000 </v>
   <v>      -0.11111111      -0.11111111       0.25000000 </v>
   <v>       0.00000000       0.00000000       0.50000000 </v>
   <v>       0.11111111      -0.00000000       0.50000000 </v>
   <v>       0.22222222      -0.00000000       0.50000000 </v>
   <v>       0.33333333      -0.00000000       0.50000000 </v>
   <v>       0.44444444      -0.00000000       0.50000000 </v>
   <v>       0.00000000       0.11111111       0.50000000 </v>
   <v>       0.11111111       0.11111111       0.50000000 </v>
   <v>       0.22222222       0.11111111       0.50000000 </v>
   <v>       0.33333333       0.11111111       0.50000000 </v>
   <v>       0.44444444       0.11111111       0.50000000 </v>
   <v>      -0.44444444       0.11111111       0.50000000 </v>
   <v>      -0.33333333       0.11111111       0.50000000 </v>
   <v>      -0.22222222       0.11111111       0.50000000 </v>
   <v>      -0.11111111       0.11111111       0.50000000 </v>
   <v>       0.00000000       0.22222222       0.50000000 </v>
   <v>       0.11111111       0.22222222       0.50000000 </v>
   <v>       0.22222222       0.22222222       0.50000000 </v>
   <v>       0.33333333       0.22222222       0.50000000 </v>
   <v>       0.44444444       0.22222222       0.50000000 </v>
   <v>      -0.44444444       0.22222222       0.50000000 </v>
   <v>      -0.33333333       0.22222222       0.50000000 </v>
   <v>      -0.22222222       0.22222222       0.50000000 </v>
   <v>      -0.11111111       0.22222222       0.50000000 </v>
   <v>       0.00000000       0.33333333       0.50000000 </v>
   <v>       0.11111111       0.33333333       0.50000000 </v>
   <v>       0.22222222       0.33333333       0.50000000 </v>
   <v>       0.33333333       0.33333333       0.50000000 </v>
   <v>       0.44444444       0.33333333       0.50000000 </v>
   <v>      -0.44444444       0.33333333       0.50000000 </v>
   <v>      -0.33333333       0.33333333       0.50000000 </v>
   <v>      -0.22222222       0.33333333       0.50000000 </v>
   <v>      -0.11111111       0.33333333       0.50000000 </v>
   <v>       0.00000000       0.44444444       0.50000000 </v>
   <v>       0.11111111       0.44444444       0.50000000 </v>
   <v>       0.22222222       0.44444444       0.50000000 </v>
   <v>       0.33333333       0.44444444       0.50000000 </v>
   <v>       0.44444444       0.44444444       0.50000000 </v>
   <v>      -0.44444444       0.44444444       0.50000000 </v>
   <v>      -0.33333333       0.44444444       0.50000000 </v>
   <v>      -0.22222222       0.44444444       0.50000000 </v>
   <v>      -0.11111111       0.44444444       0.50000000 </v>
  </varray>
  <varray name="weights" >
   <v>       0.00308642 </v>
   <v>       0.00617284 </v>
   <v>       0.00617284 </v>
   <v>       0.00617284 </v>
   <v>       0.00617284 </v>
   <v>       0.00617284 </v>
   <v>       0.00617284 </v>
   <v>       0.00617284 </v>
   <v>       0.00617284 </v>
   <v>       0.00617284 </v>
   <v>       0.00617284 </v>
   <v>       0.00617284 </v>
   <v>       0.00617284 </v>
   <v>       0.00617284 </v>
   <v>       0.00617284 </v>
   <v>       0.00617284 </v>
   <v>       0.00617284 </v>
   <v>       0.00617284 </v>
   <v>       0.00617284 </v>
   <v>       0.00617284 </v>
   <v>       0.00617284 </v>
   <v>       0.00617284 </v>
   <v>       0.00617284 </v>
   <v>       0.00617284 </v>
   <v>       0.00617284 </v>
   <v>       0.00617284 </v>
   <v>       0.00617284 </v>
   <v>       0.00617284 </v>
   <v>       0.00617284 </v>
   <v>       0.00617284 </v>
   <v>       0.00617284 </v>
   <v>       0.00617284 </v>
   <v>       0.00617284 </v>
   <v>       0.00617284 </v>
   <v>       0.00617284 </v>
   <v>       0.00617284 </v>
   <v>       0.00617284 </v>
   <v>       0.00617284 </v>
   <v>       0.00617284 </v>
   <v>       0.00617284 </v>
   <v>       0.00617284 </v>
   <v>       0.00617284 </v>
   <v>       0.00617284 </v>
   <v>       0.00617284 </v>
   <v>       0.00617284 </v>
   <v>       0.00617284 </v>
   <v>       0.00617284 </v>
   <v>       0.00617284 </v>
   <v>       0.00617284 </v>
   <v>       0.00617284 </v>
   <v>       0.00617284 </v>
   <v>       0.00617284 </v>
   <v>       0.00617284 </v>
   <v>       0.00617284 </v>
   <v>       0.00617284 </v>
   <v>       0.00617284 </v>
   <v>       0.00617284 </v>
   <v>       0.00617284 </v>
   <v>       0.00617284 </v>
   <v>       0.00617284 </v>
   <v>       0.00617284 </v>
   <v>       0.00617284 </v>
   <v>       0.00617284 </v>
   <v>       0.00617284 </v>
   <v>       0.00617284 </v>
   <v>       0.00617284 </v>
   <v>       0.00617284 </v>
   <v>       0.00617284 </v>
   <v>       0.00617284 </v>
   <v>       0.00617284 </v>
   <v>       0.00617284 </v>
   <v>       0.00617284 </v>
   <v>       0.00617284 </v>
   <v>       0.00617284 </v>
   <v>       0.00617284 </v>
   <v>       0.00617284 </v>
   <v>       0.00617284 </v>
   <v>       0.00617284 </v>
   <v>       0.00617284 </v>
   <v>       0.00617284 </v>
   <v>       0.00617284 </v>
   <v>       0.00617284 </v>
   <v>       0.00617284 </v>
   <v>       0.00617284 </v>
   <v>       0.00617284 </v>
   <v>       0.00617284 </v>
   <v>       0.00617284 </v>
   <v>       0.00617284 </v>
   <v>       0.00617284 </v>
   <v>       0.00617284 </v>
   <v>       0.00617284 </v>
   <v>       0.00617284 </v>
   <v>       0.00617284 </v>
   <v>       0.00617284 </v>
   <v>       0.00617284 </v>
   <v>       0.00617284 </v>
   <v>       0.00617284 </v>
   <v>       0.00617284 </v>
   <v>       0.00617284 </v>
   <v>       0.00617284 </v>
   <v>       0.00617284 </v>
   <v>       0.00617284 </v>
   <v>       0.00617284 </v>
   <v>       0.00617284 </v>
   <v>       0.00617284 </v>
   <v>       0.00617284 </v>
   <v>       0.00617284 </v>
   <v>       0.00617284 </v>
   <v>       0.00617284 </v>
   <v>       0.00617284 </v>
   <v>       0.00617284 </v>
   <v>       0.00617284 </v>
   <v>       0.00617284 </v>
   <v>       0.00617284 </v>
   <v>       0.00617284 </v>
   <v>       0.00617284 </v>
   <v>       0.00617284 </v>
   <v>       0.00617284 </v>
   <v>       0.00617284 </v>
   <v>       0.00617284 </v>
   <v>       0.00617284 </v>
   <v>       0.00617284 </v>
   <v>       0.00308642 </v>
   <v>       0.00617284 </v>
   <v>       0.00617284 </v>
   <v>       0.00617284 </v>
   <v>       0.00617284 </v>
   <v>       0.00617284 </v>
   <v>       0.00617284 </v>
   <v>       0.00617284 </v>
   <v>       0.00617284 </v>
   <v>       0.00617284 </v>
   <v>       0.00617284 </v>
   <v>       0.00617284 </v>
   <v>       0.00617284 </v>
   <v>       0.00617284 </v>
   <v>       0.00617284 </v>
   <v>       0.00617284 </v>
   <v>       0.00617284 </v>
   <v>       0.00617284 </v>
   <v>       0.00617284 </v>
   <v>       0.00617284 </v>
   <v>       0.00617284 </v>
   <v>       0.00617284 </v>
   <v>       0.00617284 </v>
   <v>       0.00617284 </v>
   <v>       0.00617284 </v>
   <v>       0.00617284 </v>
   <v>       0.00617284 </v>
   <v>       0.00617284 </v>
   <v>       0.00617284 </v>
   <v>       0.00617284 </v>
   <v>       0.00617284 </v>
   <v>       0.00617284 </v>
   <v>       0.00617284 </v>
   <v>       0.00617284 </v>
   <v>       0.00617284 </v>
   <v>       0.00617284 </v>
   <v>       0.00617284 </v>
   <v>       0.00617284 </v>
   <v>       0.00617284 </v>
   <v>       0.00617284 </v>
   <v>       0.00617284 </v>
  </varray>
 </kpoints>
 <parameters>
  <separator name="general" >
   <i type="string" name="SYSTEM">graphite</i>
   <i type="logical" name="LCOMPAT"> F  </i>
  </separator>
  <separator name="electronic" >
   <i type="string" name="PREC">accura</i>
   <i name="ENMAX">    600.00000000</i>
   <i name="ENAUG">    644.87300000</i>
   <i name="EDIFF">      0.00000100</i>
   <i type="int" name="IALGO">    38</i>
   <i type="int" name="IWAVPR">    10</i>
   <i type="int" name="NBANDS">    84</i>
   <i name="NELECT">    128.00000000</i>
   <i type="int" name="TURBO">     0</i>
   <i type="int" name="IRESTART">     0</i>
   <i type="int" name="NREBOOT">     0</i>
   <i type="int" name="NMIN">     0</i>
   <i name="EREF">      0.00000000</i>
   <separator name="electronic smearing" >
    <i type="int" name="ISMEAR">     0</i>
    <i name="SIGMA">      0.10000000</i>
    <i name="KSPACING">      0.50000000</i>
    <i type="logical" name="KGAMMA"> T  </i>
   </separator>
   <separator name="electronic projectors" >
    <i type="logical" name="LREAL"> F  </i>
    <v name="ROPT">      0.00000000</v>
    <i type="int" name="LMAXPAW">  -100</i>
    <i type="int" name="LMAXMIX">     2</i>
    <i type="logical" name="NLSPLINE"> F  </i>
   </separator>
   <separator name="electronic startup" >
    <i type="int" name="ISTART">     0</i>
    <i type="int" name="ICHARG">     2</i>
    <i type="int" name="INIWAV">     1</i>
   </separator>
   <separator name="electronic spin" >
    <i type="int" name="ISPIN">     1</i>
    <i type="logical" name="LNONCOLLINEAR"> F  </i>
    <v name="MAGMOM">      1.00000000      1.00000000      1.00000000      1.00000000      1.00000000      1.00000000      1.00000000      1.00000000      1.00000000      1.00000000      1.00000000      1.00000000      1.00000000      1.00000000      1.00000000      1.00000000      1.00000000      1.00000000      1.00000000      1.00000000
      1.00000000      1.00000000      1.00000000      1.00000000      1.00000000      1.00000000      1.00000000      1.00000000      1.00000000      1.00000000      1.00000000      1.00000000</v>
    <i name="NUPDOWN">     -1.00000000</i>
    <i type="logical" name="LSORBIT"> F  </i>
    <v name="SAXIS">      0.00000000      0.00000000      1.00000000</v>
    <i type="logical" name="LSPIRAL"> F  </i>
    <v name="QSPIRAL">      0.00000000      0.00000000      0.00000000</v>
    <i type="logical" name="LZEROZ"> F  </i>
   </separator>
   <separator name="electronic exchange-correlation" >
    <i type="logical" name="LASPH"> F  </i>
    <i type="logical" name="LMETAGGA"> F  </i>
   </separator>
   <separator name="electronic convergence" >
    <i type="int" name="NELM">   200</i>
    <i type="int" name="NELMDL">     0</i>
    <i type="int" name="NELMIN">     2</i>
    <i name="ENINI">    600.00000000</i>
    <separator name="electronic convergence detail" >
     <i type="logical" name="LDIAG"> T  </i>
     <i type="logical" name="LSUBROT"> F  </i>
     <i name="WEIMIN">      0.00000000</i>
     <i name="EBREAK">      0.00000000</i>
     <i name="DEPER">      0.30000000</i>
     <i type="int" name="NRMM">     4</i>
     <i name="TIME">      0.40000000</i>
    </separator>
   </separator>
   <separator name="electronic mixer" >
    <i name="AMIX">      0.40000000</i>
    <i name="BMIX">      1.00000000</i>
    <i name="AMIN">      0.10000000</i>
    <i name="AMIX_MAG">      1.60000000</i>
    <i name="BMIX_MAG">      1.00000000</i>
    <separator name="electronic mixer details" >
     <i type="int" name="IMIX">     4</i>
     <i type="int" name="MAXMIX">   -45</i>
     <i name="WC">    100.00000000</i>
     <i type="int" name="INIMIX">     1</i>
     <i type="int" name="MIXPRE">     1</i>
     <i type="int" name="MREMOVE">     5</i>
    </separator>
   </separator>
   <separator name="electronic dipolcorrection" >
    <i type="logical" name="LDIPOL"> F  </i>
    <i type="logical" name="LMONO"> F  </i>
    <i type="int" name="IDIPOL">     0</i>
    <i name="EPSILON">      1.00000000</i>
    <v name="DIPOL">   -100.00000000   -100.00000000   -100.00000000</v>
    <i name="EFIELD">      0.00000000</i>
   </separator>
  </separator>
  <separator name="grids" >
   <i type="int" name="NGX">    40</i>
   <i type="int" name="NGY">    40</i>
   <i type="int" name="NGZ">    70</i>
   <i type="int" name="NGXF">    80</i>
   <i type="int" name="NGYF">    80</i>
   <i type="int" name="NGZF">   140</i>
   <i type="logical" name="ADDGRID"> F  </i>
  </separator>
  <separator name="ionic" >
   <i type="int" name="NSW">     0</i>
   <i type="int" name="IBRION">    -1</i>
   <i type="int" name="ISIF">     2</i>
   <i name="PSTRESS">      0.00000000</i>
   <i name="EDIFFG">      0.00100000</i>
   <i type="int" name="NFREE">     0</i>
   <i name="POTIM">      0.50000000</i>
   <i name="SMASS">     -3.00000000</i>
   <i name="SCALEE">      1.00000000</i>
  </separator>
  <separator name="ionic md" >
   <i name="TEBEG">      0.00010000</i>
   <i name="TEEND">      0.00010000</i>
   <i type="int" name="NBLOCK">     1</i>
   <i type="int" name="KBLOCK">     1</i>
   <i type="int" name="NPACO">   256</i>
   <i name="APACO">     16.00000000</i>
  </separator>
  <separator name="symmetry" >
   <i type="int" name="ISYM">     2</i>
   <i name="SYMPREC">      0.00001000</i>
  </separator>
  <separator name="dos" >
   <i type="logical" name="LORBIT"> F  </i>
   <v name="RWIGS">     -1.00000000</v>
   <i type="int" name="NEDOS">   301</i>
   <i name="EMIN">     10.00000000</i>
   <i name="EMAX">    -10.00000000</i>
   <i name="EFERMI">      0.00000000</i>
  </separator>
  <separator name="writing" >
   <i type="int" name="NWRITE">     2</i>
   <i type="logical" name="LWAVE"> F  </i>
   <i type="logical" name="LCHARG"> F  </i>
   <i type="logical" name="LPARD"> F  </i>
   <i type="logical" name="LVTOT"> F  </i>
   <i type="logical" name="LVHAR"> F  </i>
   <i type="logical" name="LELF"> F  </i>
   <i type="logical" name="LOPTICS"> F  </i>
   <v name="STM">      0.00000000      0.00000000      0.00000000      0.00000000      0.00000000      0.00000000      0.00000000</v>
  </separator>
  <separator name="performance" >
   <i type="int" name="NPAR">     6</i>
   <i type="int" name="NSIM">     4</i>
   <i type="int" name="NBLK">    -1</i>
   <i type="logical" name="LPLANE"> T  </i>
   <i type="logical" name="LSCALAPACK"> T  </i>
   <i type="logical" name="LSCAAWARE"> F  </i>
   <i type="logical" name="LSCALU"> F  </i>
   <i type="logical" name="LASYNC"> F  </i>
   <i type="logical" name="LORBITALREAL"> F  </i>
  </separator>
  <separator name="miscellaneous" >
   <i type="int" name="IDIOT">     3</i>
   <i type="logical" name="LMUSIC"> F  </i>
   <v name="POMASS">     12.01100000</v>
   <v name="DARWINR">      0.00000000</v>
   <v name="DARWINV">      1.00000000</v>
   <i type="logical" name="LCORR"> T  </i>
  </separator>
  <i type="logical" name="GGA_COMPAT"> T  </i>
  <i type="logical" name="LBERRY"> F  </i>
  <i type="int" name="ICORELEVEL">     0</i>
  <i type="logical" name="LDAU"> F  </i>
  <i type="int" name="I_CONSTRAINED_M">     0</i>
  <separator name="electronic exchange-correlation" >
   <i type="string" name="GGA">PE</i>
   <i type="int" name="VOSKOWN">     0</i>
   <i type="logical" name="LHFCALC"> F  </i>
   <i type="string" name="PRECFOCK"></i>
   <i type="logical" name="LSYMGRAD"> F  </i>
   <i type="logical" name="LHFONE"> F  </i>
   <i type="logical" name="LRHFCALC"> F  </i>
   <i type="logical" name="LTHOMAS"> F  </i>
   <i type="logical" name="LMODELHF"> F  </i>
   <i name="ENCUT4O">     -1.00000000</i>
   <i type="int" name="EXXOEP">     0</i>
   <i type="int" name="FOURORBIT">     0</i>
   <i name="AEXX">      0.00000000</i>
   <i name="HFALPHA">      0.00000000</i>
   <i name="MCALPHA">      0.00000000</i>
   <i name="ALDAX">      1.00000000</i>
   <i name="AGGAX">      1.00000000</i>
   <i name="ALDAC">      1.00000000</i>
   <i name="AGGAC">      1.00000000</i>
   <i type="int" name="NKREDX">     1</i>
   <i type="int" name="NKREDY">     1</i>
   <i type="int" name="NKREDZ">     1</i>
   <i type="logical" name="SHIFTRED"> F  </i>
   <i type="logical" name="ODDONLY"> F  </i>
   <i type="logical" name="EVENONLY"> F  </i>
   <i type="int" name="LMAXFOCK">     0</i>
   <i type="int" name="NMAXFOCKAE">     0</i>
   <i type="logical" name="LFOCKAEDFT"> F  </i>
   <i name="HFSCREEN">      0.00000000</i>
   <i name="HFSCREENC">      0.00000000</i>
   <i type="int" name="NBANDSGWLOW">     0</i>
  </separator>
  <separator name="vdW DFT" >
   <i type="logical" name="LUSE_VDW"> F  </i>
   <i name="Zab_VDW">     -0.84910000</i>
   <i name="PARAM1">      0.12340000</i>
   <i name="PARAM2">      1.00000000</i>
   <i name="PARAM3">      0.00000000</i>
  </separator>
  <separator name="model GW" >
   <i type="int" name="MODEL_GW">     0</i>
   <i name="MODEL_EPS0">      3.45657427</i>
   <i name="MODEL_ALPHA">      1.00000000</i>
  </separator>
  <separator name="linear response parameters" >
   <i type="logical" name="LEPSILON"> F  </i>
   <i type="logical" name="LRPA"> F  </i>
   <i type="logical" name="LNABLA"> F  </i>
   <i type="logical" name="LVEL"> F  </i>
   <i type="int" name="KINTER">     0</i>
   <i name="CSHIFT">      0.10000000</i>
   <i name="OMEGAMAX">     -1.00000000</i>
   <i name="DEG_THRESHOLD">      0.00200000</i>
  </separator>
  <separator name="orbital magnetization" >
   <i type="logical" name="NUCIND"> F  </i>
   <v name="MAGPOS">      0.00000000      0.00000000      0.00000000</v>
   <i type="logical" name="LNICSALL"> T  </i>
   <i type="logical" name="ORBITALMAG"> F  </i>
   <i type="logical" name="LMAGBLOCH"> F  </i>
   <i type="logical" name="LCHIMAG"> F  </i>
   <i type="logical" name="LGAUGE"> T  </i>
   <i type="int" name="MAGATOM">     0</i>
   <v name="MAGDIPOL">      0.00000000      0.00000000      0.00000000</v>
   <v name="AVECCONST">      0.00000000      0.00000000      0.00000000</v>
  </separator>
  <separator name="response functions" >
   <i type="logical" name="LADDER"> F  </i>
   <i type="logical" name="LFXC"> F  </i>
   <i type="logical" name="LHARTREE"> T  </i>
   <i type="int" name="IBSE">     0</i>
   <i type="logical" name="LTCTE"> F  </i>
   <i type="logical" name="LTETE"> F  </i>
   <i type="logical" name="LTRIPLET"> F  </i>
   <i type="logical" name="LFXCEPS"> F  </i>
   <i type="logical" name="LFXHEG"> F  </i>
   <i type="logical" name="L2ORDER"> F  </i>
   <i type="logical" name="LUSEW"> F  </i>
   <i name="ENCUTGW">     -2.00000000</i>
   <i name="ENCUTGWSOFT">     -2.00000000</i>
   <i name="ENCUTLF">     -1.00000000</i>
   <i type="int" name="LMAXMP2">    -1</i>
   <i name="SCISSOR">      0.00000000</i>
   <i type="int" name="NOMEGA">     0</i>
   <i type="int" name="NOMEGAR">     0</i>
   <i type="int" name="NBANDSGW">    -1</i>
   <i type="int" name="NBANDSO">    -1</i>
   <i type="int" name="NBANDSV">    -1</i>
   <i type="int" name="NELM">   200</i>
   <i type="int" name="DIM">     3</i>
   <i type="int" name="ANTIRES">     0</i>
   <i name="OMEGAMAX">    -30.00000000</i>
   <i name="OMEGAMIN">    -30.00000000</i>
   <i name="OMEGATL">   -200.00000000</i>
   <i type="int" name="OMEGAGRID">     0</i>
   <i name="CSHIFT">     -0.10000000</i>
   <i type="logical" name="SELFENERGY"> F  </i>
   <i type="logical" name="LSPECTRAL"> F  </i>
   <i type="logical" name="ODDONLYGW"> F  </i>
   <i type="logical" name="EVENONLYGW"> F  </i>
   <i type="int" name="NKREDLFX">     1</i>
   <i type="int" name="NKREDLFY">     1</i>
   <i type="int" name="NKREDLFZ">     1</i>
   <i type="int" name="MAXMEM">  1800</i>
   <i type="int" name="TELESCOPE">     0</i>
   <i type="int" name="TAUPAR">     1</i>
  </separator>
  <separator name="External order field" >
   <i name="OFIELD_KAPPA">      0.00000000</i>
   <v name="OFIELD_K">      0.00000000      0.00000000      0.00000000</v>
   <i name="OFIELD_Q6_NEAR">      0.00000000</i>
   <i name="OFIELD_Q6_FAR">      0.00000000</i>
   <i name="OFIELD_A">      0.00000000</i>
  </separator>
 </parameters>
 <atominfo>
  <atoms>      32 </atoms>
  <types>       1 </types>
  <array name="atoms" >
   <dimension dim="1">ion</dimension>
   <field type="string">element</field>
   <field type="int">atomtype</field>
   <set>
    <rc><c>C </c><c>   1</c></rc>
    <rc><c>C </c><c>   1</c></rc>
    <rc><c>C </c><c>   1</c></rc>
    <rc><c>C </c><c>   1</c></rc>
    <rc><c>C </c><c>   1</c></rc>
    <rc><c>C </c><c>   1</c></rc>
    <rc><c>C </c><c>   1</c></rc>
    <rc><c>C </c><c>   1</c></rc>
    <rc><c>C </c><c>   1</c></rc>
    <rc><c>C </c><c>   1</c></rc>
    <rc><c>C </c><c>   1</c></rc>
    <rc><c>C </c><c>   1</c></rc>
    <rc><c>C </c><c>   1</c></rc>
    <rc><c>C </c><c>   1</c></rc>
    <rc><c>C </c><c>   1</c></rc>
    <rc><c>C </c><c>   1</c></rc>
    <rc><c>C </c><c>   1</c></rc>
    <rc><c>C </c><c>   1</c></rc>
    <rc><c>C </c><c>   1</c></rc>
    <rc><c>C </c><c>   1</c></rc>
    <rc><c>C </c><c>   1</c></rc>
    <rc><c>C </c><c>   1</c></rc>
    <rc><c>C </c><c>   1</c></rc>
    <rc><c>C </c><c>   1</c></rc>
    <rc><c>C </c><c>   1</c></rc>
    <rc><c>C </c><c>   1</c></rc>
    <rc><c>C </c><c>   1</c></rc>
    <rc><c>C </c><c>   1</c></rc>
    <rc><c>C </c><c>   1</c></rc>
    <rc><c>C </c><c>   1</c></rc>
    <rc><c>C </c><c>   1</c></rc>
    <rc><c>C </c><c>   1</c></rc>
   </set>
  </array>
  <array name="atomtypes" >
   <dimension dim="1">type</dimension>
   <field type="int">atomspertype</field>
   <field type="string">element</field>
   <field>mass</field>
   <field>valence</field>
   <field type="string">pseudopotential</field>
   <set>
    <rc><c>  32</c><c>C </c><c>     12.01100000</c><c>      4.00000000</c><c> PAW_PBE C 08Apr2002                    </c></rc>
   </set>
  </array>
 </atominfo>
 <structure name="initialpos" >
  <crystal>
   <varray name="basis" >
    <v>       4.93431088      -0.00022240       0.00000000 </v>
    <v>      -2.46734805       4.27312738       0.00000000 </v>
    <v>       0.00000000       0.00000000       8.74346501 </v>
   </varray>
   <i name="volume">    184.35062777 </i>
   <varray name="rec_basis" >
    <v>       0.20266782       0.11702250       0.00000000 </v>
    <v>       0.00001055       0.23402673       0.00000000 </v>
    <v>       0.00000000       0.00000000       0.11437113 </v>
   </varray>
  </crystal>
  <varray name="positions" >
   <v>       0.49999985       0.00000017       0.12500000 </v>
   <v>       0.99999985       0.00000017       0.12500000 </v>
   <v>       0.49999985       0.50000017       0.12500000 </v>
   <v>       0.99999985       0.50000017       0.12500000 </v>
   <v>       0.49999985       0.00000017       0.62500000 </v>
   <v>       0.99999985       0.00000017       0.62500000 </v>
   <v>       0.49999985       0.50000017       0.62500000 </v>
   <v>       0.99999985       0.50000017       0.62500000 </v>
   <v>       0.00000017       0.49999985       0.37500000 </v>
   <v>       0.50000017       0.49999985       0.37500000 </v>
   <v>       0.00000017       0.99999985       0.37500000 </v>
   <v>       0.50000017       0.99999985       0.37500000 </v>
   <v>       0.00000017       0.49999985       0.87500000 </v>
   <v>       0.50000017       0.49999985       0.87500000 </v>
   <v>       0.00000017       0.99999985       0.87500000 </v>
   <v>       0.50000017       0.99999985       0.87500000 </v>
   <v>       0.16565342       0.33335053       0.12400395 </v>
   <v>       0.66664946       0.33335053       0.12500000 </v>
   <v>       0.16664946       0.83335053       0.12500000 </v>
   <v>       0.66664946       0.83335053       0.12500000 </v>
   <v>       0.16664946       0.33335053       0.62500000 </v>
   <v>       0.66664946       0.33335053       0.62500000 </v>
   <v>       0.16664946       0.83335053       0.62500000 </v>
   <v>       0.66664946       0.83335053       0.62500000 </v>
   <v>       0.33335053       0.16664946       0.37500000 </v>
   <v>       0.83335053       0.16664946       0.37500000 </v>
   <v>       0.33335053       0.66664946       0.37500000 </v>
   <v>       0.83335053       0.66664946       0.37500000 </v>
   <v>       0.33335053       0.16664946       0.87500000 </v>
   <v>       0.83335053       0.16664946       0.87500000 </v>
   <v>       0.33335053       0.66664946       0.87500000 </v>
   <v>       0.83335053       0.66664946       0.87500000 </v>
  </varray>
 </structure>
 <calculation>
  <scstep>
   <time name="dav">   90.09   90.15</time>
   <time name="total">   90.24   90.31</time>
   <energy>
    <i name="alphaZ">    452.59237219 </i>
    <i name="ewald">  -5405.36778336 </i>
    <i name="hartreedc">   -330.41719498 </i>
    <i name="XCdc">    458.61364320 </i>
    <i name="pawpsdc">   1210.60617908 </i>
    <i name="pawaedc">  -1247.42152856 </i>
    <i name="eentropy">     -0.01557748 </i>
    <i name="bandstr">    615.18065617 </i>
    <i name="atom">   4708.80920826 </i>
    <i name="e_fr_energy">    462.57997452 </i>
    <i name="e_wo_entrp">    462.59555199 </i>
    <i name="e_0_energy">    462.58776326 </i>
   </energy>
  </scstep>
  <scstep>
   <time name="dav">   90.73   90.78</time>
   <time name="total">   90.74   90.80</time>
   <energy>
    <i name="e_fr_energy">   -250.16220555 </i>
    <i name="e_wo_entrp">   -250.15156708 </i>
    <i name="e_0_energy">   -250.15688632 </i>
   </energy>
  </scstep>
  <scstep>
   <time name="dav">  101.52  101.59</time>
   <time name="total">  101.54  101.60</time>
   <energy>
    <i name="e_fr_energy">   -286.25868516 </i>
    <i name="e_wo_entrp">   -286.24156337 </i>
    <i name="e_0_energy">   -286.25012426 </i>
   </energy>
  </scstep>
  <scstep>
   <time name="dav">  101.93  102.00</time>
   <time name="total">  101.94  102.01</time>
   <energy>
    <i name="e_fr_energy">   -286.82101173 </i>
    <i name="e_wo_entrp">   -286.80402499 </i>
    <i name="e_0_energy">   -286.81251836 </i>
   </energy>
  </scstep>
  <scstep>
   <time name="dav">  113.90  113.97</time>
   <time name="total">  118.77  118.84</time>
   <energy>
    <i name="e_fr_energy">   -286.83337074 </i>
    <i name="e_wo_entrp">   -286.81638565 </i>
    <i name="e_0_energy">   -286.82487820 </i>
   </energy>
  </scstep>
  <scstep>
   <time name="dav">  103.84  103.91</time>
   <time name="total">  107.47  107.54</time>
   <energy>
    <i name="e_fr_energy">   -275.51221427 </i>
    <i name="e_wo_entrp">   -275.49307343 </i>
    <i name="e_0_energy">   -275.50264385 </i>
   </energy>
  </scstep>
  <scstep>
   <time name="dav">   91.07   91.13</time>
   <time name="total">   94.14   94.21</time>
   <energy>
    <i name="e_fr_energy">   -271.89691649 </i>
    <i name="e_wo_entrp">   -271.87861046 </i>
    <i name="e_0_energy">   -271.88776348 </i>
   </energy>
  </scstep>
  <scstep>
   <time name="dav">   80.25   80.30</time>
   <time name="total">   83.37   83.42</time>
   <energy>
    <i name="e_fr_energy">   -271.92301261 </i>
    <i name="e_wo_entrp">   -271.90454681 </i>
    <i name="e_0_energy">   -271.91377971 </i>
   </energy>
  </scstep>
  <scstep>
   <time name="dav">   94.36   94.40</time>
   <time name="total">   97.44   97.49</time>
   <energy>
    <i name="e_fr_energy">   -271.92552900 </i>
    <i name="e_wo_entrp">   -271.90703109 </i>
    <i name="e_0_energy">   -271.91628005 </i>
   </energy>
  </scstep>
  <scstep>
   <time name="dav">   91.77   91.81</time>
   <time name="total">   94.97   95.02</time>
   <energy>
    <i name="e_fr_energy">   -271.92566458 </i>
    <i name="e_wo_entrp">   -271.90716362 </i>
    <i name="e_0_energy">   -271.91641410 </i>
   </energy>
  </scstep>
  <scstep>
   <time name="dav">   84.08   84.12</time>
   <time name="total">   87.39   87.43</time>
   <energy>
    <i name="e_fr_energy">   -271.92570854 </i>
    <i name="e_wo_entrp">   -271.90720335 </i>
    <i name="e_0_energy">   -271.91645594 </i>
   </energy>
  </scstep>
  <scstep>
   <time name="dav">   77.99   78.03</time>
   <time name="total">   83.23   83.28</time>
   <energy>
    <i name="e_fr_energy">   -271.92570718 </i>
    <i name="e_wo_entrp">   -271.90720311 </i>
    <i name="e_0_energy">   -271.91645514 </i>
   </energy>
  </scstep>
  <scstep>
   <time name="dav">   78.88   79.16</time>
   <time name="total">   79.04   79.32</time>
   <energy>
    <i name="alphaZ">    452.59237219 </i>
    <i name="ewald">  -5405.36778336 </i>
    <i name="hartreedc">   -490.99051489 </i>
    <i name="XCdc">    473.02975157 </i>
    <i name="pawpsdc">   2273.53278848 </i>
    <i name="pawaedc">  -2315.22072451 </i>
    <i name="eentropy">     -0.01850363 </i>
    <i name="bandstr">     31.70769872 </i>
    <i name="atom">   4708.80920826 </i>
    <i name="e_fr_energy">   -271.92570716 </i>
    <i name="e_wo_entrp">   -271.90720354 </i>
    <i name="e_0_energy">   -271.91645535 </i>
   </energy>
  </scstep>
  <structure>
   <crystal>
    <varray name="basis" >
     <v>       4.93431088      -0.00022240       0.00000000 </v>
     <v>      -2.46734805       4.27312738       0.00000000 </v>
     <v>       0.00000000       0.00000000       8.74346501 </v>
    </varray>
    <i name="volume">    184.35062777 </i>
    <varray name="rec_basis" >
     <v>       0.20266782       0.11702250       0.00000000 </v>
     <v>       0.00001055       0.23402673       0.00000000 </v>
     <v>       0.00000000       0.00000000       0.11437113 </v>
    </varray>
   </crystal>
   <varray name="positions" >
    <v>       0.49999985       0.00000017       0.12500000 </v>
    <v>       0.99999985       0.00000017       0.12500000 </v>
    <v>       0.49999985       0.50000017       0.12500000 </v>
    <v>       0.99999985       0.50000017       0.12500000 </v>
    <v>       0.49999985       0.00000017       0.62500000 </v>
    <v>       0.99999985       0.00000017       0.62500000 </v>
    <v>       0.49999985       0.50000017       0.62500000 </v>
    <v>       0.99999985       0.50000017       0.62500000 </v>
    <v>       0.00000017       0.49999985       0.37500000 </v>
    <v>       0.50000017       0.49999985       0.37500000 </v>
    <v>       0.00000017       0.99999985       0.37500000 </v>
    <v>       0.50000017       0.99999985       0.37500000 </v>
    <v>       0.00000017       0.49999985       0.87500000 </v>
    <v>       0.50000017       0.49999985       0.87500000 </v>
    <v>       0.00000017       0.99999985       0.87500000 </v>
    <v>       0.50000017       0.99999985       0.87500000 </v>
    <v>       0.16565342       0.33335053       0.12400395 </v>
    <v>       0.66664946       0.33335053       0.12500000 </v>
    <v>       0.16664946       0.83335053       0.12500000 </v>
    <v>       0.66664946       0.83335053       0.12500000 </v>
    <v>       0.16664946       0.33335053       0.62500000 </v>
    <v>       0.66664946       0.33335053       0.62500000 </v>
    <v>       0.16664946       0.83335053       0.62500000 </v>
    <v>       0.66664946       0.83335053       0.62500000 </v>
    <v>       0.33335053       0.16664946       0.37500000 </v>
    <v>       0.83335053       0.16664946       0.37500000 </v>
    <v>       0.33335053       0.66664946       0.37500000 </v>
    <v>       0.83335053       0.66664946       0.37500000 </v>
    <v>       0.33335053       0.16664946       0.87500000 </v>
    <v>       0.83335053       0.16664946       0.87500000 </v>
    <v>       0.33335053       0.66664946       0.87500000 </v>
    <v>       0.83335053       0.66664946       0.87500000 </v>
   </varray>
  </structure>
  <varray name="forces" >
   <v>      -0.00539961       0.00320455      -0.01248930 </v>
   <v>      -0.05370900       0.00345854      -0.01732639 </v>
   <v>      -0.10969505      -0.02899977      -0.01800989 </v>
   <v>      -0.11197301       0.03696296      -0.01657378 </v>
   <v>      -0.00499262       0.00315732       0.00181724 </v>
   <v>      -0.00343822       0.00311717       0.00309443 </v>
   <v>      -0.00483461       0.00234932       0.00308892 </v>
   <v>      -0.00490996       0.00400383       0.00309923 </v>
   <v>       0.00581185      -0.00288965      -0.00727456 </v>
   <v>      -0.00126563      -0.00750161      -0.02225893 </v>
   <v>       0.00626544       0.00092449      -0.01479552 </v>
   <v>       0.00423613      -0.00315872       0.00018098 </v>
   <v>      -0.00146684       0.00138781      -0.02271843 </v>
   <v>       0.00580511      -0.00350388      -0.00727662 </v>
   <v>       0.00640395      -0.00734548      -0.01495837 </v>
   <v>       0.00429226      -0.00315931       0.00034546 </v>
   <v>       0.30051245      -0.00519615       0.19020223 </v>
   <v>      -0.03026658      -0.00312788      -0.00009417 </v>
   <v>       0.00854783       0.01920638      -0.00016200 </v>
   <v>       0.00884367      -0.02579489      -0.00001547 </v>
   <v>       0.00529761      -0.00323220      -0.00142135 </v>
   <v>       0.00427052      -0.00325383      -0.00097754 </v>
   <v>       0.00461253      -0.00303159      -0.00098185 </v>
   <v>       0.00457593      -0.00340643      -0.00097251 </v>
   <v>      -0.00995042       0.00552573      -0.00959199 </v>
   <v>      -0.00349041       0.00467618      -0.00603234 </v>
   <v>      -0.00598641      -0.00049037      -0.00783145 </v>
   <v>       0.00064555       0.00320576       0.00183481 </v>
   <v>      -0.00353224       0.00186115      -0.00603982 </v>
   <v>      -0.01009983       0.00081576      -0.00985048 </v>
   <v>      -0.00591288       0.00703694      -0.00793204 </v>
   <v>       0.00080250       0.00319788       0.00192150 </v>
  </varray>
  <varray name="stress" >
   <v>      -4.76553480      -0.02130730      -0.02370321 </v>
   <v>      -0.02130729      -4.30477835       0.00045497 </v>
   <v>      -0.02370326       0.00045496    1248.38549074 </v>
  </varray>
  <energy>
   <i name="e_fr_energy">   -275.55462620 </i>
   <i name="e_wo_entrp">   -275.54537438 </i>
   <i name="e_0_energy">     -0.01850363 </i>
  </energy>
  <time name="totalsc"> 1314.00 1315.10</time>
  <eigenvalues>
   <array>
    <dimension dim="1">band</dimension>
    <dimension dim="2">kpoint</dimension>
    <dimension dim="3">spin</dimension>
    <field>eigene</field>
    <field>occ</field>
    <set>
     <set comment="spin 1">
      <set comment="kpoint 1">
       <r>  -12.0758    1.0000 </r>
       <r>  -10.6685    1.0000 </r>
       <r>  -10.6641    1.0000 </r>
       <r>   -8.1549    1.0000 </r>
       <r>   -6.4024    1.0000 </r>
       <r>   -6.3993    1.0000 </r>
       <r>   -6.3960    1.0000 </r>
       <r>   -5.5793    1.0000 </r>
       <r>   -5.5764    1.0000 </r>
       <r>   -5.5738    1.0000 </r>
       <r>   -5.2496    1.0000 </r>
       <r>   -5.2448    1.0000 </r>
       <r>   -5.2438    1.0000 </r>
       <r>   -5.2428    1.0000 </r>
       <r>   -5.2419    1.0000 </r>
       <r>   -5.2369    1.0000 </r>
       <r>   -4.2040    1.0000 </r>
       <r>   -4.1978    1.0000 </r>
       <r>   -4.1968    1.0000 </r>
       <r>   -4.1964    1.0000 </r>
       <r>   -4.1964    1.0000 </r>
       <r>   -4.1898    1.0000 </r>
       <r>   -2.9142    1.0000 </r>
       <r>   -2.9112    1.0000 </r>
       <r>   -2.9078    1.0000 </r>
       <r>   -2.6464    1.0000 </r>
       <r>   -2.6427    1.0000 </r>
       <r>   -2.6394    1.0000 </r>
       <r>   -2.1731    1.0000 </r>
       <r>    2.2536    1.0000 </r>
       <r>    2.2565    1.0000 </r>
       <r>    2.2612    1.0000 </r>
       <r>    2.9374    1.0000 </r>
       <r>    2.9403    1.0000 </r>
       <r>    2.9432    1.0000 </r>
       <r>    2.9439    1.0000 </r>
       <r>    2.9445    1.0000 </r>
       <r>    2.9454    1.0000 </r>
       <r>    2.9466    1.0000 </r>
       <r>    2.9519    1.0000 </r>
       <r>    3.7294    1.0000 </r>
       <r>    3.7332    1.0000 </r>
       <r>    3.7377    1.0000 </r>
       <r>    3.7771    1.0000 </r>
       <r>    3.7802    1.0000 </r>
       <r>    3.7826    1.0000 </r>
       <r>    6.0338    1.0000 </r>
       <r>    6.0476    1.0000 </r>
       <r>    6.3574    1.0000 </r>
       <r>    6.3662    1.0000 </r>
       <r>    6.3710    1.0000 </r>
       <r>    6.3799    1.0000 </r>
       <r>    6.5182    1.0000 </r>
       <r>    6.5218    1.0000 </r>
       <r>    6.5243    1.0000 </r>
       <r>    6.6801    1.0000 </r>
       <r>    6.6929    1.0000 </r>
       <r>    7.6685    1.0000 </r>
       <r>    7.6721    1.0000 </r>
       <r>    7.6737    1.0000 </r>
       <r>    7.6738    1.0000 </r>
       <r>    7.6755    1.0000 </r>
       <r>    7.6792    1.0000 </r>
       <r>    8.5288    1.0000 </r>
       <r>   11.1756    0.0000 </r>
       <r>   11.1875    0.0000 </r>
       <r>   11.1878    0.0000 </r>
       <r>   11.1884    0.0000 </r>
       <r>   11.1896    0.0000 </r>
       <r>   11.2007    0.0000 </r>
       <r>   13.5571    0.0000 </r>
       <r>   13.5595    0.0000 </r>
       <r>   13.5619    0.0000 </r>
       <r>   14.5371    0.0000 </r>
       <r>   14.5420    0.0000 </r>
       <r>   14.5471    0.0000 </r>
       <r>   14.6831    0.0000 </r>
       <r>   14.6842    0.0000 </r>
       <r>   14.6855    0.0000 </r>
       <r>   16.7041    0.0000 </r>
       <r>   16.7119    0.0000 </r>
       <r>   16.7122    0.0000 </r>
       <r>   16.7136    0.0000 </r>
       <r>   16.7188    0.0000 </r>
      </set>
      <set comment="kpoint 2">
       <r>  -11.9984    1.0000 </r>
       <r>  -10.5931    1.0000 </r>
       <r>  -10.5887    1.0000 </r>
       <r>   -8.0874    1.0000 </r>
       <r>   -7.2799    1.0000 </r>
       <r>   -6.6851    1.0000 </r>
       <r>   -6.6818    1.0000 </r>
       <r>   -6.0314    1.0000 </r>
       <r>   -6.0276    1.0000 </r>
       <r>   -5.4803    1.0000 </r>
       <r>   -5.4774    1.0000 </r>
       <r>   -5.4758    1.0000 </r>
       <r>   -5.4723    1.0000 </r>
       <r>   -5.1812    1.0000 </r>
       <r>   -5.1784    1.0000 </r>
       <r>   -4.7110    1.0000 </r>
       <r>   -3.8452    1.0000 </r>
       <r>   -3.8403    1.0000 </r>
       <r>   -3.8391    1.0000 </r>
       <r>   -3.8369    1.0000 </r>
       <r>   -3.6998    1.0000 </r>
       <r>   -3.3003    1.0000 </r>
       <r>   -3.2962    1.0000 </r>
       <r>   -3.2688    1.0000 </r>
       <r>   -3.2659    1.0000 </r>
       <r>   -2.1673    1.0000 </r>
       <r>   -2.1639    1.0000 </r>
       <r>   -2.0818    1.0000 </r>
       <r>   -1.6171    1.0000 </r>
       <r>    1.9915    1.0000 </r>
       <r>    1.9968    1.0000 </r>
       <r>    2.3301    1.0000 </r>
       <r>    2.6981    1.0000 </r>
       <r>    2.7000    1.0000 </r>
       <r>    2.7024    1.0000 </r>
       <r>    2.7075    1.0000 </r>
       <r>    3.0125    1.0000 </r>
       <r>    3.0165    1.0000 </r>
       <r>    3.0171    1.0000 </r>
       <r>    3.0220    1.0000 </r>
       <r>    3.1705    1.0000 </r>
       <r>    3.5424    1.0000 </r>
       <r>    3.5482    1.0000 </r>
       <r>    3.6605    1.0000 </r>
       <r>    3.6639    1.0000 </r>
       <r>    3.8007    1.0000 </r>
       <r>    5.6674    1.0000 </r>
       <r>    5.8246    1.0000 </r>
       <r>    6.0629    1.0000 </r>
       <r>    6.0702    1.0000 </r>
       <r>    6.2003    1.0000 </r>
       <r>    6.2075    1.0000 </r>
       <r>    6.4640    1.0000 </r>
       <r>    6.5852    1.0000 </r>
       <r>    6.7793    1.0000 </r>
       <r>    6.7833    1.0000 </r>
       <r>    7.2125    1.0000 </r>
       <r>    7.2993    1.0000 </r>
       <r>    7.3030    1.0000 </r>
       <r>    7.6286    1.0000 </r>
       <r>    7.6305    1.0000 </r>
       <r>    7.6321    1.0000 </r>
       <r>    7.6365    1.0000 </r>
       <r>    8.5891    1.0000 </r>
       <r>   11.3050    0.0000 </r>
       <r>   11.3152    0.0000 </r>
       <r>   11.3163    0.0000 </r>
       <r>   11.3210    0.0000 </r>
       <r>   11.6252    0.0000 </r>
       <r>   11.6333    0.0000 </r>
       <r>   13.1586    0.0000 </r>
       <r>   13.2243    0.0000 </r>
       <r>   13.2267    0.0000 </r>
       <r>   14.6000    0.0000 </r>
       <r>   14.8289    0.0000 </r>
       <r>   14.8309    0.0000 </r>
       <r>   14.9315    0.0000 </r>
       <r>   14.9389    0.0000 </r>
       <r>   15.1917    0.0000 </r>
       <r>   16.7963    0.0000 </r>
       <r>   16.8004    0.0000 </r>
       <r>   17.0315    0.0000 </r>
       <r>   17.0389    0.0000 </r>
       <r>   17.0603    0.0000 </r>
      </set>
      <set comment="kpoint 3">
       <r>  -11.7664    1.0000 </r>
       <r>  -10.3671    1.0000 </r>
       <r>  -10.3627    1.0000 </r>
       <r>   -8.3592    1.0000 </r>
       <r>   -7.8855    1.0000 </r>
       <r>   -7.0693    1.0000 </r>
       <r>   -7.0669    1.0000 </r>
       <r>   -7.0631    1.0000 </r>
       <r>   -7.0589    1.0000 </r>
       <r>   -5.8297    1.0000 </r>
       <r>   -5.8272    1.0000 </r>
       <r>   -5.8253    1.0000 </r>
       <r>   -5.8224    1.0000 </r>
       <r>   -4.9750    1.0000 </r>
       <r>   -4.5209    1.0000 </r>
       <r>   -4.5192    1.0000 </r>
       <r>   -3.5285    1.0000 </r>
       <r>   -3.5255    1.0000 </r>
       <r>   -3.1287    1.0000 </r>
       <r>   -3.1245    1.0000 </r>
       <r>   -3.1232    1.0000 </r>
       <r>   -3.1208    1.0000 </r>
       <r>   -2.9534    1.0000 </r>
       <r>   -1.9396    1.0000 </r>
       <r>   -1.9356    1.0000 </r>
       <r>   -1.8091    1.0000 </r>
       <r>   -1.5027    1.0000 </r>
       <r>   -1.4992    1.0000 </r>
       <r>   -0.3757    1.0000 </r>
       <r>    1.3125    1.0000 </r>
       <r>    1.3171    1.0000 </r>
       <r>    2.0495    1.0000 </r>
       <r>    2.0516    1.0000 </r>
       <r>    2.0536    1.0000 </r>
       <r>    2.0578    1.0000 </r>
       <r>    2.0884    1.0000 </r>
       <r>    2.5543    1.0000 </r>
       <r>    3.0218    1.0000 </r>
       <r>    3.0272    1.0000 </r>
       <r>    3.2284    1.0000 </r>
       <r>    3.2328    1.0000 </r>
       <r>    3.2414    1.0000 </r>
       <r>    3.2465    1.0000 </r>
       <r>    3.4169    1.0000 </r>
       <r>    3.4198    1.0000 </r>
       <r>    4.0055    1.0000 </r>
       <r>    4.6771    1.0000 </r>
       <r>    5.2263    1.0000 </r>
       <r>    5.2327    1.0000 </r>
       <r>    5.3090    1.0000 </r>
       <r>    5.7766    1.0000 </r>
       <r>    5.7838    1.0000 </r>
       <r>    5.7966    1.0000 </r>
       <r>    6.2796    1.0000 </r>
       <r>    6.5167    1.0000 </r>
       <r>    6.5201    1.0000 </r>
       <r>    7.4460    1.0000 </r>
       <r>    7.4495    1.0000 </r>
       <r>    7.5296    1.0000 </r>
       <r>    7.5310    1.0000 </r>
       <r>    7.5335    1.0000 </r>
       <r>    7.5383    1.0000 </r>
       <r>    8.4650    1.0000 </r>
       <r>    8.7658    1.0000 </r>
       <r>   11.6154    0.0000 </r>
       <r>   11.6245    0.0000 </r>
       <r>   11.6256    0.0000 </r>
       <r>   11.6296    0.0000 </r>
       <r>   12.4817    0.0000 </r>
       <r>   12.4835    0.0000 </r>
       <r>   12.5941    0.0000 </r>
       <r>   12.5996    0.0000 </r>
       <r>   12.6594    0.0000 </r>
       <r>   14.7795    0.0000 </r>
       <r>   15.0292    0.0000 </r>
       <r>   15.0312    0.0000 </r>
       <r>   16.0042    0.0000 </r>
       <r>   16.0116    0.0000 </r>
       <r>   16.0784    0.0000 </r>
       <r>   16.8900    0.0000 </r>
       <r>   17.0590    0.0000 </r>
       <r>   17.0632    0.0000 </r>
       <r>   17.0805    0.0000 </r>
       <r>   17.0868    0.0000 </r>
      </set>
      <set comment="kpoint 4">
       <r>  -11.3809    1.0000 </r>
       <r>   -9.9918    1.0000 </r>
       <r>   -9.9875    1.0000 </r>
       <r>   -9.3263    1.0000 </r>
       <r>   -7.9976    1.0000 </r>
       <r>   -7.9935    1.0000 </r>
       <r>   -7.5501    1.0000 </r>
       <r>   -7.3462    1.0000 </r>
       <r>   -7.3438    1.0000 </r>
       <r>   -6.0910    1.0000 </r>
       <r>   -6.0886    1.0000 </r>
       <r>   -6.0866    1.0000 </r>
       <r>   -6.0839    1.0000 </r>
       <r>   -5.7753    1.0000 </r>
       <r>   -4.2135    1.0000 </r>
       <r>   -4.2114    1.0000 </r>
       <r>   -3.1947    1.0000 </r>
       <r>   -3.1906    1.0000 </r>
       <r>   -2.2931    1.0000 </r>
       <r>   -2.2888    1.0000 </r>
       <r>   -2.2874    1.0000 </r>
       <r>   -2.2851    1.0000 </r>
       <r>   -1.4497    1.0000 </r>
       <r>   -1.3569    1.0000 </r>
       <r>   -0.9111    1.0000 </r>
       <r>   -0.9081    1.0000 </r>
       <r>   -0.4748    1.0000 </r>
       <r>   -0.4706    1.0000 </r>
       <r>    0.5521    1.0000 </r>
       <r>    0.5548    1.0000 </r>
       <r>    0.9320    1.0000 </r>
       <r>    1.0166    1.0000 </r>
       <r>    1.1837    1.0000 </r>
       <r>    1.1856    1.0000 </r>
       <r>    1.1872    1.0000 </r>
       <r>    1.1923    1.0000 </r>
       <r>    2.2882    1.0000 </r>
       <r>    2.2932    1.0000 </r>
       <r>    2.9198    1.0000 </r>
       <r>    3.1968    1.0000 </r>
       <r>    3.1997    1.0000 </r>
       <r>    3.3147    1.0000 </r>
       <r>    3.5240    1.0000 </r>
       <r>    3.5289    1.0000 </r>
       <r>    3.5796    1.0000 </r>
       <r>    3.5839    1.0000 </r>
       <r>    4.1184    1.0000 </r>
       <r>    4.1229    1.0000 </r>
       <r>    4.3362    1.0000 </r>
       <r>    4.6638    1.0000 </r>
       <r>    4.7890    1.0000 </r>
       <r>    5.2095    1.0000 </r>
       <r>    5.2153    1.0000 </r>
       <r>    5.6697    1.0000 </r>
       <r>    5.6734    1.0000 </r>
       <r>    5.8132    1.0000 </r>
       <r>    7.4289    1.0000 </r>
       <r>    7.4303    1.0000 </r>
       <r>    7.4333    1.0000 </r>
       <r>    7.4383    1.0000 </r>
       <r>    8.3491    1.0000 </r>
       <r>    8.3519    1.0000 </r>
       <r>    9.0423    1.0000 </r>
       <r>    9.4490    1.0000 </r>
       <r>   11.5363    0.0000 </r>
       <r>   11.5374    0.0000 </r>
       <r>   11.9544    0.0000 </r>
       <r>   11.9621    0.0000 </r>
       <r>   11.9629    0.0000 </r>
       <r>   11.9657    0.0000 </r>
       <r>   12.6782    0.0000 </r>
       <r>   13.7036    0.0000 </r>
       <r>   13.7074    0.0000 </r>
       <r>   15.0724    0.0000 </r>
       <r>   15.1448    0.0000 </r>
       <r>   15.1466    0.0000 </r>
       <r>   16.4433    0.0000 </r>
       <r>   16.4874    0.0000 </r>
       <r>   16.4926    0.0000 </r>
       <r>   16.6209    0.0000 </r>
       <r>   17.0596    0.0000 </r>
       <r>   17.4989    0.0000 </r>
       <r>   17.5180    0.0000 </r>
       <r>   17.5481    0.0000 </r>
      </set>
      <set comment="kpoint 5">
       <r>  -10.8436    1.0000 </r>
       <r>  -10.1572    1.0000 </r>
       <r>   -9.4693    1.0000 </r>
       <r>   -9.4651    1.0000 </r>
       <r>   -8.8027    1.0000 </r>
       <r>   -8.7985    1.0000 </r>
       <r>   -7.4883    1.0000 </r>
       <r>   -7.4859    1.0000 </r>
       <r>   -7.0834    1.0000 </r>
       <r>   -6.4892    1.0000 </r>
       <r>   -6.2264    1.0000 </r>
       <r>   -6.2241    1.0000 </r>
       <r>   -6.2221    1.0000 </r>
       <r>   -6.2194    1.0000 </r>
       <r>   -4.2453    1.0000 </r>
       <r>   -4.2429    1.0000 </r>
       <r>   -2.4090    1.0000 </r>
       <r>   -2.4052    1.0000 </r>
       <r>   -1.5242    1.0000 </r>
       <r>   -1.5193    1.0000 </r>
       <r>   -1.5180    1.0000 </r>
       <r>   -1.5165    1.0000 </r>
       <r>   -1.0839    1.0000 </r>
       <r>   -1.0809    1.0000 </r>
       <r>   -0.7292    1.0000 </r>
       <r>    0.0668    1.0000 </r>
       <r>    0.1491    1.0000 </r>
       <r>    0.3732    1.0000 </r>
       <r>    0.3746    1.0000 </r>
       <r>    0.3759    1.0000 </r>
       <r>    0.3804    1.0000 </r>
       <r>    0.5713    1.0000 </r>
       <r>    0.5743    1.0000 </r>
       <r>    1.0343    1.0000 </r>
       <r>    1.0386    1.0000 </r>
       <r>    1.5029    1.0000 </r>
       <r>    1.5069    1.0000 </r>
       <r>    1.7647    1.0000 </r>
       <r>    2.2666    1.0000 </r>
       <r>    2.5202    1.0000 </r>
       <r>    2.5251    1.0000 </r>
       <r>    3.0740    1.0000 </r>
       <r>    3.0770    1.0000 </r>
       <r>    3.4127    1.0000 </r>
       <r>    3.5768    1.0000 </r>
       <r>    4.0076    1.0000 </r>
       <r>    4.0491    1.0000 </r>
       <r>    4.0534    1.0000 </r>
       <r>    4.2389    1.0000 </r>
       <r>    4.2430    1.0000 </r>
       <r>    4.6077    1.0000 </r>
       <r>    4.6130    1.0000 </r>
       <r>    4.7734    1.0000 </r>
       <r>    4.8902    1.0000 </r>
       <r>    4.8942    1.0000 </r>
       <r>    5.2839    1.0000 </r>
       <r>    7.3685    1.0000 </r>
       <r>    7.3699    1.0000 </r>
       <r>    7.3732    1.0000 </r>
       <r>    7.3783    1.0000 </r>
       <r>    9.3731    1.0000 </r>
       <r>    9.3763    1.0000 </r>
       <r>    9.3767    1.0000 </r>
       <r>    9.6396    0.9400 </r>
       <r>   10.4892    0.0000 </r>
       <r>   10.4902    0.0000 </r>
       <r>   12.1724    0.0000 </r>
       <r>   12.1792    0.0000 </r>
       <r>   12.1797    0.0000 </r>
       <r>   12.1810    0.0000 </r>
       <r>   13.6418    0.0000 </r>
       <r>   14.7696    0.0000 </r>
       <r>   14.7729    0.0000 </r>
       <r>   15.1224    0.0000 </r>
       <r>   15.1883    0.0000 </r>
       <r>   15.1899    0.0000 </r>
       <r>   15.4668    0.0000 </r>
       <r>   15.7072    0.0000 </r>
       <r>   15.7115    0.0000 </r>
       <r>   15.9393    0.0000 </r>
       <r>   18.0843    0.0000 </r>
       <r>   18.0888    0.0000 </r>
       <r>   18.0969    0.0000 </r>
       <r>   18.7362    0.0000 </r>
      </set>
      <set comment="kpoint 6">
       <r>  -11.9984    1.0000 </r>
       <r>  -10.5931    1.0000 </r>
       <r>  -10.5887    1.0000 </r>
       <r>   -8.0874    1.0000 </r>
       <r>   -7.2798    1.0000 </r>
       <r>   -6.6853    1.0000 </r>
       <r>   -6.6818    1.0000 </r>
       <r>   -6.0313    1.0000 </r>
       <r>   -6.0275    1.0000 </r>
       <r>   -5.4806    1.0000 </r>
       <r>   -5.4774    1.0000 </r>
       <r>   -5.4760    1.0000 </r>
       <r>   -5.4727    1.0000 </r>
       <r>   -5.1816    1.0000 </r>
       <r>   -5.1775    1.0000 </r>
       <r>   -4.7108    1.0000 </r>
       <r>   -3.8453    1.0000 </r>
       <r>   -3.8402    1.0000 </r>
       <r>   -3.8389    1.0000 </r>
       <r>   -3.8338    1.0000 </r>
       <r>   -3.7014    1.0000 </r>
       <r>   -3.3011    1.0000 </r>
       <r>   -3.2979    1.0000 </r>
       <r>   -3.2693    1.0000 </r>
       <r>   -3.2644    1.0000 </r>
       <r>   -2.1679    1.0000 </r>
       <r>   -2.1620    1.0000 </r>
       <r>   -2.0818    1.0000 </r>
       <r>   -1.6183    1.0000 </r>
       <r>    1.9901    1.0000 </r>
       <r>    1.9965    1.0000 </r>
       <r>    2.3318    1.0000 </r>
       <r>    2.6956    1.0000 </r>
       <r>    2.6998    1.0000 </r>
       <r>    2.7024    1.0000 </r>
       <r>    2.7065    1.0000 </r>
       <r>    3.0150    1.0000 </r>
       <r>    3.0163    1.0000 </r>
       <r>    3.0182    1.0000 </r>
       <r>    3.0222    1.0000 </r>
       <r>    3.1716    1.0000 </r>
       <r>    3.5409    1.0000 </r>
       <r>    3.5478    1.0000 </r>
       <r>    3.6595    1.0000 </r>
       <r>    3.6634    1.0000 </r>
       <r>    3.8026    1.0000 </r>
       <r>    5.6636    1.0000 </r>
       <r>    5.8284    1.0000 </r>
       <r>    6.0622    1.0000 </r>
       <r>    6.0631    1.0000 </r>
       <r>    6.2073    1.0000 </r>
       <r>    6.2085    1.0000 </r>
       <r>    6.4603    1.0000 </r>
       <r>    6.5890    1.0000 </r>
       <r>    6.7795    1.0000 </r>
       <r>    6.7843    1.0000 </r>
       <r>    7.2119    1.0000 </r>
       <r>    7.3012    1.0000 </r>
       <r>    7.3034    1.0000 </r>
       <r>    7.6269    1.0000 </r>
       <r>    7.6303    1.0000 </r>
       <r>    7.6320    1.0000 </r>
       <r>    7.6356    1.0000 </r>
       <r>    8.5891    1.0000 </r>
       <r>   11.3064    0.0000 </r>
       <r>   11.3154    0.0000 </r>
       <r>   11.3161    0.0000 </r>
       <r>   11.3248    0.0000 </r>
       <r>   11.6237    0.0000 </r>
       <r>   11.6303    0.0000 </r>
       <r>   13.1567    0.0000 </r>
       <r>   13.2243    0.0000 </r>
       <r>   13.2282    0.0000 </r>
       <r>   14.6008    0.0000 </r>
       <r>   14.8285    0.0000 </r>
       <r>   14.8316    0.0000 </r>
       <r>   14.9315    0.0000 </r>
       <r>   14.9380    0.0000 </r>
       <r>   15.1915    0.0000 </r>
       <r>   16.7970    0.0000 </r>
       <r>   16.8002    0.0000 </r>
       <r>   17.0358    0.0000 </r>
       <r>   17.0394    0.0000 </r>
       <r>   17.1057    0.0000 </r>
      </set>
      <set comment="kpoint 7">
       <r>  -11.8437    1.0000 </r>
       <r>  -10.4423    1.0000 </r>
       <r>  -10.4379    1.0000 </r>
       <r>   -7.9527    1.0000 </r>
       <r>   -7.7781    1.0000 </r>
       <r>   -7.7740    1.0000 </r>
       <r>   -6.5065    1.0000 </r>
       <r>   -6.5020    1.0000 </r>
       <r>   -6.5013    1.0000 </r>
       <r>   -6.4964    1.0000 </r>
       <r>   -6.1969    1.0000 </r>
       <r>   -5.3707    1.0000 </r>
       <r>   -5.0510    1.0000 </r>
       <r>   -5.0475    1.0000 </r>
       <r>   -4.5793    1.0000 </r>
       <r>   -4.5761    1.0000 </r>
       <r>   -4.0099    1.0000 </r>
       <r>   -4.0051    1.0000 </r>
       <r>   -3.5336    1.0000 </r>
       <r>   -3.5303    1.0000 </r>
       <r>   -2.7405    1.0000 </r>
       <r>   -2.5996    1.0000 </r>
       <r>   -2.5959    1.0000 </r>
       <r>   -2.5956    1.0000 </r>
       <r>   -2.5893    1.0000 </r>
       <r>   -2.5091    1.0000 </r>
       <r>   -1.8998    1.0000 </r>
       <r>   -0.9828    1.0000 </r>
       <r>   -0.9781    1.0000 </r>
       <r>    1.2293    1.0000 </r>
       <r>    1.9776    1.0000 </r>
       <r>    1.9815    1.0000 </r>
       <r>    2.1443    1.0000 </r>
       <r>    2.1478    1.0000 </r>
       <r>    2.7029    1.0000 </r>
       <r>    2.7063    1.0000 </r>
       <r>    2.8404    1.0000 </r>
       <r>    2.8457    1.0000 </r>
       <r>    2.8464    1.0000 </r>
       <r>    2.8483    1.0000 </r>
       <r>    2.9573    1.0000 </r>
       <r>    3.1679    1.0000 </r>
       <r>    3.1730    1.0000 </r>
       <r>    3.6780    1.0000 </r>
       <r>    3.6819    1.0000 </r>
       <r>    4.0217    1.0000 </r>
       <r>    5.0569    1.0000 </r>
       <r>    5.3593    1.0000 </r>
       <r>    5.5214    1.0000 </r>
       <r>    5.5287    1.0000 </r>
       <r>    5.8773    1.0000 </r>
       <r>    5.8846    1.0000 </r>
       <r>    6.1044    1.0000 </r>
       <r>    6.3230    1.0000 </r>
       <r>    6.7594    1.0000 </r>
       <r>    6.9856    1.0000 </r>
       <r>    6.9903    1.0000 </r>
       <r>    6.9919    1.0000 </r>
       <r>    6.9935    1.0000 </r>
       <r>    7.8860    1.0000 </r>
       <r>    7.8883    1.0000 </r>
       <r>    7.9119    1.0000 </r>
       <r>    7.9168    1.0000 </r>
       <r>    8.7077    1.0000 </r>
       <r>   11.1732    0.0000 </r>
       <r>   11.1828    0.0000 </r>
       <r>   12.0840    0.0000 </r>
       <r>   12.0860    0.0000 </r>
       <r>   12.0876    0.0000 </r>
       <r>   12.0949    0.0000 </r>
       <r>   12.6745    0.0000 </r>
       <r>   12.7454    0.0000 </r>
       <r>   12.7485    0.0000 </r>
       <r>   14.7594    0.0000 </r>
       <r>   15.0493    0.0000 </r>
       <r>   15.0547    0.0000 </r>
       <r>   15.5200    0.0000 </r>
       <r>   15.5227    0.0000 </r>
       <r>   15.9511    0.0000 </r>
       <r>   17.1651    0.0000 </r>
       <r>   17.2027    0.0000 </r>
       <r>   17.2042    0.0000 </r>
       <r>   17.2250    0.0000 </r>
       <r>   17.2643    0.0000 </r>
      </set>
      <set comment="kpoint 8">
       <r>  -11.5350    1.0000 </r>
       <r>  -10.1417    1.0000 </r>
       <r>  -10.1373    1.0000 </r>
       <r>   -8.8035    1.0000 </r>
       <r>   -8.1400    1.0000 </r>
       <r>   -7.6841    1.0000 </r>
       <r>   -7.4921    1.0000 </r>
       <r>   -7.4880    1.0000 </r>
       <r>   -6.8523    1.0000 </r>
       <r>   -6.8483    1.0000 </r>
       <r>   -6.2707    1.0000 </r>
       <r>   -5.3337    1.0000 </r>
       <r>   -5.0837    1.0000 </r>
       <r>   -5.0801    1.0000 </r>
       <r>   -4.7896    1.0000 </r>
       <r>   -4.7811    1.0000 </r>
       <r>   -3.4824    1.0000 </r>
       <r>   -3.4779    1.0000 </r>
       <r>   -2.9470    1.0000 </r>
       <r>   -2.7860    1.0000 </r>
       <r>   -2.1816    1.0000 </r>
       <r>   -1.9371    1.0000 </r>
       <r>   -1.7927    1.0000 </r>
       <r>   -1.7896    1.0000 </r>
       <r>   -1.5373    1.0000 </r>
       <r>   -1.1824    1.0000 </r>
       <r>   -1.1784    1.0000 </r>
       <r>   -0.3227    1.0000 </r>
       <r>    0.2813    1.0000 </r>
       <r>    0.2839    1.0000 </r>
       <r>    1.0201    1.0000 </r>
       <r>    1.0242    1.0000 </r>
       <r>    1.5827    1.0000 </r>
       <r>    1.6055    1.0000 </r>
       <r>    2.1496    1.0000 </r>
       <r>    2.2767    1.0000 </r>
       <r>    2.2792    1.0000 </r>
       <r>    2.3414    1.0000 </r>
       <r>    2.4539    1.0000 </r>
       <r>    3.1300    1.0000 </r>
       <r>    3.1342    1.0000 </r>
       <r>    3.2290    1.0000 </r>
       <r>    3.4475    1.0000 </r>
       <r>    3.4527    1.0000 </r>
       <r>    3.9487    1.0000 </r>
       <r>    3.9589    1.0000 </r>
       <r>    4.1369    1.0000 </r>
       <r>    4.5788    1.0000 </r>
       <r>    4.5856    1.0000 </r>
       <r>    4.6365    1.0000 </r>
       <r>    5.3225    1.0000 </r>
       <r>    5.3302    1.0000 </r>
       <r>    5.3877    1.0000 </r>
       <r>    5.8771    1.0000 </r>
       <r>    6.1477    1.0000 </r>
       <r>    6.1511    1.0000 </r>
       <r>    6.7428    1.0000 </r>
       <r>    6.7455    1.0000 </r>
       <r>    7.2521    1.0000 </r>
       <r>    8.0974    1.0000 </r>
       <r>    8.1018    1.0000 </r>
       <r>    8.7044    1.0000 </r>
       <r>    8.9357    1.0000 </r>
       <r>    9.0978    1.0000 </r>
       <r>   11.1885    0.0000 </r>
       <r>   11.1971    0.0000 </r>
       <r>   11.6815    0.0000 </r>
       <r>   12.1646    0.0000 </r>
       <r>   12.4616    0.0000 </r>
       <r>   12.5915    0.0000 </r>
       <r>   12.5961    0.0000 </r>
       <r>   13.1622    0.0000 </r>
       <r>   13.1666    0.0000 </r>
       <r>   14.8727    0.0000 </r>
       <r>   15.2874    0.0000 </r>
       <r>   15.6609    0.0000 </r>
       <r>   16.1819    0.0000 </r>
       <r>   16.4108    0.0000 </r>
       <r>   16.8662    0.0000 </r>
       <r>   16.8740    0.0000 </r>
       <r>   16.9779    0.0000 </r>
       <r>   17.1217    0.0000 </r>
       <r>   17.4357    0.0000 </r>
       <r>   17.5368    0.0000 </r>
      </set>
      <set comment="kpoint 9">
       <r>  -11.0735    1.0000 </r>
       <r>   -9.7036    1.0000 </r>
       <r>   -9.6924    1.0000 </r>
       <r>   -9.6882    1.0000 </r>
       <r>   -8.3639    1.0000 </r>
       <r>   -8.3607    1.0000 </r>
       <r>   -8.3567    1.0000 </r>
       <r>   -7.2829    1.0000 </r>
       <r>   -7.0649    1.0000 </r>
       <r>   -7.0609    1.0000 </r>
       <r>   -6.4381    1.0000 </r>
       <r>   -6.0978    1.0000 </r>
       <r>   -5.2262    1.0000 </r>
       <r>   -5.2225    1.0000 </r>
       <r>   -4.9577    1.0000 </r>
       <r>   -3.9550    1.0000 </r>
       <r>   -3.0974    1.0000 </r>
       <r>   -2.6763    1.0000 </r>
       <r>   -2.6719    1.0000 </r>
       <r>   -1.9030    1.0000 </r>
       <r>   -1.6036    1.0000 </r>
       <r>   -0.9977    1.0000 </r>
       <r>   -0.9708    1.0000 </r>
       <r>   -0.9680    1.0000 </r>
       <r>   -0.6274    1.0000 </r>
       <r>   -0.2840    1.0000 </r>
       <r>   -0.0276    1.0000 </r>
       <r>    0.0279    1.0000 </r>
       <r>    0.0321    1.0000 </r>
       <r>    0.2974    1.0000 </r>
       <r>    0.3015    1.0000 </r>
       <r>    0.5896    1.0000 </r>
       <r>    1.2018    1.0000 </r>
       <r>    1.2542    1.0000 </r>
       <r>    1.5261    1.0000 </r>
       <r>    1.5289    1.0000 </r>
       <r>    1.5724    1.0000 </r>
       <r>    2.1140    1.0000 </r>
       <r>    2.5366    1.0000 </r>
       <r>    2.5746    1.0000 </r>
       <r>    2.9155    1.0000 </r>
       <r>    3.1637    1.0000 </r>
       <r>    3.1694    1.0000 </r>
       <r>    3.5484    1.0000 </r>
       <r>    3.5528    1.0000 </r>
       <r>    3.8292    1.0000 </r>
       <r>    4.0495    1.0000 </r>
       <r>    4.0531    1.0000 </r>
       <r>    4.1156    1.0000 </r>
       <r>    4.3370    1.0000 </r>
       <r>    4.4219    1.0000 </r>
       <r>    4.6949    1.0000 </r>
       <r>    4.7010    1.0000 </r>
       <r>    5.3265    1.0000 </r>
       <r>    5.3302    1.0000 </r>
       <r>    5.3533    1.0000 </r>
       <r>    6.5865    1.0000 </r>
       <r>    6.5894    1.0000 </r>
       <r>    8.1152    1.0000 </r>
       <r>    8.1871    1.0000 </r>
       <r>    8.1907    1.0000 </r>
       <r>    9.2472    1.0000 </r>
       <r>    9.5763    0.9929 </r>
       <r>    9.6905    0.7980 </r>
       <r>   10.5386    0.0000 </r>
       <r>   11.2728    0.0000 </r>
       <r>   11.2789    0.0000 </r>
       <r>   11.4636    0.0000 </r>
       <r>   12.9627    0.0000 </r>
       <r>   12.9902    0.0000 </r>
       <r>   12.9939    0.0000 </r>
       <r>   14.2785    0.0000 </r>
       <r>   14.2815    0.0000 </r>
       <r>   14.9758    0.0000 </r>
       <r>   15.6296    0.0000 </r>
       <r>   15.6659    0.0000 </r>
       <r>   15.7635    0.0000 </r>
       <r>   16.1884    0.0000 </r>
       <r>   16.1939    0.0000 </r>
       <r>   16.5366    0.0000 </r>
       <r>   17.3868    0.0000 </r>
       <r>   17.7721    0.0000 </r>
       <r>   18.0156    0.0000 </r>
       <r>   18.0192    0.0000 </r>
      </set>
      <set comment="kpoint 10">
       <r>  -10.4636    1.0000 </r>
       <r>  -10.4598    1.0000 </r>
       <r>   -9.1012    1.0000 </r>
       <r>   -9.0965    1.0000 </r>
       <r>   -9.0957    1.0000 </r>
       <r>   -9.0913    1.0000 </r>
       <r>   -8.4349    1.0000 </r>
       <r>   -7.1363    1.0000 </r>
       <r>   -7.1323    1.0000 </r>
       <r>   -6.7544    1.0000 </r>
       <r>   -6.7505    1.0000 </r>
       <r>   -6.5008    1.0000 </r>
       <r>   -5.2827    1.0000 </r>
       <r>   -5.2789    1.0000 </r>
       <r>   -5.0172    1.0000 </r>
       <r>   -3.5357    1.0000 </r>
       <r>   -3.0155    1.0000 </r>
       <r>   -2.1565    1.0000 </r>
       <r>   -2.1528    1.0000 </r>
       <r>   -1.9290    1.0000 </r>
       <r>   -1.2833    1.0000 </r>
       <r>   -0.5525    1.0000 </r>
       <r>   -0.5489    1.0000 </r>
       <r>   -0.4908    1.0000 </r>
       <r>   -0.4865    1.0000 </r>
       <r>   -0.3952    1.0000 </r>
       <r>   -0.2865    1.0000 </r>
       <r>   -0.2829    1.0000 </r>
       <r>    0.0565    1.0000 </r>
       <r>    0.5782    1.0000 </r>
       <r>    0.9689    1.0000 </r>
       <r>    0.9728    1.0000 </r>
       <r>    1.0558    1.0000 </r>
       <r>    1.0606    1.0000 </r>
       <r>    1.5061    1.0000 </r>
       <r>    1.7830    1.0000 </r>
       <r>    1.7834    1.0000 </r>
       <r>    1.7842    1.0000 </r>
       <r>    1.7920    1.0000 </r>
       <r>    2.0369    1.0000 </r>
       <r>    2.0456    1.0000 </r>
       <r>    2.8070    1.0000 </r>
       <r>    2.8124    1.0000 </r>
       <r>    3.5446    1.0000 </r>
       <r>    3.5515    1.0000 </r>
       <r>    4.0668    1.0000 </r>
       <r>    4.0794    1.0000 </r>
       <r>    4.0797    1.0000 </r>
       <r>    4.0812    1.0000 </r>
       <r>    4.0958    1.0000 </r>
       <r>    4.6048    1.0000 </r>
       <r>    4.6100    1.0000 </r>
       <r>    4.6130    1.0000 </r>
       <r>    4.6168    1.0000 </r>
       <r>    4.8158    1.0000 </r>
       <r>    4.8223    1.0000 </r>
       <r>    6.5331    1.0000 </r>
       <r>    6.5363    1.0000 </r>
       <r>    8.2114    1.0000 </r>
       <r>    8.2139    1.0000 </r>
       <r>    8.8979    1.0000 </r>
       <r>    9.5721    0.9939 </r>
       <r>    9.5746    0.9933 </r>
       <r>    9.6681    0.8752 </r>
       <r>   10.2047    0.0000 </r>
       <r>   10.8970    0.0000 </r>
       <r>   11.3190    0.0000 </r>
       <r>   11.3228    0.0000 </r>
       <r>   13.1415    0.0000 </r>
       <r>   13.1453    0.0000 </r>
       <r>   14.2608    0.0000 </r>
       <r>   14.2652    0.0000 </r>
       <r>   15.0132    0.0000 </r>
       <r>   15.3061    0.0000 </r>
       <r>   15.3086    0.0000 </r>
       <r>   15.3118    0.0000 </r>
       <r>   15.3166    0.0000 </r>
       <r>   15.6501    0.0000 </r>
       <r>   16.0568    0.0000 </r>
       <r>   16.0611    0.0000 </r>
       <r>   18.4293    0.0000 </r>
       <r>   18.4450    0.0000 </r>
       <r>   18.5748    0.0000 </r>
       <r>   18.5774    0.0000 </r>
      </set>
      <set comment="kpoint 11">
       <r>  -11.0736    1.0000 </r>
       <r>   -9.7034    1.0000 </r>
       <r>   -9.6925    1.0000 </r>
       <r>   -9.6884    1.0000 </r>
       <r>   -8.3627    1.0000 </r>
       <r>   -8.3608    1.0000 </r>
       <r>   -8.3578    1.0000 </r>
       <r>   -7.2831    1.0000 </r>
       <r>   -7.0652    1.0000 </r>
       <r>   -7.0612    1.0000 </r>
       <r>   -6.4380    1.0000 </r>
       <r>   -6.0976    1.0000 </r>
       <r>   -5.2261    1.0000 </r>
       <r>   -5.2224    1.0000 </r>
       <r>   -4.9578    1.0000 </r>
       <r>   -3.9541    1.0000 </r>
       <r>   -3.0948    1.0000 </r>
       <r>   -2.6729    1.0000 </r>
       <r>   -2.6699    1.0000 </r>
       <r>   -1.9063    1.0000 </r>
       <r>   -1.6046    1.0000 </r>
       <r>   -0.9978    1.0000 </r>
       <r>   -0.9742    1.0000 </r>
       <r>   -0.9702    1.0000 </r>
       <r>   -0.6275    1.0000 </r>
       <r>   -0.2837    1.0000 </r>
       <r>   -0.0267    1.0000 </r>
       <r>    0.0255    1.0000 </r>
       <r>    0.0283    1.0000 </r>
       <r>    0.2973    1.0000 </r>
       <r>    0.3017    1.0000 </r>
       <r>    0.5897    1.0000 </r>
       <r>    1.2013    1.0000 </r>
       <r>    1.2505    1.0000 </r>
       <r>    1.5286    1.0000 </r>
       <r>    1.5334    1.0000 </r>
       <r>    1.5735    1.0000 </r>
       <r>    2.1142    1.0000 </r>
       <r>    2.5357    1.0000 </r>
       <r>    2.5790    1.0000 </r>
       <r>    2.9142    1.0000 </r>
       <r>    3.1633    1.0000 </r>
       <r>    3.1673    1.0000 </r>
       <r>    3.5478    1.0000 </r>
       <r>    3.5528    1.0000 </r>
       <r>    3.8247    1.0000 </r>
       <r>    4.0495    1.0000 </r>
       <r>    4.0531    1.0000 </r>
       <r>    4.1149    1.0000 </r>
       <r>    4.3371    1.0000 </r>
       <r>    4.4268    1.0000 </r>
       <r>    4.6971    1.0000 </r>
       <r>    4.7014    1.0000 </r>
       <r>    5.3265    1.0000 </r>
       <r>    5.3303    1.0000 </r>
       <r>    5.3538    1.0000 </r>
       <r>    6.5866    1.0000 </r>
       <r>    6.5899    1.0000 </r>
       <r>    8.1175    1.0000 </r>
       <r>    8.1871    1.0000 </r>
       <r>    8.1890    1.0000 </r>
       <r>    9.2474    1.0000 </r>
       <r>    9.5761    0.9929 </r>
       <r>    9.6903    0.7991 </r>
       <r>   10.5379    0.0000 </r>
       <r>   11.2756    0.0000 </r>
       <r>   11.2800    0.0000 </r>
       <r>   11.4619    0.0000 </r>
       <r>   12.9634    0.0000 </r>
       <r>   12.9885    0.0000 </r>
       <r>   12.9932    0.0000 </r>
       <r>   14.2779    0.0000 </r>
       <r>   14.2817    0.0000 </r>
       <r>   14.9758    0.0000 </r>
       <r>   15.6288    0.0000 </r>
       <r>   15.6665    0.0000 </r>
       <r>   15.7624    0.0000 </r>
       <r>   16.1908    0.0000 </r>
       <r>   16.1949    0.0000 </r>
       <r>   16.5383    0.0000 </r>
       <r>   17.3873    0.0000 </r>
       <r>   17.7778    0.0000 </r>
       <r>   18.0151    0.0000 </r>
       <r>   18.0189    0.0000 </r>
      </set>
      <set comment="kpoint 12">
       <r>  -11.5350    1.0000 </r>
       <r>  -10.1417    1.0000 </r>
       <r>  -10.1374    1.0000 </r>
       <r>   -8.8033    1.0000 </r>
       <r>   -8.1404    1.0000 </r>
       <r>   -7.6841    1.0000 </r>
       <r>   -7.4919    1.0000 </r>
       <r>   -7.4878    1.0000 </r>
       <r>   -6.8527    1.0000 </r>
       <r>   -6.8487    1.0000 </r>
       <r>   -6.2705    1.0000 </r>
       <r>   -5.3336    1.0000 </r>
       <r>   -5.0837    1.0000 </r>
       <r>   -5.0802    1.0000 </r>
       <r>   -4.7899    1.0000 </r>
       <r>   -4.7790    1.0000 </r>
       <r>   -3.4783    1.0000 </r>
       <r>   -3.4754    1.0000 </r>
       <r>   -2.9451    1.0000 </r>
       <r>   -2.7895    1.0000 </r>
       <r>   -2.1818    1.0000 </r>
       <r>   -1.9349    1.0000 </r>
       <r>   -1.7962    1.0000 </r>
       <r>   -1.7921    1.0000 </r>
       <r>   -1.5374    1.0000 </r>
       <r>   -1.1826    1.0000 </r>
       <r>   -1.1784    1.0000 </r>
       <r>   -0.3251    1.0000 </r>
       <r>    0.2791    1.0000 </r>
       <r>    0.2829    1.0000 </r>
       <r>    1.0169    1.0000 </r>
       <r>    1.0195    1.0000 </r>
       <r>    1.5863    1.0000 </r>
       <r>    1.6057    1.0000 </r>
       <r>    2.1454    1.0000 </r>
       <r>    2.2801    1.0000 </r>
       <r>    2.2846    1.0000 </r>
       <r>    2.3417    1.0000 </r>
       <r>    2.4534    1.0000 </r>
       <r>    3.1299    1.0000 </r>
       <r>    3.1343    1.0000 </r>
       <r>    3.2336    1.0000 </r>
       <r>    3.4475    1.0000 </r>
       <r>    3.4526    1.0000 </r>
       <r>    3.9485    1.0000 </r>
       <r>    3.9572    1.0000 </r>
       <r>    4.1356    1.0000 </r>
       <r>    4.5773    1.0000 </r>
       <r>    4.5805    1.0000 </r>
       <r>    4.6341    1.0000 </r>
       <r>    5.3282    1.0000 </r>
       <r>    5.3317    1.0000 </r>
       <r>    5.3906    1.0000 </r>
       <r>    5.8789    1.0000 </r>
       <r>    6.1477    1.0000 </r>
       <r>    6.1512    1.0000 </r>
       <r>    6.7429    1.0000 </r>
       <r>    6.7463    1.0000 </r>
       <r>    7.2552    1.0000 </r>
       <r>    8.0971    1.0000 </r>
       <r>    8.0991    1.0000 </r>
       <r>    8.7035    1.0000 </r>
       <r>    8.9358    1.0000 </r>
       <r>    9.0977    1.0000 </r>
       <r>   11.1930    0.0000 </r>
       <r>   11.1994    0.0000 </r>
       <r>   11.6815    0.0000 </r>
       <r>   12.1623    0.0000 </r>
       <r>   12.4618    0.0000 </r>
       <r>   12.5887    0.0000 </r>
       <r>   12.5946    0.0000 </r>
       <r>   13.1619    0.0000 </r>
       <r>   13.1669    0.0000 </r>
       <r>   14.8729    0.0000 </r>
       <r>   15.2869    0.0000 </r>
       <r>   15.6616    0.0000 </r>
       <r>   16.1874    0.0000 </r>
       <r>   16.4114    0.0000 </r>
       <r>   16.8714    0.0000 </r>
       <r>   16.8760    0.0000 </r>
       <r>   16.9806    0.0000 </r>
       <r>   17.1201    0.0000 </r>
       <r>   17.4302    0.0000 </r>
       <r>   17.5388    0.0000 </r>
      </set>
      <set comment="kpoint 13">
       <r>  -11.8437    1.0000 </r>
       <r>  -10.4424    1.0000 </r>
       <r>  -10.4380    1.0000 </r>
       <r>   -7.9528    1.0000 </r>
       <r>   -7.7767    1.0000 </r>
       <r>   -7.7758    1.0000 </r>
[...]
       <r>    0.5927    1.0000 </r>
       <r>    0.5952    1.0000 </r>
       <r>    0.8231    1.0000 </r>
       <r>    0.8264    1.0000 </r>
       <r>    1.1078    1.0000 </r>
       <r>    1.1108    1.0000 </r>
       <r>    1.1269    1.0000 </r>
       <r>    1.1283    1.0000 </r>
       <r>    2.1701    1.0000 </r>
       <r>    2.1715    1.0000 </r>
       <r>    2.2218    1.0000 </r>
       <r>    2.2256    1.0000 </r>
       <r>    2.7358    1.0000 </r>
       <r>    2.7376    1.0000 </r>
       <r>    3.0828    1.0000 </r>
       <r>    3.0844    1.0000 </r>
       <r>    3.5805    1.0000 </r>
       <r>    3.5814    1.0000 </r>
       <r>    3.7598    1.0000 </r>
       <r>    3.7643    1.0000 </r>
       <r>    4.0944    1.0000 </r>
       <r>    4.0959    1.0000 </r>
       <r>    4.3808    1.0000 </r>
       <r>    4.3861    1.0000 </r>
       <r>    5.1496    1.0000 </r>
       <r>    5.1514    1.0000 </r>
       <r>    5.4720    1.0000 </r>
       <r>    5.4732    1.0000 </r>
       <r>    7.4997    1.0000 </r>
       <r>    7.5050    1.0000 </r>
       <r>    8.4797    1.0000 </r>
       <r>    8.4842    1.0000 </r>
       <r>    8.8379    1.0000 </r>
       <r>    8.8404    1.0000 </r>
       <r>    9.1909    1.0000 </r>
       <r>    9.1949    1.0000 </r>
       <r>   10.6720    0.0000 </r>
       <r>   10.6758    0.0000 </r>
       <r>   11.6329    0.0000 </r>
       <r>   11.6383    0.0000 </r>
       <r>   13.1313    0.0000 </r>
       <r>   13.1354    0.0000 </r>
       <r>   13.2695    0.0000 </r>
       <r>   13.2739    0.0000 </r>
       <r>   14.4886    0.0000 </r>
       <r>   14.4933    0.0000 </r>
       <r>   15.5975    0.0000 </r>
       <r>   15.6011    0.0000 </r>
       <r>   15.7052    0.0000 </r>
       <r>   15.7091    0.0000 </r>
       <r>   16.8075    0.0000 </r>
       <r>   16.8151    0.0000 </r>
       <r>   16.9248    0.0000 </r>
       <r>   16.9284    0.0000 </r>
       <r>   18.0672    0.0000 </r>
       <r>   18.0741    0.0000 </r>
      </set>
     </set>
    </set>
   </array>
  </eigenvalues>
  <separator name="orbital magnetization" >
   <v name="MAGDIPOLOUT">      0.00000000      0.00000000      0.00000000</v>
  </separator>
  <dos>
   <i name="efermi">      9.74952861 </i>
   <total>
    <array>
     <dimension dim="1">gridpoints</dimension>
     <dimension dim="2">spin</dimension>
     <field>energy</field>
     <field>total</field>
     <field>integrated</field>
     <set>
      <set comment="spin 1">
       <r>   -13.6379     0.0000     0.0000 </r>
       <r>   -13.5234     0.0000     0.0000 </r>
       <r>   -13.4088     0.0000     0.0000 </r>
       <r>   -13.2943     0.0000     0.0000 </r>
       <r>   -13.1797     0.0000     0.0000 </r>
       <r>   -13.0651     0.0000     0.0000 </r>
       <r>   -12.9506     0.0000     0.0000 </r>
       <r>   -12.8360     0.0000     0.0000 </r>
       <r>   -12.7215     0.0000     0.0000 </r>
       <r>   -12.6069     0.0000     0.0000 </r>
       <r>   -12.4924     0.0000     0.0000 </r>
       <r>   -12.3778     0.0000     0.0000 </r>
       <r>   -12.2633     0.0002     0.0000 </r>
       <r>   -12.1487     0.0146     0.0017 </r>
       <r>   -12.0341     0.1741     0.0217 </r>
       <r>   -11.9196     0.5694     0.0869 </r>
       <r>   -11.8050     0.8345     0.1825 </r>
       <r>   -11.6905     1.1510     0.3143 </r>
       <r>   -11.5759     1.1862     0.4502 </r>
       <r>   -11.4614     1.5535     0.6282 </r>
       <r>   -11.3468     1.7123     0.8243 </r>
       <r>   -11.2322     1.2810     0.9711 </r>
       <r>   -11.1177     1.9536     1.1949 </r>
       <r>   -11.0031     2.5523     1.4872 </r>
       <r>   -10.8886     1.8894     1.7037 </r>
       <r>   -10.7740     1.6369     1.8912 </r>
       <r>   -10.6595     2.5621     2.1847 </r>
       <r>   -10.5449     2.4069     2.4604 </r>
       <r>   -10.4304     2.6760     2.7670 </r>
       <r>   -10.3158     2.8828     3.0972 </r>
       <r>   -10.2012     2.5846     3.3933 </r>
       <r>   -10.0867     2.6074     3.6920 </r>
       <r>    -9.9721     2.4543     3.9732 </r>
       <r>    -9.8576     2.7797     4.2916 </r>
       <r>    -9.7430     3.6854     4.7138 </r>
       <r>    -9.6285     4.3413     5.2111 </r>
       <r>    -9.5139     2.8906     5.5422 </r>
       <r>    -9.3994     2.0982     5.7826 </r>
       <r>    -9.2848     3.0547     6.1325 </r>
       <r>    -9.1702     4.0331     6.5945 </r>
       <r>    -9.0557     4.3200     7.0894 </r>
       <r>    -8.9411     4.3755     7.5906 </r>
       <r>    -8.8266     3.6712     8.0112 </r>
       <r>    -8.7120     3.3490     8.3948 </r>
       <r>    -8.5975     3.4100     8.7855 </r>
       <r>    -8.4829     4.1573     9.2617 </r>
       <r>    -8.3684     5.1084     9.8469 </r>
       <r>    -8.2538     5.2438    10.4476 </r>
       <r>    -8.1392     3.8371    10.8872 </r>
       <r>    -8.0247     4.9737    11.4569 </r>
       <r>    -7.9101     5.5703    12.0951 </r>
       <r>    -7.7956     4.6495    12.6277 </r>
       <r>    -7.6810     5.2463    13.2287 </r>
       <r>    -7.5665     5.1666    13.8205 </r>
       <r>    -7.4519     4.1207    14.2926 </r>
       <r>    -7.3374     4.8454    14.8477 </r>
       <r>    -7.2228     5.1611    15.4389 </r>
       <r>    -7.1082     6.1839    16.1473 </r>
       <r>    -6.9937     6.7356    16.9189 </r>
       <r>    -6.8791     4.6197    17.4481 </r>
       <r>    -6.7646     3.7942    17.8828 </r>
       <r>    -6.6500     4.0926    18.3516 </r>
       <r>    -6.5355     5.2745    18.9558 </r>
       <r>    -6.4209     6.2403    19.6707 </r>
       <r>    -6.3064     6.8231    20.4523 </r>
       <r>    -6.1918     5.5082    21.0833 </r>
       <r>    -6.0772     5.6074    21.7257 </r>
       <r>    -5.9627     4.5969    22.2523 </r>
       <r>    -5.8481     4.6162    22.7811 </r>
       <r>    -5.7336     5.0662    23.3615 </r>
       <r>    -5.6190     4.3077    23.8549 </r>
       <r>    -5.5045     5.7982    24.5191 </r>
       <r>    -5.3899     5.0124    25.0933 </r>
       <r>    -5.2753     4.5054    25.6095 </r>
       <r>    -5.1608     6.5542    26.3603 </r>
       <r>    -5.0462     5.7299    27.0167 </r>
       <r>    -4.9317     5.6782    27.6671 </r>
       <r>    -4.8171     5.0015    28.2401 </r>
       <r>    -4.7026     5.9310    28.9195 </r>
       <r>    -4.5880     5.5016    29.5498 </r>
       <r>    -4.4735     4.3358    30.0465 </r>
       <r>    -4.3589     3.0805    30.3993 </r>
       <r>    -4.2443     2.7756    30.7173 </r>
       <r>    -4.1298     3.2800    31.0930 </r>
       <r>    -4.0152     3.3220    31.4736 </r>
       <r>    -3.9007     4.9570    32.0415 </r>
       <r>    -3.7861     5.6693    32.6909 </r>
       <r>    -3.6716     4.6850    33.2276 </r>
       <r>    -3.5570     4.7740    33.7745 </r>
       <r>    -3.4425     6.2406    34.4894 </r>
       <r>    -3.3279     4.4370    34.9977 </r>
       <r>    -3.2133     5.3713    35.6130 </r>
       <r>    -3.0988     7.2670    36.4455 </r>
       <r>    -2.9842     8.3884    37.4064 </r>
       <r>    -2.8697     5.1840    38.0003 </r>
       <r>    -2.7551     4.3635    38.5001 </r>
       <r>    -2.6406     6.3492    39.2275 </r>
       <r>    -2.5260     4.9083    39.7898 </r>
       <r>    -2.4115     4.9072    40.3519 </r>
       <r>    -2.2969     4.6274    40.8820 </r>
       <r>    -2.1823     5.6707    41.5316 </r>
       <r>    -2.0678     6.4815    42.2741 </r>
       <r>    -1.9532     5.3540    42.8874 </r>
       <r>    -1.8387     6.4910    43.6310 </r>
       <r>    -1.7241     4.8981    44.1921 </r>
       <r>    -1.6096     4.8393    44.7465 </r>
       <r>    -1.4950     4.8532    45.3025 </r>
       <r>    -1.3805     4.3412    45.7998 </r>
       <r>    -1.2659     5.5297    46.4332 </r>
       <r>    -1.1513     6.2178    47.1455 </r>
       <r>    -1.0368     8.1790    48.0825 </r>
       <r>    -0.9222     6.9496    48.8786 </r>
       <r>    -0.8077     4.2318    49.3634 </r>
       <r>    -0.6931     4.6848    49.9000 </r>
       <r>    -0.5786     6.5968    50.6557 </r>
       <r>    -0.4640     7.5580    51.5215 </r>
       <r>    -0.3495     8.9652    52.5486 </r>
       <r>    -0.2349     8.9844    53.5778 </r>
       <r>    -0.1203     5.6903    54.2296 </r>
       <r>    -0.0058     5.5404    54.8643 </r>
       <r>     0.1088     6.8478    55.6488 </r>
       <r>     0.2233     7.2975    56.4847 </r>
       <r>     0.3379     8.1548    57.4189 </r>
       <r>     0.4524     7.9464    58.3292 </r>
       <r>     0.5670     7.3544    59.1717 </r>
       <r>     0.6816     8.7890    60.1785 </r>
       <r>     0.7961     9.1950    61.2319 </r>
       <r>     0.9107     5.3795    61.8481 </r>
       <r>     1.0252     6.5168    62.5947 </r>
       <r>     1.1398    10.1436    63.7567 </r>
       <r>     1.2543     8.1149    64.6863 </r>
       <r>     1.3689     7.4404    65.5386 </r>
       <r>     1.4834    10.1221    66.6982 </r>
       <r>     1.5980     9.7854    67.8191 </r>
       <r>     1.7126     7.7198    68.7035 </r>
       <r>     1.8271     7.9712    69.6166 </r>
       <r>     1.9417     8.4932    70.5896 </r>
       <r>     2.0562    12.0869    71.9742 </r>
       <r>     2.1708    13.8905    73.5654 </r>
       <r>     2.2853     9.5475    74.6592 </r>
       <r>     2.3999     8.9456    75.6839 </r>
       <r>     2.5144     9.8243    76.8094 </r>
       <r>     2.6290    10.6113    78.0249 </r>
       <r>     2.7436    11.8776    79.3856 </r>
       <r>     2.8581    12.3400    80.7992 </r>
       <r>     2.9727    13.6509    82.3630 </r>
       <r>     3.0872    12.5219    83.7975 </r>
       <r>     3.2018    11.0976    85.0687 </r>
       <r>     3.3163     8.8171    86.0788 </r>
       <r>     3.4309     9.3080    87.1451 </r>
       <r>     3.5454    13.6992    88.7144 </r>
       <r>     3.6600    14.2051    90.3417 </r>
       <r>     3.7746    12.3588    91.7575 </r>
       <r>     3.8891    11.0503    93.0233 </r>
       <r>     4.0037     8.4049    93.9862 </r>
       <r>     4.1182    10.5530    95.1951 </r>
       <r>     4.2328     7.7121    96.0785 </r>
       <r>     4.3473     7.3343    96.9187 </r>
       <r>     4.4619     8.4983    97.8923 </r>
       <r>     4.5764    10.8855    99.1392 </r>
       <r>     4.6910    10.5226   100.3447 </r>
       <r>     4.8056     8.8914   101.3632 </r>
       <r>     4.9201     6.4119   102.0977 </r>
       <r>     5.0347     6.3857   102.8293 </r>
       <r>     5.1492     6.6987   103.5966 </r>
       <r>     5.2638     8.0350   104.5171 </r>
       <r>     5.3783     9.1009   105.5597 </r>
       <r>     5.4929     8.3603   106.5174 </r>
       <r>     5.6075     6.0444   107.2098 </r>
       <r>     5.7220     4.9931   107.7818 </r>
       <r>     5.8366     7.2375   108.6109 </r>
       <r>     5.9511     7.4781   109.4675 </r>
       <r>     6.0657     5.5282   110.1008 </r>
       <r>     6.1802     5.2065   110.6973 </r>
       <r>     6.2948     5.4343   111.3198 </r>
       <r>     6.4093     4.8080   111.8706 </r>
       <r>     6.5239     3.4860   112.2699 </r>
       <r>     6.6385     3.4884   112.6695 </r>
       <r>     6.7530     4.2145   113.1523 </r>
       <r>     6.8676     5.1063   113.7373 </r>
       <r>     6.9821     3.3610   114.1223 </r>
       <r>     7.0967     3.1274   114.4806 </r>
       <r>     7.2112     1.8303   114.6902 </r>
       <r>     7.3258     2.5830   114.9861 </r>
       <r>     7.4403     5.0674   115.5666 </r>
       <r>     7.5549     6.2735   116.2853 </r>
       <r>     7.6695     5.8218   116.9522 </r>
       <r>     7.7840     3.4548   117.3480 </r>
       <r>     7.8986     2.2661   117.6076 </r>
       <r>     8.0131     4.1513   118.0832 </r>
       <r>     8.1277     7.9944   118.9990 </r>
       <r>     8.2422     8.2641   119.9457 </r>
       <r>     8.3568     5.8381   120.6144 </r>
       <r>     8.4713     5.6844   121.2656 </r>
       <r>     8.5859     5.1089   121.8509 </r>
       <r>     8.7005     5.2873   122.4566 </r>
       <r>     8.8150     6.9494   123.2527 </r>
       <r>     8.9296     7.4585   124.1071 </r>
       <r>     9.0441     4.3586   124.6064 </r>
       <r>     9.1587     4.7289   125.1481 </r>
       <r>     9.2732     3.8495   125.5891 </r>
       <r>     9.3878     4.1485   126.0643 </r>
       <r>     9.5023     6.1356   126.7672 </r>
       <r>     9.6169     6.0120   127.4559 </r>
       <r>     9.7315     4.1558   127.9320 </r>
       <r>     9.8460     3.2250   128.3014 </r>
       <r>     9.9606     1.6492   128.4903 </r>
       <r>    10.0751     1.1274   128.6195 </r>
       <r>    10.1897     1.1992   128.7569 </r>
       <r>    10.3042     0.4752   128.8113 </r>
       <r>    10.4188     0.3828   128.8551 </r>
       <r>    10.5333     2.5572   129.1481 </r>
       <r>    10.6479     3.7519   129.5779 </r>
       <r>    10.7625     3.1934   129.9437 </r>
       <r>    10.8770     2.3943   130.2180 </r>
       <r>    10.9916     0.6817   130.2961 </r>
       <r>    11.1061     0.7767   130.3851 </r>
       <r>    11.2207     3.3887   130.7733 </r>
       <r>    11.3352     6.2119   131.4849 </r>
       <r>    11.4498     5.8614   132.1563 </r>
       <r>    11.5644     5.8740   132.8292 </r>
       <r>    11.6789     6.9278   133.6228 </r>
       <r>    11.7935     4.8888   134.1829 </r>
       <r>    11.9080     4.0978   134.6523 </r>
       <r>    12.0226     4.1887   135.1322 </r>
       <r>    12.1371     5.1894   135.7266 </r>
       <r>    12.2517     6.5695   136.4792 </r>
       <r>    12.3662     6.2267   137.1925 </r>
       <r>    12.4808     5.3463   137.8050 </r>
       <r>    12.5954     4.5863   138.3304 </r>
       <r>    12.7099     3.4250   138.7227 </r>
       <r>    12.8245     3.0337   139.0702 </r>
       <r>    12.9390     3.8844   139.5152 </r>
       <r>    13.0536     6.4265   140.2514 </r>
       <r>    13.1681     6.1800   140.9594 </r>
       <r>    13.2827     4.1672   141.4367 </r>
       <r>    13.3972     3.6181   141.8512 </r>
       <r>    13.5118     3.3414   142.2340 </r>
       <r>    13.6264     3.6540   142.6526 </r>
       <r>    13.7409     4.9731   143.2223 </r>
       <r>    13.8555     3.5651   143.6307 </r>
       <r>    13.9700     2.0914   143.8703 </r>
       <r>    14.0846     2.7937   144.1903 </r>
       <r>    14.1991     3.2460   144.5621 </r>
       <r>    14.3137     4.6923   145.0997 </r>
       <r>    14.4282     6.1731   145.8068 </r>
       <r>    14.5428     6.8976   146.5970 </r>
       <r>    14.6574     3.7939   147.0316 </r>
       <r>    14.7719     5.6416   147.6779 </r>
       <r>    14.8865     6.3706   148.4077 </r>
       <r>    15.0010     5.2628   149.0106 </r>
       <r>    15.1156     5.4246   149.6320 </r>
       <r>    15.2301     6.2870   150.3522 </r>
       <r>    15.3447     7.1314   151.1691 </r>
       <r>    15.4592     4.5943   151.6954 </r>
       <r>    15.5738     3.6333   152.1117 </r>
       <r>    15.6884     6.1487   152.8160 </r>
       <r>    15.8029     6.6207   153.5745 </r>
       <r>    15.9175     5.0580   154.1539 </r>
       <r>    16.0320     4.8719   154.7120 </r>
       <r>    16.1466     6.4057   155.4458 </r>
       <r>    16.2611     9.4658   156.5302 </r>
       <r>    16.3757     5.8930   157.2053 </r>
       <r>    16.4902     4.8294   157.7585 </r>
       <r>    16.6048     5.0999   158.3427 </r>
       <r>    16.7194     6.7456   159.1155 </r>
       <r>    16.8339     8.2978   160.0660 </r>
       <r>    16.9485     7.4232   160.9164 </r>
       <r>    17.0630     5.2627   161.5193 </r>
       <r>    17.1776     7.4630   162.3742 </r>
       <r>    17.2921     7.5811   163.2426 </r>
       <r>    17.4067     5.2840   163.8480 </r>
       <r>    17.5213     5.5333   164.4818 </r>
       <r>    17.6358     3.6493   164.8999 </r>
       <r>    17.7504     3.0229   165.2462 </r>
       <r>    17.8649     2.9621   165.5855 </r>
       <r>    17.9795     3.6349   166.0019 </r>
       <r>    18.0940     5.2386   166.6020 </r>
       <r>    18.2086     3.5912   167.0134 </r>
       <r>    18.3231     2.6684   167.3191 </r>
       <r>    18.4377     1.8996   167.5367 </r>
       <r>    18.5523     1.6654   167.7275 </r>
       <r>    18.6668     0.9463   167.8359 </r>
       <r>    18.7814     0.4322   167.8854 </r>
       <r>    18.8959     0.4026   167.9315 </r>
       <r>    19.0105     0.3362   167.9700 </r>
       <r>    19.1250     0.1166   167.9834 </r>
       <r>    19.2396     0.1187   167.9970 </r>
       <r>    19.3541     0.0256   167.9999 </r>
       <r>    19.4687     0.0006   168.0000 </r>
       <r>    19.5833     0.0000   168.0000 </r>
       <r>    19.6978     0.0000   168.0000 </r>
       <r>    19.8124     0.0000   168.0000 </r>
       <r>    19.9269     0.0000   168.0000 </r>
       <r>    20.0415     0.0000   168.0000 </r>
       <r>    20.1560     0.0000   168.0000 </r>
       <r>    20.2706     0.0000   168.0000 </r>
       <r>    20.3851     0.0000   168.0000 </r>
       <r>    20.4997     0.0000   168.0000 </r>
       <r>    20.6143     0.0000   168.0000 </r>
       <r>    20.7288     0.0000   168.0000 </r>
      </set>
     </set>
    </array>
   </total>
  </dos>
 </calculation>
 <structure name="finalpos" >
  <crystal>
   <varray name="basis" >
    <v>       4.93431088      -0.00022240       0.00000000 </v>
    <v>      -2.46734805       4.27312738       0.00000000 </v>
    <v>       0.00000000       0.00000000       8.74346501 </v>
   </varray>
   <i name="volume">    184.35062777 </i>
   <varray name="rec_basis" >
    <v>       0.20266782       0.11702250       0.00000000 </v>
    <v>       0.00001055       0.23402673       0.00000000 </v>
    <v>       0.00000000       0.00000000       0.11437113 </v>
   </varray>
  </crystal>
  <varray name="positions" >
   <v>       0.49999985       0.00000017       0.12500000 </v>
   <v>       0.99999985       0.00000017       0.12500000 </v>
   <v>       0.49999985       0.50000017       0.12500000 </v>
   <v>       0.99999985       0.50000017       0.12500000 </v>
   <v>       0.49999985       0.00000017       0.62500000 </v>
   <v>       0.99999985       0.00000017       0.62500000 </v>
   <v>       0.49999985       0.50000017       0.62500000 </v>
   <v>       0.99999985       0.50000017       0.62500000 </v>
   <v>       0.00000017       0.49999985       0.37500000 </v>
   <v>       0.50000017       0.49999985       0.37500000 </v>
   <v>       0.00000017       0.99999985       0.37500000 </v>
   <v>       0.50000017       0.99999985       0.37500000 </v>
   <v>       0.00000017       0.49999985       0.87500000 </v>
   <v>       0.50000017       0.49999985       0.87500000 </v>
   <v>       0.00000017       0.99999985       0.87500000 </v>
   <v>       0.50000017       0.99999985       0.87500000 </v>
   <v>       0.16565342       0.33335053       0.12400395 </v>
   <v>       0.66664946       0.33335053       0.12500000 </v>
   <v>       0.16664946       0.83335053       0.12500000 </v>
   <v>       0.66664946       0.83335053       0.12500000 </v>
   <v>       0.16664946       0.33335053       0.62500000 </v>
   <v>       0.66664946       0.33335053       0.62500000 </v>
   <v>       0.16664946       0.83335053       0.62500000 </v>
   <v>       0.66664946       0.83335053       0.62500000 </v>
   <v>       0.33335053       0.16664946       0.37500000 </v>
   <v>       0.83335053       0.16664946       0.37500000 </v>
   <v>       0.33335053       0.66664946       0.37500000 </v>
   <v>       0.83335053       0.66664946       0.37500000 </v>
   <v>       0.33335053       0.16664946       0.87500000 </v>
   <v>       0.83335053       0.16664946       0.87500000 </v>
   <v>       0.33335053       0.66664946       0.87500000 </v>
   <v>       0.83335053       0.66664946       0.87500000 </v>
  </varray>
 </structure>
</modeling>
