  16  16   0   0
  0.5265935E+02  0.4932875E-09  0.4932875E-09  0.4000000E-08  0.5000000E-15
  1.000000000000000E-004
  CAR 
 graphite                                
      5.62750081    -24.26121779  301     -2.74523216      1.00000000
    -24.261  0.0000E+00  0.0000E+00
    -24.162  0.0000E+00  0.0000E+00
    -24.062  0.0000E+00  0.0000E+00
    -23.962  0.0000E+00  0.0000E+00
    -23.863  0.0000E+00  0.0000E+00
    -23.763  0.0000E+00  0.0000E+00
    -23.663  0.0000E+00  0.0000E+00
    -23.564  0.0000E+00  0.0000E+00
    -23.464  0.0000E+00  0.0000E+00
    -23.365  0.0000E+00  0.0000E+00
    -23.265  0.0000E+00  0.0000E+00
    -23.165  0.0000E+00  0.0000E+00
    -23.066  0.0000E+00  0.0000E+00
    -22.966  0.0000E+00  0.0000E+00
    -22.866  0.0000E+00  0.0000E+00
    -22.767  0.0000E+00  0.0000E+00
    -22.667  0.0000E+00  0.0000E+00
    -22.568  0.0000E+00  0.0000E+00
    -22.468  0.0000E+00  0.0000E+00
    -22.368  0.0000E+00  0.0000E+00
    -22.269  0.0000E+00  0.0000E+00
    -22.169  0.2122E+01  0.1880E+00
    -22.069  0.2586E+01  0.4225E+00
    -21.970  0.2294E+01  0.6757E+00
    -21.870  0.2456E+01  0.9123E+00
    -21.770  0.2620E+01  0.1165E+01
    -21.671  0.2423E+01  0.1412E+01
    -21.571  0.2431E+01  0.1652E+01
    -21.472  0.2515E+01  0.1899E+01
    -21.372  0.2547E+01  0.2153E+01
    -21.272  0.2440E+01  0.2398E+01
    -21.173  0.2458E+01  0.2642E+01
    -21.073  0.3177E+01  0.2909E+01
    -20.973  0.2743E+01  0.3204E+01
    -20.874  0.4558E+01  0.3483E+01
    -20.774  0.1688E+01  0.3795E+01
    -20.675  0.1280E+01  0.3903E+01
    -20.575  0.2037E+01  0.4068E+01
    -20.475  0.2794E+01  0.4309E+01
    -20.376  0.1974E+01  0.4521E+01
    -20.276  0.6568E+01  0.4807E+01
    -20.176  0.2108E+01  0.5234E+01
    -20.077  0.2130E+01  0.5445E+01
    -19.977  0.2162E+01  0.5659E+01
    -19.878  0.2205E+01  0.5876E+01
    -19.778  0.2248E+01  0.6098E+01
    -19.678  0.2291E+01  0.6324E+01
    -19.579  0.3668E+01  0.6597E+01
    -19.479  0.2687E+01  0.6913E+01
    -19.379  0.2707E+01  0.7175E+01
    -19.280  0.2892E+01  0.7454E+01
    -19.180  0.2326E+01  0.7746E+01
    -19.081  0.2357E+01  0.7980E+01
    -18.981  0.2388E+01  0.8216E+01
    -18.881  0.2419E+01  0.8455E+01
    -18.782  0.2414E+01  0.8697E+01
    -18.682  0.2426E+01  0.8938E+01
    -18.582  0.2443E+01  0.9180E+01
    -18.483  0.2911E+01  0.9466E+01
    -18.383  0.2822E+01  0.9752E+01
    -18.283  0.2734E+01  0.1003E+02
    -18.184  0.2717E+01  0.1030E+02
    -18.084  0.2788E+01  0.1057E+02
    -17.985  0.2859E+01  0.1085E+02
    -17.885  0.2898E+01  0.1114E+02
    -17.785  0.2970E+01  0.1143E+02
    -17.686  0.2741E+01  0.1171E+02
    -17.586  0.2754E+01  0.1198E+02
    -17.486  0.2839E+01  0.1226E+02
    -17.387  0.2931E+01  0.1255E+02
    -17.287  0.3023E+01  0.1284E+02
    -17.188  0.5335E+01  0.1329E+02
    -17.088  0.3793E+01  0.1374E+02
    -16.988  0.2631E+01  0.1405E+02
    -16.889  0.2488E+01  0.1430E+02
    -16.789  0.1930E+01  0.1468E+02
    -16.689  0.1761E+01  0.1486E+02
    -16.590  0.1593E+01  0.1503E+02
    -16.490  0.1424E+01  0.1518E+02
    -16.391  0.1255E+01  0.1531E+02
    -16.291  0.1087E+01  0.1543E+02
    -16.191  0.1657E+01  0.1556E+02
    -16.092  0.7419E+00  0.1572E+02
    -15.992  0.6433E+00  0.1579E+02
    -15.892  0.1004E+01  0.1587E+02
    -15.793  0.1473E+01  0.1599E+02
    -15.693  0.3820E+01  0.1625E+02
    -15.593  0.1843E+01  0.1659E+02
    -15.494  0.1992E+01  0.1678E+02
    -15.394  0.2141E+01  0.1698E+02
    -15.295  0.1083E+02  0.1733E+02
    -15.195  0.3137E+01  0.1765E+02
    -15.095  0.3693E+01  0.1799E+02
    -14.996  0.4129E+01  0.1838E+02
    -14.896  0.4604E+01  0.1882E+02
    -14.796  0.3191E+01  0.1919E+02
    -14.697  0.3075E+01  0.1950E+02
    -14.597  0.2960E+01  0.1980E+02
    -14.498  0.2846E+01  0.2009E+02
    -14.398  0.2743E+01  0.2037E+02
    -14.298  0.2658E+01  0.2064E+02
    -14.199  0.2573E+01  0.2090E+02
    -14.099  0.2486E+01  0.2115E+02
    -13.999  0.2430E+01  0.2140E+02
    -13.900  0.2415E+01  0.2164E+02
    -13.800  0.2401E+01  0.2188E+02
    -13.701  0.2386E+01  0.2212E+02
    -13.601  0.2201E+01  0.2235E+02
    -13.501  0.2176E+01  0.2256E+02
    -13.402  0.1982E+01  0.2277E+02
    -13.302  0.1970E+01  0.2297E+02
    -13.202  0.2233E+01  0.2318E+02
    -13.103  0.2521E+01  0.2342E+02
    -13.003  0.2980E+01  0.2369E+02
    -12.904  0.3283E+01  0.2400E+02
    -12.804  0.5160E+01  0.2445E+02
    -12.704  0.4200E+01  0.2492E+02
    -12.605  0.3240E+01  0.2529E+02
    -12.505  0.2280E+01  0.2557E+02
    -12.405  0.1451E+01  0.2575E+02
    -12.306  0.1489E+01  0.2589E+02
    -12.206  0.1941E+01  0.2606E+02
    -12.106  0.2500E+01  0.2628E+02
    -12.007  0.3060E+01  0.2656E+02
    -11.907  0.3908E+01  0.2690E+02
    -11.808  0.3741E+01  0.2730E+02
    -11.708  0.3226E+01  0.2764E+02
    -11.608  0.2687E+01  0.2794E+02
    -11.509  0.3794E+01  0.2827E+02
    -11.409  0.3569E+01  0.2864E+02
    -11.309  0.3344E+01  0.2899E+02
    -11.210  0.3119E+01  0.2931E+02
    -11.110  0.2894E+01  0.2961E+02
    -11.011  0.2668E+01  0.2988E+02
    -10.911  0.2552E+01  0.3014E+02
    -10.811  0.3871E+01  0.3064E+02
    -10.712  0.3737E+01  0.3103E+02
    -10.612  0.3235E+01  0.3138E+02
    -10.512  0.2733E+01  0.3168E+02
    -10.413  0.2878E+01  0.3195E+02
    -10.313  0.5156E+01  0.3230E+02
    -10.214  0.5488E+01  0.3285E+02
    -10.114  0.6338E+01  0.3344E+02
    -10.014  0.5790E+01  0.3401E+02
     -9.915  0.6873E+01  0.3474E+02
     -9.815  0.6812E+01  0.3540E+02
     -9.715  0.8080E+01  0.3613E+02
     -9.616  0.7502E+01  0.3691E+02
     -9.516  0.9591E+01  0.3780E+02
     -9.416  0.8493E+01  0.3873E+02
     -9.317  0.7478E+01  0.3962E+02
     -9.217  0.2173E+01  0.4003E+02
     -9.118  0.8046E+01  0.4043E+02
     -9.018  0.7363E+01  0.4123E+02
     -8.918  0.8757E+01  0.4210E+02
     -8.819  0.8720E+01  0.4295E+02
     -8.719  0.8966E+01  0.4384E+02
     -8.619  0.6744E+01  0.4463E+02
     -8.520  0.4113E+01  0.4518E+02
     -8.420  0.2761E+01  0.4549E+02
     -8.321  0.2951E+01  0.4578E+02
     -8.221  0.7322E+01  0.4612E+02
     -8.121  0.4330E+01  0.4670E+02
     -8.022  0.1141E+02  0.4732E+02
     -7.922  0.5956E+01  0.4823E+02
     -7.822  0.5324E+01  0.4880E+02
     -7.723  0.4954E+01  0.4930E+02
     -7.623  0.5047E+01  0.4980E+02
     -7.524  0.5134E+01  0.5030E+02
     -7.424  0.4498E+01  0.5077E+02
     -7.324  0.4540E+01  0.5122E+02
     -7.225  0.5790E+01  0.5174E+02
     -7.125  0.4926E+01  0.5227E+02
     -7.025  0.4885E+01  0.5276E+02
     -6.926  0.4869E+01  0.5325E+02
     -6.826  0.4993E+01  0.5374E+02
     -6.727  0.4472E+01  0.5420E+02
     -6.627  0.4416E+01  0.5465E+02
     -6.527  0.4335E+01  0.5508E+02
     -6.428  0.4247E+01  0.5551E+02
     -6.328  0.4192E+01  0.5593E+02
     -6.228  0.4223E+01  0.5635E+02
     -6.129  0.4793E+01  0.5680E+02
     -6.029  0.4883E+01  0.5728E+02
     -5.929  0.4891E+01  0.5774E+02
     -5.830  0.3755E+01  0.5818E+02
     -5.730  0.3058E+01  0.5850E+02
     -5.631  0.3205E+01  0.5882E+02
     -5.531  0.3305E+01  0.5914E+02
     -5.431  0.3172E+01  0.5946E+02
     -5.332  0.3204E+01  0.5978E+02
     -5.232  0.3430E+01  0.6010E+02
     -5.132  0.1020E+02  0.6069E+02
     -5.033  0.3578E+01  0.6116E+02
     -4.933  0.2989E+01  0.6149E+02
     -4.834  0.2451E+01  0.6175E+02
     -4.734  0.2641E+01  0.6201E+02
     -4.634  0.2003E+01  0.6228E+02
     -4.535  0.2058E+01  0.6248E+02
     -4.435  0.1886E+01  0.6267E+02
     -4.335  0.1695E+01  0.6285E+02
     -4.236  0.1505E+01  0.6301E+02
     -4.136  0.1314E+01  0.6315E+02
     -4.037  0.1143E+01  0.6327E+02
     -3.937  0.1127E+01  0.6339E+02
     -3.837  0.1111E+01  0.6350E+02
     -3.738  0.1095E+01  0.6361E+02
     -3.638  0.6518E+00  0.6371E+02
     -3.538  0.5787E+00  0.6377E+02
     -3.439  0.5056E+00  0.6383E+02
     -3.339  0.4324E+00  0.6387E+02
     -3.239  0.3593E+00  0.6391E+02
     -3.140  0.2862E+00  0.6394E+02
     -3.040  0.2131E+00  0.6397E+02
     -2.941  0.1399E+00  0.6399E+02
     -2.841  0.6682E-01  0.6400E+02
     -2.741  0.1322E-02  0.6400E+02
     -2.642  0.7919E-01  0.6400E+02
     -2.542  0.1571E+00  0.6402E+02
     -2.442  0.2349E+00  0.6404E+02
     -2.343  0.3128E+00  0.6406E+02
     -2.243  0.3907E+00  0.6410E+02
     -2.144  0.4685E+00  0.6414E+02
     -2.044  0.5464E+00  0.6419E+02
     -1.944  0.6243E+00  0.6425E+02
     -1.845  0.1339E+01  0.6433E+02
     -1.745  0.1271E+01  0.6446E+02
     -1.645  0.1203E+01  0.6459E+02
     -1.546  0.1282E+01  0.6471E+02
     -1.446  0.1596E+01  0.6485E+02
     -1.347  0.1910E+01  0.6502E+02
     -1.247  0.2224E+01  0.6523E+02
     -1.147  0.2082E+02  0.6552E+02
     -1.048  0.4401E+01  0.6595E+02
     -0.948  0.8946E+01  0.6661E+02
     -0.848  0.3475E+01  0.6702E+02
     -0.749  0.3275E+01  0.6735E+02
     -0.649  0.3074E+01  0.6767E+02
     -0.550  0.2990E+01  0.6797E+02
     -0.450  0.2866E+01  0.6826E+02
     -0.350  0.2726E+01  0.6854E+02
     -0.251  0.2586E+01  0.6880E+02
     -0.151  0.2457E+01  0.6906E+02
     -0.051  0.2333E+01  0.6929E+02
      0.048  0.2218E+01  0.6952E+02
      0.148  0.2221E+01  0.6974E+02
      0.248  0.2224E+01  0.6996E+02
      0.347  0.2227E+01  0.7018E+02
      0.447  0.2230E+01  0.7041E+02
      0.546  0.2905E+01  0.7064E+02
      0.646  0.3516E+01  0.7101E+02
      0.746  0.3792E+01  0.7138E+02
      0.845  0.3831E+01  0.7177E+02
      0.945  0.3246E+01  0.7211E+02
      1.045  0.3249E+01  0.7244E+02
      1.144  0.3208E+01  0.7276E+02
      1.244  0.3356E+01  0.7308E+02
      1.343  0.4940E+01  0.7346E+02
      1.443  0.5077E+01  0.7399E+02
      1.543  0.5316E+01  0.7451E+02
      1.642  0.5288E+01  0.7504E+02
      1.742  0.5176E+01  0.7556E+02
      1.842  0.5332E+01  0.7608E+02
      1.941  0.5574E+01  0.7662E+02
      2.041  0.5419E+01  0.7718E+02
      2.140  0.5698E+01  0.7772E+02
      2.240  0.5406E+01  0.7827E+02
      2.340  0.5280E+01  0.7881E+02
      2.439  0.6212E+01  0.7937E+02
      2.539  0.4741E+01  0.7991E+02
      2.639  0.6504E+01  0.8044E+02
      2.738  0.5667E+01  0.8104E+02
      2.838  0.4831E+01  0.8157E+02
      2.938  0.3417E+01  0.8197E+02
      3.037  0.4259E+01  0.8235E+02
      3.137  0.3664E+01  0.8275E+02
      3.236  0.2430E+01  0.8335E+02
      3.336  0.4044E+01  0.8373E+02
      3.436  0.1013E+01  0.8390E+02
      3.535  0.4817E+00  0.8398E+02
      3.635  0.0000E+00  0.8400E+02
      3.735  0.0000E+00  0.8400E+02
      3.834  0.0000E+00  0.8400E+02
      3.934  0.0000E+00  0.8400E+02
      4.033  0.0000E+00  0.8400E+02
      4.133  0.0000E+00  0.8400E+02
      4.233  0.0000E+00  0.8400E+02
      4.332  0.0000E+00  0.8400E+02
      4.432  0.0000E+00  0.8400E+02
      4.532  0.0000E+00  0.8400E+02
      4.631  0.0000E+00  0.8400E+02
      4.731  0.0000E+00  0.8400E+02
      4.830  0.0000E+00  0.8400E+02
      4.930  0.0000E+00  0.8400E+02
      5.030  0.0000E+00  0.8400E+02
      5.129  0.0000E+00  0.8400E+02
      5.229  0.0000E+00  0.8400E+02
      5.329  0.0000E+00  0.8400E+02
      5.428  0.0000E+00  0.8400E+02
      5.528  0.0000E+00  0.8400E+02
      5.628  0.0000E+00  0.8400E+02
