  16  16   0   0
  0.5265935E+02  0.4932875E-09  0.4932875E-09  0.4000000E-08  0.5000000E-15
  1.000000000000000E-004
  CAR 
 graphite                                
      5.62679351    -24.26108007  301     -2.74570274      1.00000000
    -24.261  0.0000E+00  0.0000E+00
    -24.161  0.0000E+00  0.0000E+00
    -24.062  0.0000E+00  0.0000E+00
    -23.962  0.0000E+00  0.0000E+00
    -23.863  0.0000E+00  0.0000E+00
    -23.763  0.0000E+00  0.0000E+00
    -23.663  0.0000E+00  0.0000E+00
    -23.564  0.0000E+00  0.0000E+00
    -23.464  0.0000E+00  0.0000E+00
    -23.364  0.0000E+00  0.0000E+00
    -23.265  0.0000E+00  0.0000E+00
    -23.165  0.0000E+00  0.0000E+00
    -23.066  0.0000E+00  0.0000E+00
    -22.966  0.0000E+00  0.0000E+00
    -22.866  0.0000E+00  0.0000E+00
    -22.767  0.0000E+00  0.0000E+00
    -22.667  0.0000E+00  0.0000E+00
    -22.567  0.0000E+00  0.0000E+00
    -22.468  0.0000E+00  0.0000E+00
    -22.368  0.0000E+00  0.0000E+00
    -22.269  0.0000E+00  0.0000E+00
    -22.169  0.2280E+01  0.1050E+00
    -22.069  0.2094E+01  0.3904E+00
    -21.970  0.2302E+01  0.6093E+00
    -21.870  0.2509E+01  0.8490E+00
    -21.770  0.2717E+01  0.1109E+01
    -21.671  0.2468E+01  0.1368E+01
    -21.571  0.2332E+01  0.1603E+01
    -21.472  0.2406E+01  0.1839E+01
    -21.372  0.2481E+01  0.2083E+01
    -21.272  0.2555E+01  0.2333E+01
    -21.173  0.2629E+01  0.2592E+01
    -21.073  0.4750E+01  0.2966E+01
    -20.973  0.3399E+01  0.3372E+01
    -20.874  0.2048E+01  0.3643E+01
    -20.774  0.1019E+01  0.3783E+01
    -20.675  0.1160E+01  0.3892E+01
    -20.575  0.1300E+01  0.4015E+01
    -20.475  0.1441E+01  0.4151E+01
    -20.376  0.1582E+01  0.4302E+01
    -20.276  0.3803E+01  0.4506E+01
    -20.176  0.9407E+01  0.5164E+01
    -20.077  0.1924E+01  0.5542E+01
    -19.977  0.1963E+01  0.5735E+01
    -19.878  0.2002E+01  0.5933E+01
    -19.778  0.2041E+01  0.6134E+01
    -19.678  0.2080E+01  0.6339E+01
    -19.579  0.2133E+01  0.6549E+01
    -19.479  0.2186E+01  0.6764E+01
    -19.379  0.2240E+01  0.6985E+01
    -19.280  0.2293E+01  0.7211E+01
    -19.180  0.3691E+01  0.7477E+01
    -19.081  0.3307E+01  0.7825E+01
    -18.981  0.2924E+01  0.8136E+01
    -18.881  0.2586E+01  0.8408E+01
    -18.782  0.2666E+01  0.8670E+01
    -18.682  0.2746E+01  0.8939E+01
    -18.582  0.2825E+01  0.9217E+01
    -18.483  0.2905E+01  0.9502E+01
    -18.383  0.2985E+01  0.9796E+01
    -18.284  0.3065E+01  0.1010E+02
    -18.184  0.2530E+01  0.1035E+02
    -18.084  0.2547E+01  0.1060E+02
    -17.985  0.2564E+01  0.1086E+02
    -17.885  0.2545E+01  0.1111E+02
    -17.785  0.2583E+01  0.1137E+02
    -17.686  0.2658E+01  0.1163E+02
    -17.586  0.2733E+01  0.1190E+02
    -17.486  0.2808E+01  0.1217E+02
    -17.387  0.6317E+01  0.1255E+02
    -17.287  0.5241E+01  0.1313E+02
    -17.188  0.4165E+01  0.1359E+02
    -17.088  0.3089E+01  0.1395E+02
    -16.988  0.2273E+01  0.1421E+02
    -16.889  0.2085E+01  0.1443E+02
    -16.789  0.1897E+01  0.1463E+02
    -16.689  0.1708E+01  0.1481E+02
    -16.590  0.4057E+01  0.1498E+02
    -16.490  0.1038E+01  0.1540E+02
    -16.391  0.9484E+00  0.1550E+02
    -16.291  0.8586E+00  0.1559E+02
    -16.191  0.7687E+00  0.1567E+02
    -16.092  0.6789E+00  0.1574E+02
    -15.992  0.5891E+00  0.1581E+02
    -15.892  0.7796E+00  0.1587E+02
    -15.793  0.1020E+01  0.1596E+02
    -15.693  0.1260E+01  0.1608E+02
    -15.594  0.1500E+01  0.1621E+02
    -15.494  0.3017E+01  0.1643E+02
    -15.394  0.4787E+01  0.1682E+02
    -15.295  0.2138E+01  0.1729E+02
    -15.195  0.2639E+01  0.1753E+02
    -15.095  0.3139E+01  0.1782E+02
    -14.996  0.3639E+01  0.1816E+02
    -14.896  0.4140E+01  0.1854E+02
    -14.797  0.4640E+01  0.1898E+02
    -14.697  0.4832E+01  0.1947E+02
    -14.597  0.2776E+01  0.1976E+02
    -14.498  0.2735E+01  0.2003E+02
    -14.398  0.2833E+01  0.2032E+02
    -14.298  0.2766E+01  0.2059E+02
    -14.199  0.2698E+01  0.2087E+02
    -14.099  0.2632E+01  0.2113E+02
    -14.000  0.2575E+01  0.2139E+02
    -13.900  0.2518E+01  0.2165E+02
    -13.800  0.2462E+01  0.2189E+02
    -13.701  0.2405E+01  0.2214E+02
    -13.601  0.2348E+01  0.2237E+02
    -13.501  0.2291E+01  0.2260E+02
    -13.402  0.2235E+01  0.2283E+02
    -13.302  0.2245E+01  0.2305E+02
    -13.203  0.2480E+01  0.2329E+02
    -13.103  0.2744E+01  0.2355E+02
    -13.003  0.3007E+01  0.2383E+02
    -12.904  0.3271E+01  0.2414E+02
    -12.804  0.3535E+01  0.2448E+02
    -12.704  0.3799E+01  0.2485E+02
    -12.605  0.4062E+01  0.2524E+02
    -12.505  0.4326E+01  0.2566E+02
    -12.406  0.4590E+01  0.2610E+02
    -12.306  0.2099E+01  0.2630E+02
    -12.206  0.3802E+01  0.2657E+02
    -12.107  0.3167E+01  0.2692E+02
    -12.007  0.2532E+01  0.2720E+02
    -11.907  0.1897E+01  0.2743E+02
    -11.808  0.1262E+01  0.2758E+02
    -11.708  0.6276E+00  0.2768E+02
    -11.609  0.1051E+01  0.2775E+02
    -11.509  0.1677E+01  0.2789E+02
    -11.409  0.2302E+01  0.2809E+02
    -11.310  0.2928E+01  0.2835E+02
    -11.210  0.5849E+01  0.2876E+02
    -11.110  0.5426E+01  0.2933E+02
    -11.011  0.5003E+01  0.2984E+02
    -10.911  0.4119E+01  0.3031E+02
    -10.812  0.2909E+01  0.3066E+02
    -10.712  0.2799E+01  0.3093E+02
    -10.612  0.3081E+01  0.3122E+02
    -10.513  0.3364E+01  0.3154E+02
    -10.413  0.5289E+01  0.3196E+02
    -10.313  0.8278E+01  0.3262E+02
    -10.214  0.1465E+02  0.3364E+02
    -10.114  0.3180E+01  0.3455E+02
    -10.015  0.2930E+01  0.3486E+02
     -9.915  0.2681E+01  0.3514E+02
     -9.815  0.2431E+01  0.3539E+02
     -9.716  0.4344E+01  0.3569E+02
     -9.616  0.7628E+01  0.3622E+02
     -9.516  0.8965E+01  0.3716E+02
     -9.417  0.7085E+01  0.3796E+02
     -9.317  0.5219E+01  0.3857E+02
     -9.218  0.7575E+01  0.3919E+02
     -9.118  0.7885E+01  0.4049E+02
     -9.018  0.2084E+02  0.4192E+02
     -8.919  0.6199E+01  0.4277E+02
     -8.819  0.6341E+01  0.4339E+02
     -8.719  0.6483E+01  0.4403E+02
     -8.620  0.5808E+01  0.4496E+02
     -8.520  0.2637E+01  0.4537E+02
     -8.421  0.2258E+01  0.4561E+02
     -8.321  0.2008E+01  0.4582E+02
     -8.221  0.1759E+01  0.4601E+02
     -8.122  0.1509E+01  0.4617E+02
     -8.022  0.4497E+01  0.4640E+02
     -7.922  0.1021E+02  0.4713E+02
     -7.823  0.9896E+01  0.4819E+02
     -7.723  0.6381E+01  0.4927E+02
     -7.623  0.5851E+01  0.4988E+02
     -7.524  0.5321E+01  0.5044E+02
     -7.424  0.4820E+01  0.5094E+02
     -7.325  0.4522E+01  0.5140E+02
     -7.225  0.4418E+01  0.5185E+02
     -7.125  0.4313E+01  0.5228E+02
     -7.026  0.4209E+01  0.5271E+02
     -6.926  0.4104E+01  0.5312E+02
     -6.826  0.4113E+01  0.5353E+02
     -6.727  0.5354E+01  0.5408E+02
     -6.627  0.5005E+01  0.5459E+02
     -6.528  0.4656E+01  0.5507E+02
     -6.428  0.4786E+01  0.5553E+02
     -6.328  0.4889E+01  0.5603E+02
     -6.229  0.4756E+01  0.5651E+02
     -6.129  0.4623E+01  0.5697E+02
     -6.029  0.4967E+01  0.5749E+02
     -5.930  0.3918E+01  0.5794E+02
     -5.830  0.3195E+01  0.5830E+02
     -5.731  0.2752E+01  0.5858E+02
     -5.631  0.2737E+01  0.5886E+02
     -5.531  0.2722E+01  0.5913E+02
     -5.432  0.2695E+01  0.5940E+02
     -5.332  0.2891E+01  0.5967E+02
     -5.232  0.3159E+01  0.5998E+02
     -5.133  0.6694E+01  0.6094E+02
     -5.033  0.3103E+01  0.6131E+02
     -4.934  0.2831E+01  0.6160E+02
     -4.834  0.2559E+01  0.6187E+02
     -4.734  0.2287E+01  0.6211E+02
     -4.635  0.2015E+01  0.6233E+02
     -4.535  0.1742E+01  0.6252E+02
     -4.435  0.1750E+01  0.6269E+02
     -4.336  0.1858E+01  0.6287E+02
     -4.236  0.1966E+01  0.6306E+02
     -4.137  0.2075E+01  0.6326E+02
     -4.037  0.9405E+00  0.6339E+02
     -3.937  0.8678E+00  0.6348E+02
     -3.838  0.7950E+00  0.6357E+02
     -3.738  0.7223E+00  0.6364E+02
     -3.638  0.6495E+00  0.6371E+02
     -3.539  0.5768E+00  0.6377E+02
     -3.439  0.5040E+00  0.6383E+02
     -3.340  0.4313E+00  0.6387E+02
     -3.240  0.3585E+00  0.6391E+02
     -3.140  0.2857E+00  0.6394E+02
     -3.041  0.2130E+00  0.6397E+02
     -2.941  0.1402E+00  0.6399E+02
     -2.841  0.6748E-01  0.6400E+02
     -2.742  0.1473E-02  0.6400E+02
     -2.642  0.8083E-01  0.6400E+02
     -2.543  0.1602E+00  0.6402E+02
     -2.443  0.2396E+00  0.6404E+02
     -2.343  0.3189E+00  0.6406E+02
     -2.244  0.3983E+00  0.6410E+02
     -2.144  0.4776E+00  0.6414E+02
     -2.044  0.5570E+00  0.6419E+02
     -1.945  0.6364E+00  0.6425E+02
     -1.845  0.7157E+00  0.6432E+02
     -1.746  0.7951E+00  0.6440E+02
     -1.646  0.8744E+00  0.6448E+02
     -1.546  0.9538E+00  0.6457E+02
     -1.447  0.4672E+01  0.6468E+02
     -1.347  0.2657E+01  0.6505E+02
     -1.247  0.1817E+01  0.6524E+02
     -1.148  0.2273E+01  0.6544E+02
     -1.048  0.3102E+01  0.6570E+02
     -0.949  0.5346E+01  0.6612E+02
     -0.849  0.7590E+01  0.6676E+02
     -0.749  0.3027E+01  0.6735E+02
     -0.650  0.2914E+01  0.6765E+02
     -0.550  0.2802E+01  0.6793E+02
     -0.450  0.2689E+01  0.6821E+02
     -0.351  0.2576E+01  0.6847E+02
     -0.251  0.2464E+01  0.6872E+02
     -0.152  0.2390E+01  0.6896E+02
     -0.052  0.2333E+01  0.6920E+02
      0.048  0.2363E+01  0.6943E+02
      0.147  0.2338E+01  0.6966E+02
      0.247  0.2321E+01  0.6990E+02
      0.347  0.2304E+01  0.7013E+02
      0.446  0.2288E+01  0.7035E+02
      0.546  0.2568E+01  0.7059E+02
      0.645  0.3889E+01  0.7091E+02
      0.745  0.5211E+01  0.7136E+02
      0.845  0.3594E+01  0.7173E+02
      0.944  0.3454E+01  0.7208E+02
      1.044  0.3415E+01  0.7242E+02
      1.144  0.3417E+01  0.7276E+02
      1.243  0.3486E+01  0.7310E+02
      1.343  0.4302E+01  0.7348E+02
      1.442  0.5721E+01  0.7398E+02
      1.542  0.5429E+01  0.7457E+02
      1.642  0.5508E+01  0.7511E+02
      1.741  0.5179E+01  0.7564E+02
      1.841  0.5291E+01  0.7616E+02
      1.941  0.5404E+01  0.7669E+02
      2.040  0.5195E+01  0.7722E+02
      2.140  0.6525E+01  0.7783E+02
      2.240  0.5938E+01  0.7845E+02
      2.339  0.5643E+01  0.7902E+02
      2.439  0.5348E+01  0.7957E+02
      2.538  0.5075E+01  0.8009E+02
      2.638  0.4898E+01  0.8059E+02
      2.738  0.4722E+01  0.8106E+02
      2.837  0.4545E+01  0.8153E+02
      2.937  0.5291E+01  0.8206E+02
      3.037  0.3941E+01  0.8252E+02
      3.136  0.2589E+01  0.8284E+02
      3.236  0.5570E+01  0.8342E+02
      3.335  0.1862E+01  0.8373E+02
      3.435  0.1223E+01  0.8388E+02
      3.535  0.5840E+00  0.8397E+02
      3.634  0.0000E+00  0.8400E+02
      3.734  0.0000E+00  0.8400E+02
      3.834  0.0000E+00  0.8400E+02
      3.933  0.0000E+00  0.8400E+02
      4.033  0.0000E+00  0.8400E+02
      4.132  0.0000E+00  0.8400E+02
      4.232  0.0000E+00  0.8400E+02
      4.332  0.0000E+00  0.8400E+02
      4.431  0.0000E+00  0.8400E+02
      4.531  0.0000E+00  0.8400E+02
      4.631  0.0000E+00  0.8400E+02
      4.730  0.0000E+00  0.8400E+02
      4.830  0.0000E+00  0.8400E+02
      4.929  0.0000E+00  0.8400E+02
      5.029  0.0000E+00  0.8400E+02
      5.129  0.0000E+00  0.8400E+02
      5.228  0.0000E+00  0.8400E+02
      5.328  0.0000E+00  0.8400E+02
      5.428  0.0000E+00  0.8400E+02
      5.527  0.0000E+00  0.8400E+02
      5.627  0.0000E+00  0.8400E+02
