   16   16    1    1
  0.5265935E+02  0.4932875E-09  0.4932875E-09  0.4000000E-08  0.5000000E-15
  1.000000000000000E-004
  CAR 
 graphite                                
     64    163     42
 
  0.0000000E+00  0.0000000E+00  0.0000000E+00  0.3086420E-02
    1      -22.261200
    2      -22.261136
    3      -17.026146
    4      -17.024719
    5      -17.017622
    6      -17.016475
    7      -17.016475
    8      -17.013750
    9      -15.980690
   10      -15.978531
   11      -15.975375
   12      -15.973128
   13      -15.973126
   14      -15.972691
   15      -10.362543
   16      -10.362456
   17       -9.161252
   18       -9.160458
   19       -9.160456
   20       -9.157747
   21       -9.141862
   22       -9.140274
   23       -5.785536
   24       -5.782070
   25       -5.769813
   26       -5.765843
   27       -5.112630
   28       -5.110719
   29       -5.104127
   30       -5.104019
   31       -5.104019
   32       -5.101282
   33       -1.072204
   34       -1.069689
   35       -1.068796
   36       -1.065179
   37       -1.065178
   38       -1.064598
   39        0.523042
   40        0.525359
   41        1.267264
   42        1.320609
 
  0.1111111E+00  0.6938894E-17  0.0000000E+00  0.6172840E-02
    1      -22.188193
    2      -22.188134
    3      -17.771218
    4      -17.771113
    5      -17.246418
    6      -17.245614
    7      -17.238843
    8      -17.238181
    9      -15.639815
   10      -15.638078
   11      -15.631054
   12      -15.630851
   13      -15.111161
   14      -15.110153
   15      -10.275400
   16      -10.275313
   17       -9.383928
   18       -9.383761
   19       -9.365663
   20       -9.364094
   21       -9.088118
   22       -9.086353
   23       -6.072659
   24       -6.069184
   25       -5.936636
   26       -5.933585
   27       -5.528401
   28       -5.526754
   29       -5.163420
   30       -5.161574
   31       -5.155403
   32       -5.154857
   33       -0.943322
   34       -0.940926
   35       -0.936310
   36       -0.936226
   37       -0.530240
   38       -0.527565
   39        0.622075
   40        0.624370
   41        1.367915
   42        1.420926
 
  0.2222222E+00  0.2775558E-16  0.0000000E+00  0.6172840E-02
    1      -21.969499
    2      -21.969449
    3      -18.770234
    4      -18.770209
    5      -17.581401
    6      -17.580955
    7      -17.576186
    8      -17.575612
    9      -14.952212
   10      -14.950771
   11      -14.941605
   12      -14.941556
   13      -13.791567
   14      -13.790564
   15      -10.014900
   16      -10.014842
   17       -9.983221
   18       -9.983077
   19       -9.966036
   20       -9.964518
   21       -8.873593
   22       -8.871765
   23       -6.890188
   24       -6.887008
   25       -6.415381
   26       -6.414216
   27       -6.352717
   28       -6.349729
   29       -5.282536
   30       -5.280844
   31       -5.276032
   32       -5.275616
   33       -0.615072
   34       -0.613111
   35       -0.608474
   36       -0.608034
   37        0.687668
   38        0.690262
   39        0.919356
   40        0.921648
   41        1.669687
   42        1.721658
 
  0.3333333E+00  0.8326673E-16  0.0000000E+00  0.6172840E-02
    1      -21.606260
    2      -21.606219
    3      -19.674855
    4      -19.674846
    5      -17.833226
    6      -17.832801
    7      -17.829974
    8      -17.829313
    9      -14.150504
   10      -14.149079
   11      -14.139012
   12      -14.138795
   13      -12.368458
   14      -12.367272
   15      -10.791575
   16      -10.791451
   17      -10.776581
   18      -10.775011
   19       -9.584323
   20       -9.584163
   21       -8.525504
   22       -8.523560
   23       -8.064421
   24       -8.061928
   25       -7.368027
   26       -7.367309
   27       -6.912230
   28       -6.909545
   29       -5.404546
   30       -5.402950
   31       -5.399941
   32       -5.399574
   33       -0.231368
   34       -0.230015
   35       -0.226316
   36       -0.225273
   37        1.414111
   38        1.416219
   39        2.160953
   40        2.162676
   41        2.171842
   42        2.221913
 
  0.4444444E+00  0.5551115E-16  0.0000000E+00  0.6172840E-02
    1      -21.100320
    2      -21.100297
    3      -20.454793
    4      -20.454778
    5      -17.963633
    6      -17.962905
    7      -17.961956
    8      -17.960951
    9      -13.419443
   10      -13.417976
   11      -13.411661
   12      -13.410538
   13      -11.546314
   14      -11.545355
   15      -11.537588
   16      -11.535909
   17      -10.899275
   18      -10.897795
   19       -9.438912
   20       -9.436985
   21       -8.989954
   22       -8.989677
   23       -8.243519
   24       -8.243088
   25       -8.060361
   26       -8.058247
   27       -7.506741
   28       -7.504341
   29       -5.477873
   30       -5.476056
   31       -5.475038
   32       -5.474417
   33        0.030605
   34        0.030958
   35        0.032558
   36        0.034652
   37        2.106335
   38        2.108289
   39        2.871458
   40        2.918105
   41        2.993627
   42        2.995397
 
  0.0000000E+00  0.1111111E+00  0.0000000E+00  0.6172840E-02
    1      -22.188193
    2      -22.188131
    3      -17.771218
    4      -17.771039
    5      -17.246434
    6      -17.245614
    7      -17.238843
    8      -17.238153
    9      -15.639815
   10      -15.638390
   11      -15.631611
   12      -15.630852
   13      -15.110369
   14      -15.110152
   15      -10.275401
   16      -10.275319
   17       -9.383929
   18       -9.382282
   19       -9.365748
   20       -9.364094
   21       -9.088117
   22       -9.087795
   23       -6.069410
   24       -6.069185
   25       -5.936889
   26       -5.936635
   27       -5.528400
   28       -5.527993
   29       -5.163174
   30       -5.161574
   31       -5.155404
   32       -5.153507
   33       -0.943322
   34       -0.941293
   35       -0.938541
   36       -0.936309
   37       -0.527967
   38       -0.527566
   39        0.622075
   40        0.624370
   41        1.367915
   42        1.420926
 
  0.1111111E+00  0.1111111E+00  0.0000000E+00  0.6172840E-02
    1      -22.042228
    2      -22.042174
    3      -18.230648
    4      -18.228608
    5      -18.228608
    6      -18.226372
    7      -16.837990
    8      -16.836919
    9      -15.797988
   10      -15.795509
   11      -14.431178
   12      -14.428404
   13      -14.428404
   14      -14.426706
   15      -10.101461
   16      -10.101374
   17      -10.041123
   18      -10.039559
   19       -9.239856
   20       -9.238969
   21       -9.238968
   22       -9.236148
   23       -6.600438
   24       -6.596542
   25       -6.253535
   26       -6.249978
   27       -5.886415
   28       -5.885624
   29       -5.885623
   30       -5.883266
   31       -4.846262
   32       -4.844475
   33       -1.150521
   34       -1.147695
   35        0.008007
   36        0.011237
   37        0.011238
   38        0.011938
   39        0.820354
   40        0.822613
   41        1.569268
   42        1.621593
 
  0.2222222E+00  0.1111111E+00  0.0000000E+00  0.6172840E-02
    1      -21.751166
    2      -21.751124
    3      -19.185947
    4      -19.185941
    5      -18.567269
    6      -18.567107
    7      -16.863924
    8      -16.863414
    9      -15.297912
   10      -15.295931
   11      -13.651440
   12      -13.651408
   13      -13.056957
   14      -13.055961
   15      -10.940565
   16      -10.939053
   17       -9.759650
   18       -9.759342
   19       -9.755737
   20       -9.755228
   21       -8.953609
   22       -8.951872
   23       -7.546174
   24       -7.542557
   25       -6.835106
   26       -6.834680
   27       -6.792614
   28       -6.788608
   29       -6.172274
   30       -6.172208
   31       -4.642838
   32       -4.641110
   33       -1.149080
   34       -1.146433
   35        0.574957
   36        0.574988
   37        1.216266
   38        1.218487
   39        1.376265
   40        1.377262
   41        1.971441
   42        2.022316
 
  0.3333333E+00  0.1111111E+00  0.0000000E+00  0.6172840E-02
    1      -21.316474
    2      -21.316449
    3      -20.028783
    4      -20.028770
    5      -18.774060
    6      -18.773902
    7      -16.998250
    8      -16.998138
    9      -14.531888
   10      -14.530158
   11      -12.864772
   12      -12.864294
   13      -11.876197
   14      -11.874646
   15      -11.618715
   16      -11.617556
   17      -10.454848
   18      -10.454385
   19       -9.242832
   20       -9.242621
   21       -8.779689
   22       -8.776989
   23       -8.538634
   24       -8.536841
   25       -7.758280
   26       -7.757819
   27       -7.411396
   28       -7.408315
   29       -6.355834
   30       -6.355680
   31       -4.550627
   32       -4.549245
   33       -1.037771
   34       -1.035649
   35        1.022746
   36        1.023213
   37        1.810644
   38        1.812666
   39        2.573137
   40        2.621529
   41        2.873194
   42        3.003259
 
  0.4444444E+00  0.1111111E+00  0.0000000E+00  0.6172840E-02
    1      -20.743145
    2      -20.741582
    3      -20.740624
    4      -20.739024
    5      -18.844031
    6      -18.843878
    7      -17.051427
    8      -17.051356
    9      -14.044465
   10      -14.043122
   11      -12.419904
   12      -12.418507
   13      -12.416216
   14      -12.414357
   15      -10.884362
   16      -10.882574
   17      -10.172632
   18      -10.169273
   19      -10.168039
   20      -10.168025
   21       -8.573205
   22       -8.572206
   23       -8.571303
   24       -8.569658
   25       -8.014126
   26       -8.013447
   27       -8.012007
   28       -8.006938
   29       -6.419437
   30       -6.419105
   31       -4.526363
   32       -4.525439
   33       -0.973700
   34       -0.972299
   35        1.196531
   36        1.197486
   37        2.599882
   38        2.601130
   39        2.601749
   40        2.602995
   41        3.363814
   42        3.364961
 
 -0.4444444E+00  0.1111111E+00  0.0000000E+00  0.6172840E-02
    1      -21.317221
    2      -21.317181
    3      -20.027616
    4      -20.027610
    5      -18.775728
    6      -18.775585
    7      -16.995884
    8      -16.995698
    9      -14.522298
   10      -14.522133
   11      -12.876487
   12      -12.874736
   13      -11.887796
   14      -11.887667
   15      -11.620951
   16      -11.619464
   17      -10.441321
   18      -10.439391
   19       -9.243565
   20       -9.243414
   21       -8.779048
   22       -8.777549
   23       -8.536842
   24       -8.534658
   25       -7.757224
   26       -7.756664
   27       -7.411185
   28       -7.409414
   29       -6.357892
   30       -6.357399
   31       -4.547082
   32       -4.546620
   33       -1.035243
   34       -1.034594
   35        1.018403
   36        1.019723
   37        1.809677
   38        1.811698
   39        2.572199
   40        2.620597
   41        2.872376
   42        3.002297
 
 -0.3333333E+00  0.1111111E+00  0.0000000E+00  0.6172840E-02
    1      -21.751698
    2      -21.751645
    3      -19.184594
    4      -19.184576
    5      -18.570577
    6      -18.570448
    7      -16.858626
    8      -16.858293
    9      -15.288767
   10      -15.288470
   11      -13.663786
   12      -13.662279
   13      -13.059221
   14      -13.058050
   15      -10.955554
   16      -10.955325
   17       -9.756281
   18       -9.756269
   19       -9.742345
   20       -9.740670
   21       -8.952073
   22       -8.950133
   23       -7.548657
   24       -7.547405
   25       -6.833983
   26       -6.833461
   27       -6.788036
   28       -6.786489
   29       -6.176277
   30       -6.175640
   31       -4.636265
   32       -4.636202
   33       -1.144799
   34       -1.144773
   35        0.567951
   36        0.569573
   37        1.215570
   38        1.217794
   39        1.375123
   40        1.376477
   41        1.970766
   42        2.021644
 
 -0.2222222E+00  0.1111111E+00  0.0000000E+00  0.6172840E-02
    1      -22.042560
    2      -22.042498
    3      -18.233589
    4      -18.233529
    5      -18.227091
    6      -18.227043
    7      -16.829018
    8      -16.828512
    9      -15.791344
   10      -15.790799
   11      -14.439414
   12      -14.437972
   13      -14.431428
   14      -14.430408
   15      -10.101793
   16      -10.101735
   17      -10.057848
   18      -10.057515
   19       -9.237962
   20       -9.236167
   21       -9.220809
   22       -9.219054
   23       -6.609372
   24       -6.609058
   25       -6.241606
   26       -6.240835
   27       -5.891288
   28       -5.890487
   29       -5.884592
   30       -5.883192
   31       -4.838119
   32       -4.837895
   33       -1.145417
   34       -1.145064
   35        0.003386
   36        0.005322
   37        0.007826
   38        0.010346
   39        0.819938
   40        0.822195
   41        1.568862
   42        1.621189
 
 -0.1111111E+00  0.1111111E+00  0.0000000E+00  0.6172840E-02
    1      -22.188297
    2      -22.188234
    3      -17.777956
    4      -17.777838
    5      -17.238775
    6      -17.237491
    7      -17.237491
    8      -17.235534
    9      -15.634330
   10      -15.632383
   11      -15.632383
   12      -15.632052
   13      -15.119388
   14      -15.117848
   15      -10.275496
   16      -10.275431
   17       -9.384235
   18       -9.383575
   19       -9.383574
   20       -9.380880
   21       -9.069762
   22       -9.068030
   23       -6.083723
   24       -6.080213
   25       -5.926124
   26       -5.922085
   27       -5.535557
   28       -5.534453
   29       -5.155258
   30       -5.154901
   31       -5.154900
   32       -5.152303
   33       -0.940513
   34       -0.936780
   35       -0.936779
   36       -0.936488
   37       -0.535055
   38       -0.532719
   39        0.621936
   40        0.624231
   41        1.367780
   42        1.420791
 
  0.0000000E+00  0.2222222E+00  0.0000000E+00  0.6172840E-02
    1      -21.969499
    2      -21.969438
    3      -18.770221
    4      -18.770114
    5      -17.581749
    6      -17.580955
    7      -17.576186
    8      -17.575399
    9      -14.952212
   10      -14.951179
   11      -14.942007
   12      -14.941556
   13      -13.790714
   14      -13.790564
   15      -10.014901
   16      -10.014865
   17       -9.983221
   18       -9.981738
   19       -9.965998
   20       -9.964518
   21       -8.873592
   22       -8.873286
   23       -6.887508
   24       -6.887009
   25       -6.415381
   26       -6.414936
   27       -6.352716
   28       -6.352591
   29       -5.282326
   30       -5.280844
   31       -5.276032
   32       -5.274364
   33       -0.615072
   34       -0.614226
   35       -0.609585
   36       -0.608473
   37        0.689377
   38        0.690261
   39        0.919357
   40        0.921649
   41        1.669685
   42        1.721656
 
  0.1111111E+00  0.2222222E+00  0.0000000E+00  0.6172840E-02
    1      -21.751166
    2      -21.751116
    3      -19.185943
    4      -19.185834
    5      -18.567277
    6      -18.567227
    7      -16.863973
    8      -16.863414
    9      -15.297912
   10      -15.295933
   11      -13.652323
   12      -13.651429
   13      -13.055998
   14      -13.055958
   15      -10.940503
   16      -10.939053
   17       -9.759343
   18       -9.758375
   19       -9.755737
   20       -9.755083
   21       -8.953608
   22       -8.953448
   23       -7.544871
   24       -7.542558
   25       -6.835275
   26       -6.835106
   27       -6.792614
   28       -6.790028
   29       -6.172274
   30       -6.171432
   31       -4.642642
   32       -4.641110
   33       -1.149080
   34       -1.146754
   35        0.573141
   36        0.574959
   37        1.216271
   38        1.218489
   39        1.377262
   40        1.377872
   41        1.971439
   42        2.022314
 
  0.2222222E+00  0.2222222E+00  0.0000000E+00  0.6172840E-02
    1      -21.388648
    2      -21.388615
    3      -19.468483
    4      -19.466493
    5      -19.466492
    6      -19.464353
    7      -16.275478
    8      -16.274299
    9      -15.316985
   10      -15.314347
   11      -12.280363
   12      -12.277539
   13      -12.277538
   14      -12.275380
   15      -11.980168
   16      -11.978802
   17       -9.391213
   18       -9.389600
   19       -9.389599
   20       -9.386835
   21       -9.327463
   22       -9.327185
   23       -8.446650
   24       -8.443581
   25       -7.496808
   26       -7.493686
   27       -7.125682
   28       -7.124320
   29       -7.124320
   30       -7.122288
   31       -4.053014
   32       -4.051160
   33       -1.584706
   34       -1.582242
   35        1.711574
   36        1.713842
   37        1.974150
   38        1.975879
   39        1.975880
   40        1.977452
   41        2.473472
   42        2.522397
 
  0.3333333E+00  0.2222222E+00  0.0000000E+00  0.6172840E-02
    1      -20.884059
    2      -20.884031
    3      -20.242771
    4      -20.242733
    5      -19.608003
    6      -19.607857
    7      -16.119742
    8      -16.119223
    9      -14.859813
   10      -14.857887
   11      -12.846501
   12      -12.845273
   13      -11.612858
   14      -11.611659
   15      -10.894453
   16      -10.893558
   17       -9.920725
   18       -9.919460
   19       -9.584667
   20       -9.581895
   21       -8.879090
   22       -8.877862
   23       -8.736390
   24       -8.736022
   25       -8.236730
   26       -8.233630
   27       -7.995912
   28       -7.995554
   29       -7.271961
   30       -7.271869
   31       -3.652879
   32       -3.651135
   33       -1.871443
   34       -1.869344
   35        2.340644
   36        2.342178
   37        2.405584
   38        2.408215
   39        3.173582
   40        3.219256
   41        3.290122
   42        3.291968
 
  0.4444444E+00  0.2222222E+00  0.0000000E+00  0.6172840E-02
    1      -20.885752
    2      -20.885706
    3      -20.240652
    4      -20.240641
    5      -19.608733
    6      -19.608583
    7      -16.117337
    8      -16.117244
    9      -14.854781
   10      -14.854453
   11      -12.852799
   12      -12.852624
   13      -11.621481
   14      -11.619372
   15      -10.897960
   16      -10.895885
   17       -9.911541
   18       -9.909241
   19       -9.583883
   20       -9.583327
   21       -8.877306
   22       -8.874757
   23       -8.738034
   24       -8.737812
   25       -8.235161
   26       -8.234463
   27       -7.993944
   28       -7.993394
   29       -7.272817
   30       -7.272613
   31       -3.649543
   32       -3.648821
   33       -1.871522
   34       -1.870736
   35        2.338488
   36        2.339658
   37        2.403384
   38        2.406000
   39        3.171461
   40        3.217166
   41        3.292643
   42        3.294812
 
 -0.4444444E+00  0.2222222E+00  0.0000000E+00  0.6172840E-02
    1      -21.389931
    2      -21.389871
    3      -19.468675
    4      -19.468528
    5      -19.463973
    6      -19.463939
    7      -16.267462
    8      -16.266956
    9      -15.312239
   10      -15.311653
   11      -12.290881
   12      -12.289143
   13      -12.282746
   14      -12.281225
   15      -11.992274
   16      -11.991900
   17       -9.387073
   18       -9.384972
   19       -9.373790
   20       -9.371683
   21       -9.328732
   22       -9.328541
   23       -8.451990
   24       -8.451543
   25       -7.488989
   26       -7.488363
   27       -7.126780
   28       -7.126534
   29       -7.122128
   30       -7.121326
   31       -4.045806
   32       -4.045688
   33       -1.584040
   34       -1.583745
   35        1.709914
   36        1.712191
   37        1.969481
   38        1.971173
   39        1.973375
   40        1.975001
   41        2.471854
   42        2.520786
 
 -0.3333333E+00  0.2222222E+00  0.0000000E+00  0.6172840E-02
    1      -21.752017
    2      -21.751949
    3      -19.189591
    4      -19.189455
    5      -18.564370
    6      -18.564329
    7      -16.854669
    8      -16.854348
    9      -15.293296
   10      -15.292825
   11      -13.656636
   12      -13.655453
   13      -13.068634
   14      -13.067115
   15      -10.954932
   16      -10.954488
   17       -9.757305
   18       -9.757272
   19       -9.756598
   20       -9.754648
   21       -8.935836
   22       -8.933924
   23       -7.557159
   24       -7.555395
   25       -6.839393
   26       -6.838718
   27       -6.779599
   28       -6.777774
   29       -6.170057
   30       -6.168960
   31       -4.634613
   32       -4.634233
   33       -1.146762
   34       -1.146071
   35        0.570950
   36        0.573414
   37        1.215149
   38        1.217378
   39        1.369148
   40        1.371365
   41        1.970357
   42        2.021235
 
 -0.2222222E+00  0.2222222E+00  0.0000000E+00  0.6172840E-02
    1      -21.969932
    2      -21.969861
    3      -18.775298
    4      -18.775199
    5      -17.574326
    6      -17.573098
    7      -17.573098
    8      -17.571566
    9      -14.947128
   10      -14.945264
   11      -14.945264
   12      -14.944823
   13      -13.801537
   14      -13.800104
   15      -10.015356
   16      -10.015339
   17       -9.982564
   18       -9.982096
   19       -9.982096
   20       -9.979460
   21       -8.855665
   22       -8.853833
   23       -6.902369
   24       -6.899351
   25       -6.420690
   26       -6.420246
   27       -6.340616
   28       -6.337058
   29       -5.274802
   30       -5.274318
   31       -5.274318
   32       -5.271854
   33       -0.613673
   34       -0.609919
   35       -0.609919
   36       -0.609670
   37        0.682169
   38        0.683351
   39        0.918801
   40        0.921089
   41        1.669143
   42        1.721116
 
 -0.1111111E+00  0.2222222E+00  0.0000000E+00  0.6172840E-02
    1      -22.042560
    2      -22.042490
    3      -18.234202
    4      -18.233581
    5      -18.227080
    6      -18.226321
    7      -16.829018
    8      -16.828272
    9      -15.792422
   10      -15.790799
   11      -14.439414
   12      -14.438600
   13      -14.430410
   14      -14.430007
   15      -10.101795
   16      -10.101753
   17      -10.057849
   18      -10.056246
   19       -9.237961
   20       -9.237734
   21       -9.220619
   22       -9.219054
   23       -6.609371
   24       -6.606166
   25       -6.244621
   26       -6.240835
   27       -5.891523
   28       -5.890487
   29       -5.884591
   30       -5.883752
   31       -4.838119
   32       -4.836253
   33       -1.148042
   34       -1.145063
   35        0.003386
   36        0.004825
   37        0.009947
   38        0.010345
   39        0.819937
   40        0.822194
   41        1.568861
   42        1.621187
 
  0.0000000E+00  0.3333333E+00  0.0000000E+00  0.6172840E-02
    1      -21.606260
    2      -21.606196
    3      -19.674847
    4      -19.674767
    5      -17.833830
    6      -17.832801
    7      -17.829974
    8      -17.828903
    9      -14.150504
   10      -14.149627
   11      -14.139246
   12      -14.139009
   13      -12.367423
   14      -12.367269
   15      -10.791453
   16      -10.790301
   17      -10.776326
   18      -10.775011
   19       -9.584323
   20       -9.584229
   21       -8.525504
   22       -8.525214
   23       -8.062276
   24       -8.061929
   25       -7.368027
   26       -7.367724
   27       -6.912229
   28       -6.912004
   29       -5.404392
   30       -5.402951
   31       -5.399942
   32       -5.398380
   33       -0.231848
   34       -0.231368
   35       -0.226315
   36       -0.226155
   37        1.414111
   38        1.416219
   39        2.162267
   40        2.162676
   41        2.171835
   42        2.221907
 
  0.1111111E+00  0.3333333E+00  0.0000000E+00  0.6172840E-02
    1      -21.316474
    2      -21.316427
    3      -20.028782
    4      -20.028686
    5      -18.774065
    6      -18.774016
    7      -16.998325
    8      -16.998139
    9      -14.531888
   10      -14.530338
   11      -12.865430
   12      -12.864771
   13      -11.875893
   14      -11.874646
   15      -11.617557
   16      -11.617479
   17      -10.454385
   18      -10.453318
   19       -9.242832
   20       -9.242685
   21       -8.778243
   22       -8.776989
   23       -8.538639
   24       -8.538591
   25       -7.758281
   26       -7.758166
   27       -7.411395
   28       -7.410063
   29       -6.355682
   30       -6.355230
   31       -4.550118
   32       -4.549245
   33       -1.037770
   34       -1.036493
   35        1.021587
   36        1.022747
   37        1.810646
   38        1.812668
   39        2.573132
   40        2.621523
   41        2.874462
   42        3.003259
 
  0.2222222E+00  0.3333333E+00  0.0000000E+00  0.6172840E-02
    1      -20.884056
    2      -20.884018
    3      -20.242770
    4      -20.242662
    5      -19.608003
    6      -19.607948
    7      -16.119734
    8      -16.119223
    9      -14.859813
   10      -14.858187
   11      -12.846175
   12      -12.845273
   13      -11.613174
   14      -11.612857
   15      -10.893560
   16      -10.892854
   17       -9.919460
   18       -9.918881
   19       -9.583877
   20       -9.581895
   21       -8.879839
   22       -8.879090
   23       -8.736390
   24       -8.736066
   25       -8.236729
   26       -8.234592
   27       -7.995913
   28       -7.995839
   29       -7.271873
   30       -7.271590
   31       -3.652182
   32       -3.651135
   33       -1.871442
   34       -1.870248
   35        2.339340
   36        2.342178
   37        2.405578
   38        2.408185
   39        3.173577
   40        3.219249
   41        3.289886
   42        3.292025
 
  0.3333333E+00  0.3333333E+00  0.0000000E+00  0.6172840E-02
    1      -20.317064
    2      -20.314716
    3      -20.314716
    4      -20.313517
    5      -20.311853
    6      -20.310505
    7      -15.342516
    8      -15.341144
    9      -15.334286
   10      -15.332769
   11      -13.293803
   12      -13.293638
   13      -10.508707
   14      -10.506593
   15      -10.506593
   16      -10.504713
   17      -10.502460
   18      -10.502030
   19       -9.156609
   20       -9.156461
   21       -9.153483
   22       -9.150860
   23       -9.150859
   24       -9.148283
   25       -8.077964
   26       -8.076065
   27       -8.076065
   28       -8.074951
   29       -8.073360
   30       -8.072050
   31       -2.750912
   32       -2.748955
   33       -2.743936
   34       -2.742121
   35        3.190198
   36        3.192121
   37        3.193265
   38        3.193852
   39        3.195568
   40        3.197339
   41        3.624844
   42        3.625890
 
  0.4444444E+00  0.3333333E+00  0.0000000E+00  0.6172840E-02
    1      -20.886280
    2      -20.886211
    3      -20.244026
    4      -20.243885
    5      -19.604518
    6      -19.604514
    7      -16.110781
    8      -16.110298
    9      -14.861502
   10      -14.860451
   11      -12.853560
   12      -12.852676
   13      -11.617160
   14      -11.614989
   15      -10.906440
   16      -10.904281
   17       -9.919574
   18       -9.916938
   19       -9.592373
   20       -9.590987
   21       -8.865913
   22       -8.863411
   23       -8.738574
   24       -8.738449
   25       -8.226440
   26       -8.224912
   27       -7.997268
   28       -7.997186
   29       -7.268748
   30       -7.268130
   31       -3.645471
   32       -3.644629
   33       -1.874956
   34       -1.873719
   35        2.338352
   36        2.342527
   37        2.402712
   38        2.405342
   39        3.170729
   40        3.216407
   41        3.288620
   42        3.290722
 
 -0.4444444E+00  0.3333333E+00  0.0000000E+00  0.6172840E-02
    1      -21.318068
    2      -21.317990
    3      -20.031287
    4      -20.031149
    5      -18.770015
    6      -18.769986
    7      -16.989854
    8      -16.989656
    9      -14.529436
   10      -14.528717
   11      -12.871346
   12      -12.869736
   13      -11.887065
   14      -11.886221
   15      -11.631511
   16      -11.629725
   17      -10.452490
   18      -10.450334
   19       -9.244435
   20       -9.244418
   21       -8.791233
   22       -8.789221
   23       -8.521737
   24       -8.519576
   25       -7.761008
   26       -7.760793
   27       -7.398122
   28       -7.395853
   29       -6.352342
   30       -6.351485
   31       -4.543034
   32       -4.542358
   33       -1.038698
   34       -1.037464
   35        1.019221
   36        1.021512
   37        1.808590
   38        1.810612
   39        2.571094
   40        2.619489
   41        2.867145
   42        3.000794
 
 -0.3333333E+00  0.3333333E+00  0.0000000E+00  0.6172840E-02
    1      -21.607218
    2      -21.607135
    3      -19.678619
    4      -19.678490
    5      -17.826646
    6      -17.825441
    7      -17.825440
    8      -17.824078
    9      -14.146715
   10      -14.144585
   11      -14.144584
   12      -14.144208
   13      -12.379861
   14      -12.378288
   15      -10.789857
   16      -10.789761
   17      -10.789759
   18      -10.787169
   19       -9.585295
   20       -9.585281
   21       -8.508291
   22       -8.506289
   23       -8.077405
   24       -8.074806
   25       -7.371926
   26       -7.371716
   27       -6.898603
   28       -6.895578
   29       -5.397411
   30       -5.396826
   31       -5.396826
   32       -5.394463
   33       -0.232178
   34       -0.228359
   35       -0.228358
   36       -0.228177
   37        1.412878
   38        1.414986
   39        2.154450
   40        2.155597
   41        2.170613
   42        2.220687
 
 -0.2222222E+00  0.3333333E+00  0.0000000E+00  0.6172840E-02
    1      -21.752017
    2      -21.751936
    3      -19.189592
    4      -19.189488
    5      -18.564354
    6      -18.564267