 running on    2 total cores
 distrk:  each k-point on    2 cores,    1 groups
 distr:  one band on    1 cores,    2 groups
 using from now: INCAR     
 vasp.5.3.5 31Mar14 (build Nov 02 2014 15:17:37) complex                        
  
 POSCAR found :  1 types and      16 ions
 scaLAPACK will be used
 LDA part: xc-table for Pade appr. of Perdew
 POSCAR, INCAR and KPOINTS ok, starting setup
 WARNING: small aliasing (wrap around) errors must be expected
 FFT: planning ...
 WAVECAR not read
 WARNING: random wavefunctions but no delay for mixing, default for NELMDL
 entering main loop
       N       E                     dE             d eps       ncg     rms          rms(c)
DAV:   1     0.634801417265E+03    0.63480E+03   -0.24324E+04  6912   0.124E+03
DAV:   2    -0.303696520154E+02   -0.66517E+03   -0.63118E+03  9906   0.267E+02
DAV:   3    -0.153035768440E+03   -0.12267E+03   -0.12204E+03  7466   0.125E+02
DAV:   4    -0.157637903062E+03   -0.46021E+01   -0.45792E+01  7982   0.316E+01
DAV:   5    -0.157761781896E+03   -0.12388E+00   -0.12363E+00  8750   0.457E+00    0.156E+01
DAV:   6    -0.150410574048E+03    0.73512E+01   -0.69509E+00  7370   0.104E+01    0.826E+00
DAV:   7    -0.147593172984E+03    0.28174E+01   -0.83072E+00  7016   0.112E+01    0.143E+00
DAV:   8    -0.147530218064E+03    0.62955E-01   -0.17734E-01  7252   0.178E+00    0.418E-01
DAV:   9    -0.147521727867E+03    0.84902E-02   -0.10549E-02  8078   0.407E-01    0.371E-01
DAV:  10    -0.147510528787E+03    0.11199E-01   -0.58815E-03  7246   0.248E-01    0.263E-01
DAV:  11    -0.147506047782E+03    0.44810E-02   -0.20743E-03  7506   0.155E-01    0.275E-01
DAV:  12    -0.147502584214E+03    0.34636E-02   -0.43374E-03  6786   0.213E-01    0.126E-01
DAV:  13    -0.147505120836E+03   -0.25366E-02   -0.28440E-03  6778   0.158E-01    0.169E-01
DAV:  14    -0.147506847260E+03   -0.17264E-02   -0.40882E-04  7374   0.700E-02    0.113E-01
DAV:  15    -0.147511933577E+03   -0.50863E-02   -0.43427E-04  6774   0.698E-02    0.169E-01
DAV:  16    -0.147513373073E+03   -0.14395E-02   -0.21419E-04  7160   0.531E-02    0.795E-02
DAV:  17    -0.147515016649E+03   -0.16436E-02   -0.14379E-04  6618   0.387E-02    0.547E-02
DAV:  18    -0.147515474931E+03   -0.45828E-03   -0.26116E-05  6830   0.183E-02    0.179E-02
DAV:  19    -0.147515647393E+03   -0.17246E-03   -0.94149E-06  6574   0.109E-02    0.268E-02
DAV:  20    -0.147515710736E+03   -0.63344E-04   -0.32181E-06  6542   0.738E-03    0.240E-02
DAV:  21    -0.147515788857E+03   -0.78121E-04   -0.47560E-06  5652   0.711E-03    0.642E-03
DAV:  22    -0.147515807326E+03   -0.18469E-04   -0.33646E-07  4928   0.277E-03    0.391E-03
DAV:  23    -0.147515831804E+03   -0.24478E-04   -0.75805E-07  4798   0.234E-03    0.637E-03
DAV:  24    -0.147515836898E+03   -0.50942E-05   -0.72424E-08  4550   0.107E-03    0.106E-03
DAV:  25    -0.147515842769E+03   -0.58709E-05   -0.45717E-08  4536   0.856E-04    0.278E-03
DAV:  26    -0.147515845018E+03   -0.22488E-05   -0.18661E-08  4566   0.640E-04    0.146E-03
DAV:  27    -0.147515845478E+03   -0.46045E-06   -0.29806E-09  4834   0.314E-04
   1 F= -.14893364E+03 E0= -.14893364E+03  d E =0.000000E+00
