 running on    6 total cores
 distrk:  each k-point on    6 cores,    1 groups
 distr:  one band on    1 cores,    6 groups
 using from now: INCAR     
 vasp.5.3.5 31Mar14 (build Nov 02 2014 15:17:37) complex                        
  
 POSCAR found :  1 types and      16 ions
 scaLAPACK will be used

 ----------------------------------------------------------------------------- 
|                                                                             |
|           W    W    AA    RRRRR   N    N  II  N    N   GGGG   !!!           |
|           W    W   A  A   R    R  NN   N  II  NN   N  G    G  !!!           |
|           W    W  A    A  R    R  N N  N  II  N N  N  G       !!!           |
|           W WW W  AAAAAA  RRRRR   N  N N  II  N  N N  G  GGG   !            |
|           WW  WW  A    A  R   R   N   NN  II  N   NN  G    G                |
|           W    W  A    A  R    R  N    N  II  N    N   GGGG   !!!           |
|                                                                             |
|      For optimal performance we recommend to set                            |
|        NCORE= 4 - approx SQRT( number of cores)                             |
|      NCORE specifies how many cores store one orbital (NPAR=cpu/NCORE).     |
|      This setting can  greatly improve the performance of VASP for DFT.     |
|      The default, NPAR=number of cores might be grossly inefficient         |
|      on modern multi-core architectures or massively parallel machines.     |
|      Do your own testing !!!!                                               |
|      Unfortunately you need to use the default for GW and RPA calculations. |
|      (for HF NCORE is supported but not extensively tested yet)             |
|                                                                             |
 ----------------------------------------------------------------------------- 

 LDA part: xc-table for Pade appr. of Perdew
 POSCAR, INCAR and KPOINTS ok, starting setup
 WARNING: small aliasing (wrap around) errors must be expected
 FFT: planning ...
 WAVECAR not read
 WARNING: random wavefunctions but no delay for mixing, default for NELMDL
 entering main loop
       N       E                     dE             d eps       ncg     rms          rms(c)
DAV:   1     0.628635972426E+03    0.62864E+03   -0.24674E+04 14544   0.124E+03
DAV:   2    -0.379197488991E+02   -0.66656E+03   -0.64074E+03 21630   0.264E+02
DAV:   3    -0.154303131838E+03   -0.11638E+03   -0.11600E+03 17094   0.123E+02
DAV:   4    -0.157699261249E+03   -0.33961E+01   -0.33776E+01 16422   0.268E+01
DAV:   5    -0.157801280381E+03   -0.10202E+00   -0.10188E+00 17856   0.442E+00    0.156E+01
DAV:   6    -0.150453523980E+03    0.73478E+01   -0.69609E+00 15414   0.104E+01    0.826E+00
DAV:   7    -0.147635003217E+03    0.28185E+01   -0.82961E+00 14616   0.112E+01    0.143E+00
DAV:   8    -0.147570546166E+03    0.64457E-01   -0.17228E-01 18282   0.176E+00    0.266E-01
DAV:   9    -0.147553246730E+03    0.17299E-01   -0.21142E-02 17094   0.487E-01    0.213E-01
DAV:  10    -0.147547619403E+03    0.56273E-02   -0.54161E-03 17682   0.171E-01    0.177E-01
DAV:  11    -0.147543085684E+03    0.45337E-02   -0.60365E-03 14646   0.230E-01    0.830E-02
DAV:  12    -0.147546241003E+03   -0.31553E-02   -0.22566E-03 14364   0.136E-01    0.664E-02
DAV:  13    -0.147547329365E+03   -0.10884E-02   -0.99211E-04 16506   0.775E-02    0.487E-02
DAV:  14    -0.147550197123E+03   -0.28678E-02   -0.23126E-04 15924   0.433E-02    0.265E-02
DAV:  15    -0.147555700855E+03   -0.55037E-02   -0.86433E-04 14802   0.659E-02    0.427E-02
DAV:  16    -0.147556246814E+03   -0.54596E-03   -0.15457E-04 16854   0.231E-02    0.816E-03
DAV:  17    -0.147556794424E+03   -0.54761E-03   -0.27177E-05 14142   0.138E-02    0.265E-03
DAV:  18    -0.147557000501E+03   -0.20608E-03   -0.11456E-05 13632   0.871E-03    0.171E-03
DAV:  19    -0.147557078814E+03   -0.78313E-04   -0.35790E-06 14754   0.506E-03    0.334E-03
DAV:  20    -0.147557094201E+03   -0.15388E-04   -0.12484E-06 11106   0.234E-03    0.110E-03
DAV:  21    -0.147557116790E+03   -0.22589E-04   -0.28613E-07 11622   0.177E-03    0.936E-04
DAV:  22    -0.147557124392E+03   -0.76019E-05   -0.15937E-07 10068   0.105E-03    0.610E-04
DAV:  23    -0.147557128802E+03   -0.44095E-05   -0.33776E-08 10062   0.563E-04    0.115E-04
DAV:  24    -0.147557129994E+03   -0.11925E-05   -0.90638E-09 10200   0.315E-04    0.225E-04
DAV:  25    -0.147557130276E+03   -0.28184E-06   -0.40533E-09 10134   0.173E-04
   1 F= -.14897493E+03 E0= -.14897493E+03  d E =0.000000E+00
