  32  32   0   0
  0.7976710E+01  0.4934311E-09  0.4934311E-09  0.1210634E-08  0.5000000E-15
  1.000000000000000E-004
  CAR 
 graphite                                
     17.45287055    -16.15210970  301      5.59492131      1.00000000
    -16.152  0.0000E+00  0.0000E+00
    -16.040  0.0000E+00  0.0000E+00
    -15.928  0.0000E+00  0.0000E+00
    -15.816  0.0000E+00  0.0000E+00
    -15.704  0.0000E+00  0.0000E+00
    -15.592  0.0000E+00  0.0000E+00
    -15.480  0.0000E+00  0.0000E+00
    -15.368  0.0000E+00  0.0000E+00
    -15.256  0.0000E+00  0.0000E+00
    -15.144  0.0000E+00  0.0000E+00
    -15.032  0.0000E+00  0.0000E+00
    -14.920  0.0000E+00  0.0000E+00
    -14.808  0.0000E+00  0.0000E+00
    -14.696  0.0000E+00  0.0000E+00
    -14.584  0.0000E+00  0.0000E+00
    -14.472  0.0000E+00  0.0000E+00
    -14.360  0.0000E+00  0.0000E+00
    -14.248  0.0000E+00  0.0000E+00
    -14.136  0.8322E-01  0.4521E-03
    -14.024  0.1342E+01  0.9744E-01
    -13.912  0.2100E+01  0.2894E+00
    -13.800  0.2577E+01  0.5509E+00
    -13.688  0.3196E+01  0.8729E+00
    -13.576  0.3884E+01  0.1269E+01
    -13.464  0.5023E+01  0.1771E+01
    -13.352  0.4963E+01  0.2319E+01
    -13.240  0.4927E+01  0.2874E+01
    -13.128  0.4962E+01  0.3428E+01
    -13.016  0.4928E+01  0.3984E+01
    -12.904  0.5309E+01  0.4554E+01
    -12.792  0.5506E+01  0.5161E+01
    -12.680  0.6153E+01  0.5821E+01
    -12.568  0.5522E+01  0.6474E+01
    -12.456  0.4817E+01  0.7061E+01
    -12.344  0.2690E+01  0.7523E+01
    -12.232  0.3462E+01  0.7874E+01
    -12.120  0.3688E+01  0.8300E+01
    -12.007  0.5420E+01  0.8901E+01
    -11.895  0.4991E+01  0.9479E+01
    -11.783  0.5104E+01  0.1004E+02
    -11.671  0.5565E+01  0.1063E+02
    -11.559  0.5270E+01  0.1125E+02
    -11.447  0.5346E+01  0.1182E+02
    -11.335  0.5198E+01  0.1241E+02
    -11.223  0.4978E+01  0.1298E+02
    -11.111  0.4968E+01  0.1354E+02
    -10.999  0.5041E+01  0.1410E+02
    -10.887  0.5378E+01  0.1469E+02
    -10.775  0.4992E+01  0.1526E+02
    -10.663  0.5101E+01  0.1583E+02
    -10.551  0.5259E+01  0.1641E+02
    -10.439  0.5329E+01  0.1700E+02
    -10.327  0.5363E+01  0.1760E+02
    -10.215  0.5514E+01  0.1821E+02
    -10.103  0.5790E+01  0.1884E+02
     -9.991  0.5894E+01  0.1949E+02
     -9.879  0.6258E+01  0.2017E+02
     -9.767  0.6239E+01  0.2088E+02
     -9.655  0.5338E+01  0.2153E+02
     -9.543  0.4199E+01  0.2206E+02
     -9.431  0.3959E+01  0.2251E+02
     -9.319  0.4439E+01  0.2298E+02
     -9.207  0.5188E+01  0.2352E+02
     -9.095  0.5568E+01  0.2413E+02
     -8.983  0.6126E+01  0.2477E+02
     -8.871  0.6747E+01  0.2549E+02
     -8.759  0.7774E+01  0.2630E+02
     -8.647  0.9069E+01  0.2724E+02
     -8.535  0.6919E+01  0.2829E+02
     -8.423  0.5104E+01  0.2893E+02
     -8.311  0.4907E+01  0.2947E+02
     -8.199  0.3393E+01  0.2993E+02
     -8.087  0.2987E+01  0.3028E+02
     -7.975  0.2626E+01  0.3060E+02
     -7.863  0.2839E+01  0.3092E+02
     -7.751  0.2277E+01  0.3120E+02
     -7.639  0.1975E+01  0.3144E+02
     -7.527  0.2018E+01  0.3165E+02
     -7.415  0.2927E+01  0.3192E+02
     -7.303  0.5757E+01  0.3251E+02
     -7.191  0.4170E+01  0.3307E+02
     -7.079  0.4349E+01  0.3355E+02
     -6.967  0.5673E+01  0.3407E+02
     -6.855  0.5950E+01  0.3472E+02
     -6.743  0.7631E+01  0.3548E+02
     -6.631  0.7629E+01  0.3630E+02
     -6.519  0.8113E+01  0.3722E+02
     -6.407  0.7590E+01  0.3810E+02
     -6.295  0.6192E+01  0.3888E+02
     -6.183  0.5870E+01  0.3956E+02
     -6.071  0.5620E+01  0.4020E+02
     -5.959  0.5419E+01  0.4082E+02
     -5.847  0.5225E+01  0.4141E+02
     -5.735  0.5041E+01  0.4199E+02
     -5.623  0.4901E+01  0.4254E+02
     -5.511  0.4843E+01  0.4309E+02
     -5.399  0.4811E+01  0.4363E+02
     -5.286  0.4650E+01  0.4416E+02
     -5.174  0.4554E+01  0.4467E+02
     -5.062  0.3875E+01  0.4516E+02
     -4.950  0.3681E+01  0.4556E+02
     -4.838  0.4352E+01  0.4601E+02
     -4.726  0.5074E+01  0.4654E+02
     -4.614  0.5826E+01  0.4715E+02
     -4.502  0.7674E+01  0.4788E+02
     -4.390  0.8757E+01  0.4882E+02
     -4.278  0.9290E+01  0.4986E+02
     -4.166  0.6332E+01  0.5074E+02
     -4.054  0.3424E+01  0.5128E+02
     -3.942  0.2242E+01  0.5157E+02
     -3.830  0.3069E+01  0.5186E+02
     -3.718  0.4441E+01  0.5228E+02
     -3.606  0.6259E+01  0.5287E+02
     -3.494  0.7768E+01  0.5367E+02
     -3.382  0.8008E+01  0.5457E+02
     -3.270  0.7130E+01  0.5543E+02
     -3.158  0.6017E+01  0.5616E+02
     -3.046  0.7889E+01  0.5690E+02
     -2.934  0.8549E+01  0.5786E+02
     -2.822  0.8133E+01  0.5880E+02
     -2.710  0.7623E+01  0.5969E+02
     -2.598  0.6982E+01  0.6053E+02
     -2.486  0.7609E+01  0.6143E+02
     -2.374  0.1115E+02  0.6233E+02
     -2.262  0.9726E+01  0.6345E+02
     -2.150  0.7913E+01  0.6444E+02
     -2.038  0.7237E+01  0.6527E+02
     -1.926  0.8315E+01  0.6613E+02
     -1.814  0.9842E+01  0.6715E+02
     -1.702  0.1093E+02  0.6831E+02
     -1.590  0.1127E+02  0.6955E+02
     -1.478  0.1016E+02  0.7079E+02
     -1.366  0.1143E+02  0.7195E+02
     -1.254  0.1321E+02  0.7333E+02
     -1.142  0.1453E+02  0.7491E+02
     -1.030  0.1262E+02  0.7647E+02
     -0.918  0.1341E+02  0.7785E+02
     -0.806  0.1029E+02  0.7944E+02
     -0.694  0.1659E+02  0.8079E+02
     -0.582  0.1949E+02  0.8290E+02
     -0.470  0.1487E+02  0.8478E+02
     -0.358  0.1340E+02  0.8634E+02
     -0.246  0.1195E+02  0.8777E+02
     -0.134  0.1044E+02  0.8901E+02
     -0.022  0.1015E+02  0.9015E+02
      0.090  0.1076E+02  0.9132E+02
      0.202  0.1232E+02  0.9258E+02
      0.314  0.1238E+02  0.9404E+02
      0.426  0.1109E+02  0.9550E+02
      0.538  0.9357E+01  0.9659E+02
      0.650  0.9350E+01  0.9764E+02
      0.762  0.9529E+01  0.9868E+02
      0.874  0.1104E+02  0.9982E+02
      0.986  0.1156E+02  0.1011E+03
      1.098  0.9981E+01  0.1023E+03
      1.210  0.9529E+01  0.1034E+03
      1.322  0.9125E+01  0.1045E+03
      1.434  0.9201E+01  0.1055E+03
      1.547  0.9473E+01  0.1065E+03
      1.659  0.9871E+01  0.1076E+03
      1.771  0.9541E+01  0.1087E+03
      1.883  0.1024E+02  0.1098E+03
      1.995  0.9499E+01  0.1109E+03
      2.107  0.8641E+01  0.1119E+03
      2.219  0.8634E+01  0.1129E+03
      2.331  0.8992E+01  0.1139E+03
      2.443  0.9478E+01  0.1149E+03
      2.555  0.8552E+01  0.1160E+03
      2.667  0.6787E+01  0.1168E+03
      2.779  0.7146E+01  0.1176E+03
      2.891  0.8494E+01  0.1185E+03
      3.003  0.3363E+01  0.1191E+03
      3.115  0.2870E+01  0.1194E+03
      3.227  0.4854E+01  0.1198E+03
      3.339  0.7430E+01  0.1205E+03
      3.451  0.9123E+01  0.1214E+03
      3.563  0.5942E+01  0.1224E+03
      3.675  0.5654E+01  0.1230E+03
      3.787  0.4885E+01  0.1236E+03
      3.899  0.5036E+01  0.1242E+03
      4.011  0.5472E+01  0.1248E+03
      4.123  0.5043E+01  0.1254E+03
      4.235  0.3472E+01  0.1259E+03
      4.347  0.3026E+01  0.1262E+03
      4.459  0.2640E+01  0.1265E+03
      4.571  0.2254E+01  0.1268E+03
      4.683  0.1842E+01  0.1270E+03
      4.795  0.1671E+01  0.1272E+03
      4.907  0.1489E+01  0.1274E+03
      5.019  0.1291E+01  0.1276E+03
      5.131  0.1117E+01  0.1277E+03
      5.243  0.1048E+01  0.1278E+03
      5.355  0.6874E+00  0.1279E+03
      5.467  0.3317E+00  0.1280E+03
      5.579  0.8478E-02  0.1280E+03
      5.691  0.1057E+00  0.1280E+03
      5.803  0.2703E+00  0.1280E+03
      5.915  0.4421E+00  0.1281E+03
      6.027  0.6210E+00  0.1281E+03
      6.139  0.8090E+00  0.1282E+03
      6.251  0.9592E+00  0.1283E+03
      6.363  0.1152E+01  0.1284E+03
      6.475  0.1395E+01  0.1286E+03
      6.587  0.1628E+01  0.1287E+03
      6.699  0.1902E+01  0.1289E+03
      6.811  0.2273E+01  0.1292E+03
      6.923  0.3454E+01  0.1295E+03
      7.035  0.4459E+01  0.1299E+03
      7.147  0.6883E+01  0.1305E+03
      7.259  0.1120E+02  0.1317E+03
      7.371  0.8146E+01  0.1328E+03
      7.483  0.7262E+01  0.1336E+03
      7.595  0.6820E+01  0.1344E+03
      7.707  0.6760E+01  0.1352E+03
      7.819  0.6125E+01  0.1359E+03
      7.931  0.4975E+01  0.1365E+03
      8.043  0.4106E+01  0.1371E+03
      8.155  0.3762E+01  0.1375E+03
      8.268  0.3907E+01  0.1379E+03
      8.380  0.3598E+01  0.1383E+03
      8.492  0.3945E+01  0.1388E+03
      8.604  0.4296E+01  0.1392E+03
      8.716  0.4741E+01  0.1397E+03
      8.828  0.4963E+01  0.1403E+03
      8.940  0.5006E+01  0.1408E+03
      9.052  0.4498E+01  0.1414E+03
      9.164  0.4145E+01  0.1419E+03
      9.276  0.4031E+01  0.1423E+03
      9.388  0.3942E+01  0.1428E+03
      9.500  0.3752E+01  0.1432E+03
      9.612  0.3612E+01  0.1436E+03
      9.724  0.3538E+01  0.1440E+03
      9.836  0.3443E+01  0.1444E+03
      9.948  0.3324E+01  0.1448E+03
     10.060  0.3240E+01  0.1451E+03
     10.172  0.3232E+01  0.1455E+03
     10.284  0.3029E+01  0.1458E+03
     10.396  0.2950E+01  0.1462E+03
     10.508  0.2919E+01  0.1465E+03
     10.620  0.3004E+01  0.1468E+03
     10.732  0.2994E+01  0.1472E+03
     10.844  0.2953E+01  0.1475E+03
     10.956  0.2896E+01  0.1478E+03
     11.068  0.2898E+01  0.1482E+03
     11.180  0.3147E+01  0.1485E+03
     11.292  0.3507E+01  0.1489E+03
     11.404  0.3715E+01  0.1493E+03
     11.516  0.3803E+01  0.1497E+03
     11.628  0.3728E+01  0.1501E+03
     11.740  0.3573E+01  0.1505E+03
     11.852  0.3505E+01  0.1509E+03
     11.964  0.3544E+01  0.1513E+03
     12.076  0.3672E+01  0.1517E+03
     12.188  0.4245E+01  0.1522E+03
     12.300  0.3415E+01  0.1526E+03
     12.412  0.3154E+01  0.1530E+03
     12.524  0.3310E+01  0.1533E+03
     12.636  0.3233E+01  0.1537E+03
     12.748  0.4617E+01  0.1541E+03
     12.860  0.5530E+01  0.1547E+03
     12.972  0.7665E+01  0.1554E+03
     13.084  0.9045E+01  0.1564E+03
     13.196  0.9479E+01  0.1574E+03
     13.308  0.9281E+01  0.1585E+03
     13.420  0.1068E+02  0.1596E+03
     13.532  0.1120E+02  0.1608E+03
     13.644  0.1290E+02  0.1623E+03
     13.756  0.1173E+02  0.1636E+03
     13.868  0.1022E+02  0.1648E+03
     13.980  0.9296E+01  0.1660E+03
     14.092  0.5152E+01  0.1668E+03
     14.204  0.3707E+01  0.1673E+03
     14.316  0.2580E+01  0.1676E+03
     14.428  0.8686E+00  0.1678E+03
     14.540  0.3171E+00  0.1679E+03
     14.652  0.2307E+00  0.1679E+03
     14.764  0.1594E+00  0.1680E+03
     14.876  0.1032E+00  0.1680E+03
     14.989  0.6214E-01  0.1680E+03
     15.101  0.3521E-01  0.1680E+03
     15.213  0.1638E-01  0.1680E+03
     15.325  0.4670E-02  0.1680E+03
     15.437  0.7534E-04  0.1680E+03
     15.549  0.0000E+00  0.1680E+03
     15.661  0.0000E+00  0.1680E+03
     15.773  0.0000E+00  0.1680E+03
     15.885  0.0000E+00  0.1680E+03
     15.997  0.0000E+00  0.1680E+03
     16.109  0.0000E+00  0.1680E+03
     16.221  0.0000E+00  0.1680E+03
     16.333  0.0000E+00  0.1680E+03
     16.445  0.0000E+00  0.1680E+03
     16.557  0.0000E+00  0.1680E+03
     16.669  0.0000E+00  0.1680E+03
     16.781  0.0000E+00  0.1680E+03
     16.893  0.0000E+00  0.1680E+03
     17.005  0.0000E+00  0.1680E+03
     17.117  0.0000E+00  0.1680E+03
     17.229  0.0000E+00  0.1680E+03
     17.341  0.0000E+00  0.1680E+03
     17.453  0.0000E+00  0.1680E+03
