  32  32   0   0
  0.8119452E+01  0.4932875E-09  0.4932875E-09  0.1233506E-08  0.5000000E-15
  1.000000000000000E-004
  CAR 
 graphite                                
     17.29948598    -16.29874107  301      5.42986233      1.00000000
    -16.299  0.0000E+00  0.0000E+00
    -16.187  0.0000E+00  0.0000E+00
    -16.075  0.0000E+00  0.0000E+00
    -15.963  0.0000E+00  0.0000E+00
    -15.851  0.0000E+00  0.0000E+00
    -15.739  0.0000E+00  0.0000E+00
    -15.627  0.0000E+00  0.0000E+00
    -15.515  0.0000E+00  0.0000E+00
    -15.403  0.0000E+00  0.0000E+00
    -15.291  0.0000E+00  0.0000E+00
    -15.179  0.0000E+00  0.0000E+00
    -15.067  0.0000E+00  0.0000E+00
    -14.955  0.0000E+00  0.0000E+00
    -14.843  0.0000E+00  0.0000E+00
    -14.731  0.0000E+00  0.0000E+00
    -14.619  0.0000E+00  0.0000E+00
    -14.507  0.0000E+00  0.0000E+00
    -14.395  0.0000E+00  0.0000E+00
    -14.283  0.8929E-01  0.4730E-03
    -14.171  0.1426E+01  0.1037E+00
    -14.059  0.2245E+01  0.3089E+00
    -13.947  0.2794E+01  0.5909E+00
    -13.835  0.3540E+01  0.9436E+00
    -13.723  0.4759E+01  0.1398E+01
    -13.611  0.4895E+01  0.1947E+01
    -13.499  0.4906E+01  0.2500E+01
    -13.387  0.4980E+01  0.3051E+01
    -13.275  0.4966E+01  0.3609E+01
    -13.163  0.4927E+01  0.4161E+01
    -13.051  0.5371E+01  0.4734E+01
    -12.939  0.5559E+01  0.5347E+01
    -12.827  0.6235E+01  0.6013E+01
    -12.715  0.5592E+01  0.6695E+01
    -12.603  0.4818E+01  0.7262E+01
    -12.491  0.2627E+01  0.7632E+01
    -12.379  0.3755E+01  0.8008E+01
    -12.267  0.3481E+01  0.8402E+01
    -12.155  0.5690E+01  0.9065E+01
    -12.043  0.5234E+01  0.9663E+01
    -11.931  0.5250E+01  0.1024E+02
    -11.819  0.5508E+01  0.1087E+02
    -11.707  0.4853E+01  0.1143E+02
    -11.595  0.5253E+01  0.1200E+02
    -11.483  0.5033E+01  0.1257E+02
    -11.371  0.4987E+01  0.1313E+02
    -11.259  0.5082E+01  0.1369E+02
    -11.147  0.5396E+01  0.1428E+02
    -11.035  0.5069E+01  0.1489E+02
    -10.923  0.5015E+01  0.1544E+02
    -10.811  0.5106E+01  0.1601E+02
    -10.699  0.5209E+01  0.1659E+02
    -10.587  0.5282E+01  0.1718E+02
    -10.475  0.5346E+01  0.1777E+02
    -10.363  0.5579E+01  0.1838E+02
    -10.251  0.5732E+01  0.1902E+02
    -10.139  0.5932E+01  0.1967E+02
    -10.027  0.6139E+01  0.2035E+02
     -9.915  0.6063E+01  0.2104E+02
     -9.803  0.5106E+01  0.2167E+02
     -9.691  0.4106E+01  0.2218E+02
     -9.579  0.4153E+01  0.2263E+02
     -9.467  0.4920E+01  0.2314E+02
     -9.355  0.5356E+01  0.2372E+02
     -9.243  0.5600E+01  0.2433E+02
     -9.131  0.6312E+01  0.2499E+02
     -9.019  0.6977E+01  0.2573E+02
     -8.907  0.8375E+01  0.2658E+02
     -8.795  0.8998E+01  0.2760E+02
     -8.683  0.6062E+01  0.2849E+02
     -8.571  0.4897E+01  0.2910E+02
     -8.459  0.4185E+01  0.2965E+02
     -8.347  0.3253E+01  0.3004E+02
     -8.235  0.2854E+01  0.3038E+02
     -8.123  0.2557E+01  0.3068E+02
     -8.011  0.2759E+01  0.3100E+02
     -7.899  0.2286E+01  0.3127E+02
     -7.787  0.1869E+01  0.3151E+02
     -7.675  0.2121E+01  0.3172E+02
     -7.563  0.4578E+01  0.3203E+02
     -7.451  0.5827E+01  0.3269E+02
     -7.339  0.4226E+01  0.3321E+02
     -7.227  0.4141E+01  0.3369E+02
     -7.115  0.6046E+01  0.3425E+02
     -7.003  0.6549E+01  0.3492E+02
     -6.891  0.6752E+01  0.3572E+02
     -6.779  0.7954E+01  0.3654E+02
     -6.667  0.8101E+01  0.3748E+02
     -6.555  0.7283E+01  0.3835E+02
     -6.443  0.6094E+01  0.3907E+02
     -6.331  0.5798E+01  0.3974E+02
     -6.219  0.5566E+01  0.4037E+02
     -6.107  0.5366E+01  0.4098E+02
     -5.995  0.5179E+01  0.4157E+02
     -5.883  0.4989E+01  0.4214E+02
     -5.771  0.4863E+01  0.4269E+02
     -5.659  0.4828E+01  0.4324E+02
     -5.547  0.4767E+01  0.4377E+02
     -5.435  0.4619E+01  0.4430E+02
     -5.323  0.4516E+01  0.4481E+02
     -5.211  0.3698E+01  0.4528E+02
     -5.099  0.3854E+01  0.4569E+02
     -4.987  0.4528E+01  0.4616E+02
     -4.875  0.5255E+01  0.4671E+02
     -4.763  0.6007E+01  0.4734E+02
     -4.651  0.8146E+01  0.4811E+02
     -4.539  0.9264E+01  0.4909E+02
     -4.427  0.8292E+01  0.5014E+02
     -4.315  0.5506E+01  0.5091E+02
     -4.203  0.2875E+01  0.5137E+02
     -4.091  0.2403E+01  0.5165E+02
     -3.979  0.3424E+01  0.5197E+02
     -3.867  0.4905E+01  0.5243E+02
     -3.755  0.6704E+01  0.5308E+02
     -3.643  0.7916E+01  0.5391E+02
     -3.531  0.7730E+01  0.5481E+02
     -3.419  0.6272E+01  0.5559E+02
     -3.307  0.5877E+01  0.5626E+02
     -3.195  0.8583E+01  0.5707E+02
     -3.083  0.8213E+01  0.5801E+02
     -2.971  0.7854E+01  0.5891E+02
     -2.859  0.7608E+01  0.5978E+02
     -2.747  0.7512E+01  0.6062E+02
     -2.635  0.7796E+01  0.6158E+02
     -2.523  0.9160E+01  0.6256E+02
     -2.411  0.9090E+01  0.6362E+02
     -2.299  0.7610E+01  0.6456E+02
     -2.187  0.7253E+01  0.6536E+02
     -2.075  0.8362E+01  0.6623E+02
     -1.963  0.1026E+02  0.6727E+02
     -1.852  0.1109E+02  0.6847E+02
     -1.740  0.1233E+02  0.6979E+02
     -1.628  0.9887E+01  0.7105E+02
     -1.516  0.1160E+02  0.7223E+02
     -1.404  0.1317E+02  0.7361E+02
     -1.292  0.1430E+02  0.7517E+02
     -1.180  0.1291E+02  0.7672E+02
     -1.068  0.1527E+02  0.7821E+02
     -0.956  0.1039E+02  0.7968E+02
     -0.844  0.1902E+02  0.8125E+02
     -0.732  0.1778E+02  0.8336E+02
     -0.620  0.1469E+02  0.8522E+02
     -0.508  0.1370E+02  0.8681E+02
     -0.396  0.1176E+02  0.8825E+02
     -0.284  0.9833E+01  0.8945E+02
     -0.172  0.9920E+01  0.9055E+02
     -0.060  0.1026E+02  0.9166E+02
      0.052  0.1313E+02  0.9295E+02
      0.164  0.1445E+02  0.9445E+02
      0.276  0.9926E+01  0.9590E+02
      0.388  0.9127E+01  0.9694E+02
      0.500  0.9168E+01  0.9792E+02
      0.612  0.1005E+02  0.9900E+02
      0.724  0.1100E+02  0.1002E+03
      0.836  0.1091E+02  0.1015E+03
      0.948  0.1049E+02  0.1026E+03
      1.060  0.9371E+01  0.1037E+03
      1.172  0.9252E+01  0.1048E+03
      1.284  0.9355E+01  0.1058E+03
      1.396  0.9427E+01  0.1069E+03
      1.508  0.9105E+01  0.1079E+03
      1.620  0.9880E+01  0.1090E+03
      1.732  0.9858E+01  0.1101E+03
      1.844  0.9562E+01  0.1112E+03
      1.956  0.8945E+01  0.1122E+03
      2.068  0.8601E+01  0.1132E+03
      2.180  0.9195E+01  0.1142E+03
      2.292  0.9450E+01  0.1152E+03
      2.404  0.8438E+01  0.1163E+03
      2.516  0.6096E+01  0.1171E+03
      2.628  0.6990E+01  0.1178E+03
      2.740  0.6714E+01  0.1186E+03
      2.852  0.3502E+01  0.1192E+03
      2.964  0.3155E+01  0.1196E+03
      3.076  0.6600E+01  0.1201E+03
      3.188  0.8532E+01  0.1209E+03
      3.300  0.8322E+01  0.1219E+03
      3.412  0.5081E+01  0.1226E+03
      3.524  0.5605E+01  0.1232E+03
      3.636  0.5288E+01  0.1238E+03
      3.748  0.5970E+01  0.1244E+03
      3.860  0.5442E+01  0.1251E+03
      3.972  0.3935E+01  0.1256E+03
      4.084  0.3232E+01  0.1260E+03
      4.196  0.2876E+01  0.1264E+03
      4.308  0.2526E+01  0.1267E+03
      4.420  0.2144E+01  0.1269E+03
      4.532  0.1779E+01  0.1271E+03
      4.644  0.1583E+01  0.1273E+03
      4.756  0.1372E+01  0.1275E+03
      4.868  0.1184E+01  0.1276E+03
      4.980  0.1021E+01  0.1277E+03
      5.092  0.8922E+00  0.1279E+03
      5.204  0.5745E+00  0.1279E+03
      5.316  0.2618E+00  0.1280E+03
      5.428  0.0000E+00  0.1280E+03
      5.540  0.1245E+00  0.1280E+03
      5.652  0.2843E+00  0.1280E+03
      5.764  0.4518E+00  0.1281E+03
      5.876  0.6271E+00  0.1281E+03
      5.988  0.8154E+00  0.1282E+03
      6.100  0.9812E+00  0.1283E+03
      6.212  0.1189E+01  0.1284E+03
      6.324  0.1453E+01  0.1286E+03
      6.436  0.1713E+01  0.1288E+03
      6.548  0.2028E+01  0.1290E+03
      6.660  0.2570E+01  0.1292E+03
      6.772  0.3849E+01  0.1296E+03
      6.884  0.4806E+01  0.1301E+03
      6.996  0.8460E+01  0.1308E+03
      7.108  0.9029E+01  0.1320E+03
      7.220  0.7548E+01  0.1329E+03
      7.332  0.7188E+01  0.1338E+03
      7.444  0.6924E+01  0.1346E+03
      7.556  0.7088E+01  0.1353E+03
      7.668  0.5649E+01  0.1361E+03
      7.780  0.4706E+01  0.1367E+03
      7.892  0.4119E+01  0.1372E+03
      8.004  0.4059E+01  0.1376E+03
      8.116  0.3547E+01  0.1380E+03
      8.228  0.3625E+01  0.1384E+03
      8.340  0.3951E+01  0.1389E+03
      8.452  0.4398E+01  0.1393E+03
      8.564  0.4792E+01  0.1398E+03
      8.676  0.4976E+01  0.1404E+03
      8.788  0.4851E+01  0.1409E+03
      8.900  0.4420E+01  0.1415E+03
      9.012  0.4090E+01  0.1419E+03
      9.124  0.4012E+01  0.1424E+03
      9.236  0.3893E+01  0.1428E+03
      9.348  0.3700E+01  0.1433E+03
      9.460  0.3578E+01  0.1437E+03
      9.572  0.3500E+01  0.1441E+03
      9.684  0.3381E+01  0.1445E+03
      9.796  0.3264E+01  0.1448E+03
      9.908  0.3209E+01  0.1452E+03
     10.020  0.3204E+01  0.1455E+03
     10.132  0.3064E+01  0.1459E+03
     10.244  0.2974E+01  0.1462E+03
     10.356  0.2992E+01  0.1466E+03
     10.468  0.2951E+01  0.1469E+03
     10.580  0.2939E+01  0.1472E+03
     10.692  0.3008E+01  0.1476E+03
     10.804  0.3202E+01  0.1479E+03
     10.916  0.3419E+01  0.1483E+03
     11.028  0.3460E+01  0.1487E+03
     11.140  0.3431E+01  0.1491E+03
     11.252  0.3891E+01  0.1495E+03
     11.364  0.3971E+01  0.1499E+03
     11.476  0.4027E+01  0.1504E+03
     11.588  0.3863E+01  0.1508E+03
     11.700  0.3792E+01  0.1512E+03
     11.812  0.3838E+01  0.1517E+03
     11.924  0.4003E+01  0.1521E+03
     12.036  0.4690E+01  0.1526E+03
     12.148  0.3434E+01  0.1530E+03
     12.260  0.3401E+01  0.1534E+03
     12.372  0.2398E+01  0.1537E+03
     12.484  0.2722E+01  0.1540E+03
     12.596  0.4010E+01  0.1544E+03
     12.708  0.5393E+01  0.1550E+03
     12.820  0.7497E+01  0.1557E+03
     12.932  0.9245E+01  0.1567E+03
     13.044  0.1038E+02  0.1578E+03
     13.156  0.1109E+02  0.1590E+03
     13.268  0.1206E+02  0.1603E+03
     13.380  0.1121E+02  0.1616E+03
     13.492  0.1058E+02  0.1628E+03
     13.604  0.9932E+01  0.1640E+03
     13.716  0.9932E+01  0.1651E+03
     13.828  0.9753E+01  0.1662E+03
     13.940  0.5301E+01  0.1671E+03
     14.052  0.3028E+01  0.1675E+03
     14.164  0.1640E+01  0.1678E+03
     14.276  0.7353E+00  0.1679E+03
     14.388  0.2718E+00  0.1679E+03
     14.500  0.1427E+00  0.1680E+03
     14.612  0.8221E-01  0.1680E+03
     14.724  0.5750E-01  0.1680E+03
     14.836  0.3731E-01  0.1680E+03
     14.948  0.2147E-01  0.1680E+03
     15.060  0.9978E-02  0.1680E+03
     15.172  0.2836E-02  0.1680E+03
     15.284  0.4380E-04  0.1680E+03
     15.396  0.0000E+00  0.1680E+03
     15.508  0.0000E+00  0.1680E+03
     15.620  0.0000E+00  0.1680E+03
     15.732  0.0000E+00  0.1680E+03
     15.844  0.0000E+00  0.1680E+03
     15.956  0.0000E+00  0.1680E+03
     16.068  0.0000E+00  0.1680E+03
     16.180  0.0000E+00  0.1680E+03
     16.292  0.0000E+00  0.1680E+03
     16.404  0.0000E+00  0.1680E+03
     16.516  0.0000E+00  0.1680E+03
     16.628  0.0000E+00  0.1680E+03
     16.740  0.0000E+00  0.1680E+03
     16.852  0.0000E+00  0.1680E+03
     16.964  0.0000E+00  0.1680E+03
     17.075  0.0000E+00  0.1680E+03
     17.187  0.0000E+00  0.1680E+03
     17.299  0.0000E+00  0.1680E+03
