 vasp.5.3.5 31Mar14 (build Nov 02 2014 15:17:37) complex                        
  
 executed on        ion-Intel-MKL date 2016.08.31  06:02:36
 running on    6 total cores
 distrk:  each k-point on    6 cores,    1 groups
 distr:  one band on NCORES_PER_BAND=   1 cores,    6 groups


--------------------------------------------------------------------------------------------------------


 INCAR:
 POTCAR:   PAW_PBE C 08Apr2002                    

 ----------------------------------------------------------------------------- 
|                                                                             |
|           W    W    AA    RRRRR   N    N  II  N    N   GGGG   !!!           |
|           W    W   A  A   R    R  NN   N  II  NN   N  G    G  !!!           |
|           W    W  A    A  R    R  N N  N  II  N N  N  G       !!!           |
|           W WW W  AAAAAA  RRRRR   N  N N  II  N  N N  G  GGG   !            |
|           WW  WW  A    A  R   R   N   NN  II  N   NN  G    G                |
|           W    W  A    A  R    R  N    N  II  N    N   GGGG   !!!           |
|                                                                             |
|      For optimal performance we recommend to set                            |
|        NCORE= 4 - approx SQRT( number of cores)                             |
|      NCORE specifies how many cores store one orbital (NPAR=cpu/NCORE).     |
|      This setting can  greatly improve the performance of VASP for DFT.     |
|      The default, NPAR=number of cores might be grossly inefficient         |
|      on modern multi-core architectures or massively parallel machines.     |
|      Do your own testing !!!!                                               |
|      Unfortunately you need to use the default for GW and RPA calculations. |
|      (for HF NCORE is supported but not extensively tested yet)             |
|                                                                             |
 ----------------------------------------------------------------------------- 

 POTCAR:   PAW_PBE C 08Apr2002                    
   VRHFIN =C: s2p2                                                              
   LEXCH  = PE                                                                  
   EATOM  =   147.1560 eV,   10.8157 Ry                                         
                                                                                
   TITEL  = PAW_PBE C 08Apr2002                                                 
   LULTRA =        F    use ultrasoft PP ?                                      
   IUNSCR =        0    unscreen: 0-lin 1-nonlin 2-no                           
   RPACOR =     .000    partial core radius                                     
   POMASS =   12.011; ZVAL   =    4.000    mass and valenz                      
   RCORE  =    1.500    outmost cutoff radius                                   
   RWIGS  =    1.630; RWIGS  =     .863    wigner-seitz radius (au A)           
   ENMAX  =  400.000; ENMIN  =  300.000 eV                                      
   ICORE  =        2    local potential                                         
   LCOR   =        T    correct aug charges                                     
   LPAW   =        T    paw PP                                                  
   EAUG   =  644.873                                                            
   DEXC   =     .000                                                            
   RMAX   =    2.266    core radius for proj-oper                               
   RAUG   =    1.300    factor for augmentation sphere                          
   RDEP   =    1.501    radius for radial grids                                 
   RDEPT  =    1.300    core radius for aug-charge                              
   QCUT   =   -5.516; QGAM   =   11.032    optimization parameters              
                                                                                
   Description                                                                  
     l     E      TYP  RCUT    TYP  RCUT                                        
     0   .000     23  1.200                                                     
     0   .000     23  1.200                                                     
     1   .000     23  1.500                                                     
     1  2.500     23  1.500                                                     
     2   .000      7  1.500                                                     
  local pseudopotential read in
  atomic valenz-charges read in
  non local Contribution for L=           0  read in
    real space projection operators read in
  non local Contribution for L=           0  read in
    real space projection operators read in
  non local Contribution for L=           1  read in
    real space projection operators read in
  non local Contribution for L=           1  read in
    real space projection operators read in
    PAW grid and wavefunctions read in
 
   number of l-projection  operators is LMAX  =           4
   number of lm-projection operators is LMMAX =           8
 

 ----------------------------------------------------------------------------- 
|                                                                             |
|  ADVICE TO THIS USER RUNNING 'VASP/VAMP'   (HEAR YOUR MASTER'S VOICE ...):  |
|                                                                             |
|      You have a (more or less) 'large supercell' and for larger cells       |
|      it might be more efficient to use real space projection operators      |
|      So try LREAL= Auto  in the INCAR   file.                               |
|      Mind: If you want to do a very accurate calculations keep the          |
|      reciprocal projection scheme          (i.e. LREAL=.FALSE.)             |
|                                                                             |
 ----------------------------------------------------------------------------- 

 PAW_PBE C 08Apr2002                    :
 energy of atom  1       EATOM= -147.1560
 kinetic energy error for atom=    0.0057 (will be added to EATOM!!)
 
 
 POSCAR: C                                       
  positions in direct lattice
  No initial velocities read in
 exchange correlation table for  LEXCH =        8
   RHO(1)=    0.500       N(1)  =     2000
   RHO(2)=  100.500       N(2)  =     4000
 


--------------------------------------------------------------------------------------------------------


 ion  position               nearest neighbor table
   1  0.500  0.000  0.126-  20 1.42  18 1.42  19 1.43
   2  1.000  0.000  0.125-  17 1.42  20 1.42  19 1.42
   3  0.500  0.500  0.125-  20 1.42  17 1.42  18 1.42
   4  1.000  0.500  0.125-  19 1.42  18 1.42  17 1.42
   5  0.500  0.000  0.625-  22 1.42  23 1.42  24 1.42
   6  1.000  0.000  0.625-  21 1.42  24 1.42  23 1.42
   7  0.500  0.500  0.625-  24 1.42  21 1.42  22 1.42
   8  1.000  0.500  0.625-  23 1.42  22 1.42  21 1.42
   9  0.000  0.500  0.375-  27 1.42  26 1.42  28 1.42
  10  0.500  0.500  0.375-  28 1.42  25 1.42  27 1.42
  11  0.000  1.000  0.375-  25 1.42  28 1.42  26 1.42
  12  0.500  1.000  0.375-  26 1.42  27 1.42  25 1.42
  13  0.000  0.500  0.875-  31 1.42  30 1.42  32 1.42
  14  0.500  0.500  0.875-  32 1.42  29 1.42  31 1.42
  15  0.000  1.000  0.875-  29 1.42  32 1.42  30 1.42
  16  0.500  1.000  0.875-  30 1.42  31 1.42  29 1.42
  17  0.166  0.334  0.125-   2 1.42   3 1.42   4 1.42
  18  0.666  0.334  0.125-   4 1.42   1 1.42   3 1.42
  19  0.166  0.834  0.125-   4 1.42   2 1.42   1 1.43
  20  0.666  0.834  0.125-   1 1.42   3 1.42   2 1.42
  21  0.166  0.334  0.625-   6 1.42   7 1.42   8 1.42
  22  0.666  0.334  0.625-   5 1.42   8 1.42   7 1.42
  23  0.166  0.834  0.625-   8 1.42   5 1.42   6 1.42
  24  0.666  0.834  0.625-   7 1.42   6 1.42   5 1.42
  25  0.334  0.166  0.375-  11 1.42  10 1.42  12 1.42
  26  0.834  0.166  0.375-  12 1.42   9 1.42  11 1.42
  27  0.334  0.666  0.375-   9 1.42  12 1.42  10 1.42
  28  0.834  0.666  0.375-  10 1.42  11 1.42   9 1.42
  29  0.334  0.166  0.875-  15 1.42  14 1.42  16 1.42
  30  0.834  0.166  0.875-  16 1.42  13 1.42  15 1.42
  31  0.334  0.666  0.875-  13 1.42  16 1.42  14 1.42
  32  0.834  0.666  0.875-  14 1.42  15 1.42  13 1.42
 
  LATTYP: Found a base centered orthorhombic cell.
 ALAT       =     4.9295501972
 B/A-ratio  =     1.7336081796
 C/A-ratio  =     2.6098925659
  
  Lattice vectors:
  
 A1 = (   4.9328744980,  -0.0019192860,   0.0000000000)
 A2 = (  -2.4680993993,   4.2710349859,   0.0000000000)
 A3 = (   0.0000000000,   0.0000000000,  12.8655964126)


Analysis of symmetry for initial positions (statically):
=====================================================================
 Subroutine PRICEL returns:
 Original cell was already a primitive cell.
 

 Routine SETGRP: Setting up the symmetry group for a 
 base centered orthorhombic supercell.


 Subroutine GETGRP returns: Found  1 space group operations
 (whereof  1 operations were pure point group operations)
 out of a pool of  8 trial point group operations.


The static configuration has the point symmetry C_1 .


Analysis of symmetry for dynamics (positions and initial velocities):
=====================================================================
 Subroutine PRICEL returns:
 Original cell was already a primitive cell.
 

 Routine SETGRP: Setting up the symmetry group for a 
 base centered orthorhombic supercell.


 Subroutine GETGRP returns: Found  1 space group operations
 (whereof  1 operations were pure point group operations)
 out of a pool of  8 trial point group operations.


The dynamic configuration has the point symmetry C_1 .
 
 
 KPOINTS: B4C B11C-CBC                            

Automatic generation of k-mesh.
Space group operators:
 irot       det(A)        alpha          n_x          n_y          n_z        tau_x        tau_y        tau_z
    1     1.000000     0.000000     1.000000     0.000000     0.000000     0.000000     0.000000     0.000000
 
 Subroutine IBZKPT returns following result:
 ===========================================
 
 Found    163 irreducible k-points:
 
 Following reciprocal coordinates:
            Coordinates               Weight
  0.000000  0.000000  0.000000      1.000000
  0.111111  0.000000  0.000000      2.000000
  0.222222  0.000000  0.000000      2.000000
  0.333333  0.000000  0.000000      2.000000
  0.444444  0.000000  0.000000      2.000000
  0.000000  0.111111  0.000000      2.000000
  0.111111  0.111111  0.000000      2.000000
  0.222222  0.111111  0.000000      2.000000
  0.333333  0.111111  0.000000      2.000000
  0.444444  0.111111  0.000000      2.000000
 -0.444444  0.111111  0.000000      2.000000
 -0.333333  0.111111  0.000000      2.000000
 -0.222222  0.111111  0.000000      2.000000
 -0.111111  0.111111  0.000000      2.000000
  0.000000  0.222222  0.000000      2.000000
  0.111111  0.222222  0.000000      2.000000
  0.222222  0.222222  0.000000      2.000000
  0.333333  0.222222  0.000000      2.000000
  0.444444  0.222222  0.000000      2.000000
 -0.444444  0.222222  0.000000      2.000000
 -0.333333  0.222222  0.000000      2.000000
 -0.222222  0.222222  0.000000      2.000000
 -0.111111  0.222222  0.000000      2.000000
  0.000000  0.333333  0.000000      2.000000
  0.111111  0.333333  0.000000      2.000000
  0.222222  0.333333  0.000000      2.000000
  0.333333  0.333333  0.000000      2.000000
  0.444444  0.333333  0.000000      2.000000
 -0.444444  0.333333  0.000000      2.000000
 -0.333333  0.333333  0.000000      2.000000
 -0.222222  0.333333  0.000000      2.000000
 -0.111111  0.333333  0.000000      2.000000
  0.000000  0.444444  0.000000      2.000000
  0.111111  0.444444  0.000000      2.000000
  0.222222  0.444444  0.000000      2.000000
  0.333333  0.444444  0.000000      2.000000
  0.444444  0.444444  0.000000      2.000000
 -0.444444  0.444444  0.000000      2.000000
 -0.333333  0.444444  0.000000      2.000000
 -0.222222  0.444444  0.000000      2.000000
 -0.111111  0.444444  0.000000      2.000000
  0.000000  0.000000  0.250000      2.000000
  0.111111  0.000000  0.250000      2.000000
  0.222222  0.000000  0.250000      2.000000
  0.333333  0.000000  0.250000      2.000000
  0.444444  0.000000  0.250000      2.000000
 -0.444444 -0.000000  0.250000      2.000000
 -0.333333 -0.000000  0.250000      2.000000
 -0.222222 -0.000000  0.250000      2.000000
 -0.111111 -0.000000  0.250000      2.000000
  0.000000  0.111111  0.250000      2.000000
  0.111111  0.111111  0.250000      2.000000
  0.222222  0.111111  0.250000      2.000000
  0.333333  0.111111  0.250000      2.000000
  0.444444  0.111111  0.250000      2.000000
 -0.444444  0.111111  0.250000      2.000000
 -0.333333  0.111111  0.250000      2.000000
 -0.222222  0.111111  0.250000      2.000000
 -0.111111  0.111111  0.250000      2.000000
  0.000000  0.222222  0.250000      2.000000
  0.111111  0.222222  0.250000      2.000000
  0.222222  0.222222  0.250000      2.000000
  0.333333  0.222222  0.250000      2.000000
  0.444444  0.222222  0.250000      2.000000
 -0.444444  0.222222  0.250000      2.000000
 -0.333333  0.222222  0.250000      2.000000
 -0.222222  0.222222  0.250000      2.000000
 -0.111111  0.222222  0.250000      2.000000
  0.000000  0.333333  0.250000      2.000000
  0.111111  0.333333  0.250000      2.000000
  0.222222  0.333333  0.250000      2.000000
  0.333333  0.333333  0.250000      2.000000
  0.444444  0.333333  0.250000      2.000000
 -0.444444  0.333333  0.250000      2.000000
 -0.333333  0.333333  0.250000      2.000000
 -0.222222  0.333333  0.250000      2.000000
 -0.111111  0.333333  0.250000      2.000000
  0.000000  0.444444  0.250000      2.000000
  0.111111  0.444444  0.250000      2.000000
  0.222222  0.444444  0.250000      2.000000
  0.333333  0.444444  0.250000      2.000000
  0.444444  0.444444  0.250000      2.000000
 -0.444444  0.444444  0.250000      2.000000
 -0.333333  0.444444  0.250000      2.000000
 -0.222222  0.444444  0.250000      2.000000
 -0.111111  0.444444  0.250000      2.000000
  0.000000 -0.444444  0.250000      2.000000
  0.111111 -0.444444  0.250000      2.000000
  0.222222 -0.444444  0.250000      2.000000
  0.333333 -0.444444  0.250000      2.000000
  0.444444 -0.444444  0.250000      2.000000
 -0.444444 -0.444444  0.250000      2.000000
 -0.333333 -0.444444  0.250000      2.000000
 -0.222222 -0.444444  0.250000      2.000000
 -0.111111 -0.444444  0.250000      2.000000
 -0.000000 -0.333333  0.250000      2.000000
  0.111111 -0.333333  0.250000      2.000000
  0.222222 -0.333333  0.250000      2.000000
  0.333333 -0.333333  0.250000      2.000000
  0.444444 -0.333333  0.250000      2.000000
 -0.444444 -0.333333  0.250000      2.000000
 -0.333333 -0.333333  0.250000      2.000000
 -0.222222 -0.333333  0.250000      2.000000
 -0.111111 -0.333333  0.250000      2.000000
  0.000000 -0.222222  0.250000      2.000000
  0.111111 -0.222222  0.250000      2.000000
  0.222222 -0.222222  0.250000      2.000000
  0.333333 -0.222222  0.250000      2.000000
  0.444444 -0.222222  0.250000      2.000000
 -0.444444 -0.222222  0.250000      2.000000
 -0.333333 -0.222222  0.250000      2.000000
 -0.222222 -0.222222  0.250000      2.000000
 -0.111111 -0.222222  0.250000      2.000000
  0.000000 -0.111111  0.250000      2.000000
  0.111111 -0.111111  0.250000      2.000000
  0.222222 -0.111111  0.250000      2.000000
  0.333333 -0.111111  0.250000      2.000000
  0.444444 -0.111111  0.250000      2.000000
 -0.444444 -0.111111  0.250000      2.000000
 -0.333333 -0.111111  0.250000      2.000000
 -0.222222 -0.111111  0.250000      2.000000
 -0.111111 -0.111111  0.250000      2.000000
  0.000000  0.000000  0.500000      1.000000
  0.111111  0.000000  0.500000      2.000000
  0.222222  0.000000  0.500000      2.000000
  0.333333  0.000000  0.500000      2.000000
  0.444444  0.000000  0.500000      2.000000
  0.000000  0.111111  0.500000      2.000000
  0.111111  0.111111  0.500000      2.000000
  0.222222  0.111111  0.500000      2.000000
  0.333333  0.111111  0.500000      2.000000
  0.444444  0.111111  0.500000      2.000000
 -0.444444  0.111111  0.500000      2.000000
 -0.333333  0.111111  0.500000      2.000000
 -0.222222  0.111111  0.500000      2.000000
 -0.111111  0.111111  0.500000      2.000000
  0.000000  0.222222  0.500000      2.000000
  0.111111  0.222222  0.500000      2.000000
  0.222222  0.222222  0.500000      2.000000
  0.333333  0.222222  0.500000      2.000000
  0.444444  0.222222  0.500000      2.000000
 -0.444444  0.222222  0.500000      2.000000
 -0.333333  0.222222  0.500000      2.000000
 -0.222222  0.222222  0.500000      2.000000
 -0.111111  0.222222  0.500000      2.000000
  0.000000  0.333333  0.500000      2.000000
  0.111111  0.333333  0.500000      2.000000
  0.222222  0.333333  0.500000      2.000000
  0.333333  0.333333  0.500000      2.000000
  0.444444  0.333333  0.500000      2.000000
 -0.444444  0.333333  0.500000      2.000000
 -0.333333  0.333333  0.500000      2.000000
 -0.222222  0.333333  0.500000      2.000000
 -0.111111  0.333333  0.500000      2.000000
  0.000000  0.444444  0.500000      2.000000
  0.111111  0.444444  0.500000      2.000000
  0.222222  0.444444  0.500000      2.000000
  0.333333  0.444444  0.500000      2.000000
  0.444444  0.444444  0.500000      2.000000
 -0.444444  0.444444  0.500000      2.000000
 -0.333333  0.444444  0.500000      2.000000
 -0.222222  0.444444  0.500000      2.000000
 -0.111111  0.444444  0.500000      2.000000
 
 Following cartesian coordinates:
            Coordinates               Weight
  0.000000  0.000000  0.000000      1.000000
  0.022530  0.013019  0.000000      2.000000
  0.045059  0.026038  0.000000      2.000000
  0.067589  0.039058  0.000000      2.000000
  0.090119  0.052077  0.000000      2.000000
  0.000010  0.026021  0.000000      2.000000
  0.022540  0.039040  0.000000      2.000000
  0.045069  0.052059  0.000000      2.000000
  0.067599  0.065079  0.000000      2.000000
  0.090129  0.078098  0.000000      2.000000
 -0.090109 -0.026056  0.000000      2.000000
 -0.067579 -0.013037  0.000000      2.000000
 -0.045049 -0.000018  0.000000      2.000000
 -0.022520  0.013002  0.000000      2.000000
  0.000020  0.052042  0.000000      2.000000
  0.022550  0.065061  0.000000      2.000000
  0.045080  0.078080  0.000000      2.000000
  0.067609  0.091099  0.000000      2.000000
  0.090139  0.104119  0.000000      2.000000
 -0.090098 -0.000035  0.000000      2.000000
 -0.067569  0.012984  0.000000      2.000000
 -0.045039  0.026003  0.000000      2.000000
 -0.022509  0.039023  0.000000      2.000000
  0.000030  0.078063  0.000000      2.000000
  0.022560  0.091082  0.000000      2.000000
  0.045090  0.104101  0.000000      2.000000
  0.067619  0.117120  0.000000      2.000000
  0.090149  0.130139  0.000000      2.000000
 -0.090088  0.025986  0.000000      2.000000
 -0.067559  0.039005  0.000000      2.000000
 -0.045029  0.052024  0.000000      2.000000
 -0.022499  0.065043  0.000000      2.000000
  0.000040  0.104084  0.000000      2.000000
  0.022570  0.117103  0.000000      2.000000
  0.045100  0.130122  0.000000      2.000000
  0.067630  0.143141  0.000000      2.000000
  0.090159  0.156160  0.000000      2.000000
 -0.090078  0.052007  0.000000      2.000000
 -0.067549  0.065026  0.000000      2.000000
 -0.045019  0.078045  0.000000      2.000000
 -0.022489  0.091064  0.000000      2.000000
  0.000000  0.000000  0.019432      2.000000
  0.022530  0.013019  0.019432      2.000000
  0.045059  0.026038  0.019432      2.000000
  0.067589  0.039058  0.019432      2.000000
  0.090119  0.052077  0.019432      2.000000
 -0.090119 -0.052077  0.019432      2.000000
 -0.067589 -0.039058  0.019432      2.000000
 -0.045059 -0.026038  0.019432      2.000000
 -0.022530 -0.013019  0.019432      2.000000
  0.000010  0.026021  0.019432      2.000000
  0.022540  0.039040  0.019432      2.000000
  0.045069  0.052059  0.019432      2.000000
  0.067599  0.065079  0.019432      2.000000
  0.090129  0.078098  0.019432      2.000000
 -0.090109 -0.026056  0.019432      2.000000
 -0.067579 -0.013037  0.019432      2.000000
 -0.045049 -0.000018  0.019432      2.000000
 -0.022520  0.013002  0.019432      2.000000
  0.000020  0.052042  0.019432      2.000000
  0.022550  0.065061  0.019432      2.000000
  0.045080  0.078080  0.019432      2.000000
  0.067609  0.091099  0.019432      2.000000
  0.090139  0.104119  0.019432      2.000000
 -0.090098 -0.000035  0.019432      2.000000
 -0.067569  0.012984  0.019432      2.000000
 -0.045039  0.026003  0.019432      2.000000
 -0.022509  0.039023  0.019432      2.000000
  0.000030  0.078063  0.019432      2.000000
  0.022560  0.091082  0.019432      2.000000
  0.045090  0.104101  0.019432      2.000000
  0.067619  0.117120  0.019432      2.000000
  0.090149  0.130139  0.019432      2.000000
 -0.090088  0.025986  0.019432      2.000000
 -0.067559  0.039005  0.019432      2.000000
 -0.045029  0.052024  0.019432      2.000000
 -0.022499  0.065043  0.019432      2.000000
  0.000040  0.104084  0.019432      2.000000
  0.022570  0.117103  0.019432      2.000000
  0.045100  0.130122  0.019432      2.000000
  0.067630  0.143141  0.019432      2.000000
  0.090159  0.156160  0.019432      2.000000
 -0.090078  0.052007  0.019432      2.000000
 -0.067549  0.065026  0.019432      2.000000
 -0.045019  0.078045  0.019432      2.000000
 -0.022489  0.091064  0.019432      2.000000
 -0.000040 -0.104084  0.019432      2.000000
  0.022489 -0.091064  0.019432      2.000000
  0.045019 -0.078045  0.019432      2.000000
  0.067549 -0.065026  0.019432      2.000000
  0.090078 -0.052007  0.019432      2.000000
 -0.090159 -0.156160  0.019432      2.000000
 -0.067630 -0.143141  0.019432      2.000000
 -0.045100 -0.130122  0.019432      2.000000
 -0.022570 -0.117103  0.019432      2.000000
 -0.000030 -0.078063  0.019432      2.000000
  0.022499 -0.065043  0.019432      2.000000
  0.045029 -0.052024  0.019432      2.000000
  0.067559 -0.039005  0.019432      2.000000
  0.090088 -0.025986  0.019432      2.000000
 -0.090149 -0.130139  0.019432      2.000000
 -0.067619 -0.117120  0.019432      2.000000
 -0.045090 -0.104101  0.019432      2.000000
 -0.022560 -0.091082  0.019432      2.000000
 -0.000020 -0.052042  0.019432      2.000000
  0.022509 -0.039023  0.019432      2.000000
  0.045039 -0.026003  0.019432      2.000000
  0.067569 -0.012984  0.019432      2.000000
  0.090098  0.000035  0.019432      2.000000
 -0.090139 -0.104119  0.019432      2.000000
 -0.067609 -0.091099  0.019432      2.000000
 -0.045080 -0.078080  0.019432      2.000000
 -0.022550 -0.065061  0.019432      2.000000
 -0.000010 -0.026021  0.019432      2.000000
  0.022520 -0.013002  0.019432      2.000000
  0.045049  0.000018  0.019432      2.000000
  0.067579  0.013037  0.019432      2.000000
  0.090109  0.026056  0.019432      2.000000
 -0.090129 -0.078098  0.019432      2.000000
 -0.067599 -0.065079  0.019432      2.000000
 -0.045069 -0.052059  0.019432      2.000000
 -0.022540 -0.039040  0.019432      2.000000
  0.000000  0.000000  0.038863      1.000000
  0.022530  0.013019  0.038863      2.000000
  0.045059  0.026038  0.038863      2.000000
  0.067589  0.039058  0.038863      2.000000
  0.090119  0.052077  0.038863      2.000000
  0.000010  0.026021  0.038863      2.000000
  0.022540  0.039040  0.038863      2.000000
  0.045069  0.052059  0.038863      2.000000
  0.067599  0.065079  0.038863      2.000000
  0.090129  0.078098  0.038863      2.000000
 -0.090109 -0.026056  0.038863      2.000000
 -0.067579 -0.013037  0.038863      2.000000
 -0.045049 -0.000018  0.038863      2.000000
 -0.022520  0.013002  0.038863      2.000000
  0.000020  0.052042  0.038863      2.000000
  0.022550  0.065061  0.038863      2.000000
  0.045080  0.078080  0.038863      2.000000
  0.067609  0.091099  0.038863      2.000000
  0.090139  0.104119  0.038863      2.000000
 -0.090098 -0.000035  0.038863      2.000000
 -0.067569  0.012984  0.038863      2.000000
 -0.045039  0.026003  0.038863      2.000000
 -0.022509  0.039023  0.038863      2.000000
  0.000030  0.078063  0.038863      2.000000
  0.022560  0.091082  0.038863      2.000000
  0.045090  0.104101  0.038863      2.000000
  0.067619  0.117120  0.038863      2.000000
  0.090149  0.130139  0.038863      2.000000
 -0.090088  0.025986  0.038863      2.000000
 -0.067559  0.039005  0.038863      2.000000
 -0.045029  0.052024  0.038863      2.000000
 -0.022499  0.065043  0.038863      2.000000
  0.000040  0.104084  0.038863      2.000000
  0.022570  0.117103  0.038863      2.000000
  0.045100  0.130122  0.038863      2.000000
  0.067630  0.143141  0.038863      2.000000
  0.090159  0.156160  0.038863      2.000000
 -0.090078  0.052007  0.038863      2.000000
 -0.067549  0.065026  0.038863      2.000000
 -0.045019  0.078045  0.038863      2.000000
 -0.022489  0.091064  0.038863      2.000000
 
 TETIRR: Found    970 inequivalent tetrahedra from     1944


--------------------------------------------------------------------------------------------------------




 Dimension of arrays:
   k-points           NKPTS =    163   k-points in BZ     NKDIM =    163   number of bands    NBANDS=     84
   number of dos      NEDOS =    301   number of ions     NIONS =     32
   non local maximal  LDIM  =      4   non local SUM 2l+1 LMDIM =      8
   total plane-waves  NPLWV = 172800
   max r-space proj   IRMAX =      1   max aug-charges    IRDMAX=   7723
   dimension x,y,z NGX =    40 NGY =   40 NGZ =  108
   dimension x,y,z NGXF=    80 NGYF=   80 NGZF=  216
   support grid    NGXF=    80 NGYF=   80 NGZF=  216
   ions per type =              32
 NGX,Y,Z   is equivalent  to a cutoff of  13.48, 13.48, 13.96 a.u.
 NGXF,Y,Z  is equivalent  to a cutoff of  26.96, 26.96, 27.91 a.u.


 I would recommend the setting:
   dimension x,y,z NGX =    39 NGY =   39 NGZ =  103
 SYSTEM =  graphite                                
 POSCAR =  C                                       

 Startparameter for this run:
   NWRITE =      2    write-flag & timer
   PREC   = accura    normal or accurate (medium, high low for compatibility)
   ISTART =      0    job   : 0-new  1-cont  2-samecut
   ICHARG =      2    charge: 1-file 2-atom 10-const
   ISPIN  =      1    spin polarized calculation?
   LNONCOLLINEAR =      F non collinear calculations
   LSORBIT =      F    spin-orbit coupling
   INIWAV =      1    electr: 0-lowe 1-rand  2-diag
   LASPH  =      F    aspherical Exc in radial PAW
   METAGGA=      F    non-selfconsistent MetaGGA calc.

 Electronic Relaxation 1
   ENCUT  =  600.0 eV  44.10 Ry    6.64 a.u.   9.85  9.85 25.70*2*pi/ulx,y,z
   ENINI  =  600.0     initial cutoff
   ENAUG  =  644.9 eV  augmentation charge cutoff
   NELM   =    200;   NELMIN=  2; NELMDL=  0     # of ELM steps 
   EDIFF  = 0.1E-05   stopping-criterion for ELM
   LREAL  =      F    real-space projection
   NLSPLINE    = F    spline interpolate recip. space projectors
   LCOMPAT=      F    compatible to vasp.4.4
   GGA_COMPAT  = T    GGA compatible to vasp.4.4-vasp.4.6
   LMAXPAW     = -100 max onsite density
   LMAXMIX     =    2 max onsite mixed and CHGCAR
   VOSKOWN=      0    Vosko Wilk Nusair interpolation
   ROPT   =    0.00000
 Ionic relaxation
   EDIFFG = 0.1E-02   stopping-criterion for IOM
   NSW    =      0    number of steps for IOM
   NBLOCK =      1;   KBLOCK =      1    inner block; outer block 
   IBRION =     -1    ionic relax: 0-MD 1-quasi-New 2-CG
   NFREE  =      0    steps in history (QN), initial steepest desc. (CG)
   ISIF   =      2    stress and relaxation
   IWAVPR =     10    prediction:  0-non 1-charg 2-wave 3-comb
   ISYM   =      2    0-nonsym 1-usesym 2-fastsym
   LCORR  =      T    Harris-Foulkes like correction to forces

   POTIM  = 0.5000    time-step for ionic-motion
   TEIN   =    0.0    initial temperature
   TEBEG  =    0.0;   TEEND  =   0.0 temperature during run
   SMASS  =  -3.00    Nose mass-parameter (am)
   estimated Nose-frequenzy (Omega)   =  0.10E-29 period in steps =****** mass=  -0.556E-27a.u.
   SCALEE = 1.0000    scale energy and forces
   NPACO  =    256;   APACO  = 16.0  distance and # of slots for P.C.
   PSTRESS=    0.0 pullay stress

  Mass of Ions in am
   POMASS =  12.01
  Ionic Valenz
   ZVAL   =   4.00
  Atomic Wigner-Seitz radii
   RWIGS  =  -1.00
  virtual crystal weights 
   VCA    =   1.00
   NELECT =     128.0000    total number of electrons
   NUPDOWN=      -1.0000    fix difference up-down

 DOS related values:
   EMIN   =  10.00;   EMAX   =-10.00  energy-range for DOS
   EFERMI =   0.00
   ISMEAR =    -5;   SIGMA  =   0.20  broadening in eV -4-tet -1-fermi 0-gaus

 Electronic relaxation 2 (details)
   IALGO  =     38    algorithm
   LDIAG  =      T    sub-space diagonalisation (order eigenvalues)
   LSUBROT=      F    optimize rotation matrix (better conditioning)
   TURBO    =      0    0=normal 1=particle mesh
   IRESTART =      0    0=no restart 2=restart with 2 vectors
   NREBOOT  =      0    no. of reboots
   NMIN     =      0    reboot dimension
   EREF     =   0.00    reference energy to select bands
   IMIX   =      4    mixing-type and parameters
     AMIX     =   0.40;   BMIX     =  1.00
     AMIX_MAG =   1.60;   BMIX_MAG =  1.00
     AMIN     =   0.10
     WC   =   100.;   INIMIX=   1;  MIXPRE=   1;  MAXMIX= -45

 Intra band minimization:
   WEIMIN = 0.0000     energy-eigenvalue tresh-hold
   EBREAK =  0.30E-08  absolut break condition
   DEPER  =   0.30     relativ break condition  

   TIME   =   0.40     timestep for ELM

  volume/ion in A,a.u.               =       8.47        57.15
  Fermi-wavevector in a.u.,A,eV,Ry     =   1.274940  2.409287 22.115881  1.625471
  Thomas-Fermi vector in A             =   2.407680
 
 Write flags
   LWAVE  =      F    write WAVECAR
   LCHARG =      F    write CHGCAR
   LVTOT  =      F    write LOCPOT, total local potential
   LVHAR  =      F    write LOCPOT, Hartree potential only
   LELF   =      F    write electronic localiz. function (ELF)
   LORBIT =      0    0 simple, 1 ext, 2 COOP (PROOUT)


 Dipole corrections
   LMONO  =      F    monopole corrections only (constant potential shift)
   LDIPOL =      F    correct potential (dipole corrections)
   IDIPOL =      0    1-x, 2-y, 3-z, 4-all directions 
   EPSILON=  1.0000000 bulk dielectric constant

 Exchange correlation treatment:
   GGA     =    PE    GGA type
   LEXCH   =     8    internal setting for exchange type
   VOSKOWN=      0    Vosko Wilk Nusair interpolation
   LHFCALC =     F    Hartree Fock is set to
   LHFONE  =     F    Hartree Fock one center treatment
   AEXX    =    0.0000 exact exchange contribution

 Linear response parameters
   LEPSILON=     F    determine dielectric tensor
   LRPA    =     F    only Hartree local field effects (RPA)
   LNABLA  =     F    use nabla operator in PAW spheres
   LVEL    =     F    velocity operator in full k-point grid
   LINTERFAST=   F  fast interpolation
   KINTER  =     0    interpolate to denser k-point grid
   CSHIFT  =0.1000    complex shift for real part using Kramers Kronig
   OMEGAMAX=  -1.0    maximum frequency
   DEG_THRESHOLD= 0.2000000E-02 threshold for treating states as degnerate
   RTIME   =    0.100 relaxation time in fs

 Orbital magnetization related:
   ORBITALMAG=     F  switch on orbital magnetization
   LCHIMAG   =     F  perturbation theory with respect to B field
   DQ        =  0.001000  dq finite difference perturbation B field



--------------------------------------------------------------------------------------------------------


 Static calculation
 charge density and potential will be updated during run
 non-spin polarized calculation
 Variant of blocked Davidson
 Davidson routine will perform the subspace rotation
 perform sub-space diagonalisation
    after iterative eigenvector-optimisation
 modified Broyden-mixing scheme, WC =      100.0
 initial mixing is a Kerker type mixing with AMIX =  0.4000 and BMIX =      1.0000
 Hartree-type preconditioning will be used
 using additional bands           20
 reciprocal scheme for non local part
 calculate Harris-corrections to forces 
   (improved forces if not selfconsistent)
 use gradient corrections 
 use of overlap-Matrix (Vanderbilt PP)
 Fermi weights with tetrahedron method with Bloechl corrections


--------------------------------------------------------------------------------------------------------


  energy-cutoff  :      600.00
  volume of cell :      271.00
      direct lattice vectors                 reciprocal lattice vectors
     4.932874498 -0.001919286  0.000000000     0.202767147  0.117172881  0.000000000
    -2.468099399  4.271034986  0.000000000     0.000091118  0.234187941  0.000000000
     0.000000000  0.000000000 12.865596413     0.000000000  0.000000000  0.077726673

  length of vectors
     4.932874871  4.932874871 12.865596413     0.234187958  0.234187958  0.077726673


 
 k-points in units of 2pi/SCALE and weight: B4C B11C-CBC                            
   0.00000000  0.00000000  0.00000000       0.003
   0.02252968  0.01301921  0.00000000       0.006
   0.04505937  0.02603842  0.00000000       0.006
   0.06758905  0.03905763  0.00000000       0.006
   0.09011873  0.05207684  0.00000000       0.006
   0.00001012  0.02602088  0.00000000       0.006
   0.02253981  0.03904009  0.00000000       0.006
   0.04506949  0.05205930  0.00000000       0.006
   0.06759917  0.06507851  0.00000000       0.006
   0.09012886  0.07809772  0.00000000       0.006
  -0.09010861 -0.02605595  0.00000000       0.006
  -0.06757892 -0.01303674  0.00000000       0.006
  -0.04504924 -0.00001754  0.00000000       0.006
  -0.02251956  0.01300167  0.00000000       0.006
   0.00002025  0.05204176  0.00000000       0.006
   0.02254993  0.06506097  0.00000000       0.006
   0.04507961  0.07808018  0.00000000       0.006
   0.06760930  0.09109939  0.00000000       0.006
   0.09013898  0.10411860  0.00000000       0.006
  -0.09009848 -0.00003507  0.00000000       0.006
  -0.06756880  0.01298414  0.00000000       0.006
  -0.04503912  0.02600335  0.00000000       0.006
  -0.02250943  0.03902256  0.00000000       0.006
   0.00003037  0.07806265  0.00000000       0.006
   0.02256006  0.09108186  0.00000000       0.006
   0.04508974  0.10410106  0.00000000       0.006
   0.06761942  0.11712027  0.00000000       0.006
   0.09014910  0.13013948  0.00000000       0.006
  -0.09008836  0.02598581  0.00000000       0.006
  -0.06755868  0.03900502  0.00000000       0.006
  -0.04502899  0.05202423  0.00000000       0.006
  -0.02249931  0.06504344  0.00000000       0.006
   0.00004050  0.10408353  0.00000000       0.006
   0.02257018  0.11710274  0.00000000       0.006
   0.04509986  0.13012195  0.00000000       0.006
   0.06762955  0.14314116  0.00000000       0.006
   0.09015923  0.15616037  0.00000000       0.006
  -0.09007824  0.05200669  0.00000000       0.006
  -0.06754855  0.06502590  0.00000000       0.006
  -0.04501887  0.07804511  0.00000000       0.006
  -0.02248919  0.09106432  0.00000000       0.006
   0.00000000  0.00000000  0.01943167       0.006
   0.02252968  0.01301921  0.01943167       0.006
   0.04505937  0.02603842  0.01943167       0.006
   0.06758905  0.03905763  0.01943167       0.006
   0.09011873  0.05207684  0.01943167       0.006
  -0.09011873 -0.05207684  0.01943167       0.006
  -0.06758905 -0.03905763  0.01943167       0.006
  -0.04505937 -0.02603842  0.01943167       0.006
  -0.02252968 -0.01301921  0.01943167       0.006
   0.00001012  0.02602088  0.01943167       0.006
   0.02253981  0.03904009  0.01943167       0.006
   0.04506949  0.05205930  0.01943167       0.006
   0.06759917  0.06507851  0.01943167       0.006
   0.09012886  0.07809772  0.01943167       0.006
  -0.09010861 -0.02605595  0.01943167       0.006
  -0.06757892 -0.01303674  0.01943167       0.006
  -0.04504924 -0.00001754  0.01943167       0.006
  -0.02251956  0.01300167  0.01943167       0.006
   0.00002025  0.05204176  0.01943167       0.006
   0.02254993  0.06506097  0.01943167       0.006
   0.04507961  0.07808018  0.01943167       0.006
   0.06760930  0.09109939  0.01943167       0.006
   0.09013898  0.10411860  0.01943167       0.006
  -0.09009848 -0.00003507  0.01943167       0.006
  -0.06756880  0.01298414  0.01943167       0.006
  -0.04503912  0.02600335  0.01943167       0.006
  -0.02250943  0.03902256  0.01943167       0.006
   0.00003037  0.07806265  0.01943167       0.006
   0.02256006  0.09108186  0.01943167       0.006
   0.04508974  0.10410106  0.01943167       0.006
   0.06761942  0.11712027  0.01943167       0.006
   0.09014910  0.13013948  0.01943167       0.006
  -0.09008836  0.02598581  0.01943167       0.006
  -0.06755868  0.03900502  0.01943167       0.006
  -0.04502899  0.05202423  0.01943167       0.006
  -0.02249931  0.06504344  0.01943167       0.006
   0.00004050  0.10408353  0.01943167       0.006
   0.02257018  0.11710274  0.01943167       0.006
   0.04509986  0.13012195  0.01943167       0.006
   0.06762955  0.14314116  0.01943167       0.006
   0.09015923  0.15616037  0.01943167       0.006
  -0.09007824  0.05200669  0.01943167       0.006
  -0.06754855  0.06502590  0.01943167       0.006
  -0.04501887  0.07804511  0.01943167       0.006
  -0.02248919  0.09106432  0.01943167       0.006
  -0.00004050 -0.10408353  0.01943167       0.006
   0.02248919 -0.09106432  0.01943167       0.006
   0.04501887 -0.07804511  0.01943167       0.006
   0.06754855 -0.06502590  0.01943167       0.006
   0.09007824 -0.05200669  0.01943167       0.006
  -0.09015923 -0.15616037  0.01943167       0.006
  -0.06762955 -0.14314116  0.01943167       0.006
  -0.04509986 -0.13012195  0.01943167       0.006
  -0.02257018 -0.11710274  0.01943167       0.006
  -0.00003037 -0.07806265  0.01943167       0.006
   0.02249931 -0.06504344  0.01943167       0.006
   0.04502899 -0.05202423  0.01943167       0.006
   0.06755868 -0.03900502  0.01943167       0.006
   0.09008836 -0.02598581  0.01943167       0.006
  -0.09014910 -0.13013948  0.01943167       0.006
  -0.06761942 -0.11712027  0.01943167       0.006
  -0.04508974 -0.10410106  0.01943167       0.006
  -0.02256006 -0.09108186  0.01943167       0.006
  -0.00002025 -0.05204176  0.01943167       0.006
   0.02250943 -0.03902256  0.01943167       0.006
   0.04503912 -0.02600335  0.01943167       0.006
   0.06756880 -0.01298414  0.01943167       0.006
   0.09009848  0.00003507  0.01943167       0.006
  -0.09013898 -0.10411860  0.01943167       0.006
  -0.06760930 -0.09109939  0.01943167       0.006
  -0.04507961 -0.07808018  0.01943167       0.006
  -0.02254993 -0.06506097  0.01943167       0.006
  -0.00001012 -0.02602088  0.01943167       0.006
   0.02251956 -0.01300167  0.01943167       0.006
   0.04504924  0.00001754  0.01943167       0.006
   0.06757892  0.01303674  0.01943167       0.006
   0.09010861  0.02605595  0.01943167       0.006
  -0.09012886 -0.07809772  0.01943167       0.006
  -0.06759917 -0.06507851  0.01943167       0.006
  -0.04506949 -0.05205930  0.01943167       0.006
  -0.02253981 -0.03904009  0.01943167       0.006
   0.00000000  0.00000000  0.03886334       0.003
   0.02252968  0.01301921  0.03886334       0.006
   0.04505937  0.02603842  0.03886334       0.006
   0.06758905  0.03905763  0.03886334       0.006
   0.09011873  0.05207684  0.03886334       0.006
   0.00001012  0.02602088  0.03886334       0.006
   0.02253981  0.03904009  0.03886334       0.006
   0.04506949  0.05205930  0.03886334       0.006
   0.06759917  0.06507851  0.03886334       0.006
   0.09012886  0.07809772  0.03886334       0.006
  -0.09010861 -0.02605595  0.03886334       0.006
  -0.06757892 -0.01303674  0.03886334       0.006
  -0.04504924 -0.00001754  0.03886334       0.006
  -0.02251956  0.01300167  0.03886334       0.006
   0.00002025  0.05204176  0.03886334       0.006
   0.02254993  0.06506097  0.03886334       0.006
   0.04507961  0.07808018  0.03886334       0.006
   0.06760930  0.09109939  0.03886334       0.006
   0.09013898  0.10411860  0.03886334       0.006
  -0.09009848 -0.00003507  0.03886334       0.006
  -0.06756880  0.01298414  0.03886334       0.006
  -0.04503912  0.02600335  0.03886334       0.006
  -0.02250943  0.03902256  0.03886334       0.006
   0.00003037  0.07806265  0.03886334       0.006
   0.02256006  0.09108186  0.03886334       0.006
   0.04508974  0.10410106  0.03886334       0.006
   0.06761942  0.11712027  0.03886334       0.006
   0.09014910  0.13013948  0.03886334       0.006
  -0.09008836  0.02598581  0.03886334       0.006
  -0.06755868  0.03900502  0.03886334       0.006
  -0.04502899  0.05202423  0.03886334       0.006
  -0.02249931  0.06504344  0.03886334       0.006
   0.00004050  0.10408353  0.03886334       0.006
   0.02257018  0.11710274  0.03886334       0.006
   0.04509986  0.13012195  0.03886334       0.006
   0.06762955  0.14314116  0.03886334       0.006
   0.09015923  0.15616037  0.03886334       0.006
  -0.09007824  0.05200669  0.03886334       0.006
  -0.06754855  0.06502590  0.03886334       0.006
  -0.04501887  0.07804511  0.03886334       0.006
  -0.02248919  0.09106432  0.03886334       0.006
 
 k-points in reciprocal lattice and weights: B4C B11C-CBC                            
   0.00000000  0.00000000  0.00000000       0.003
   0.11111111  0.00000000  0.00000000       0.006
   0.22222222  0.00000000  0.00000000       0.006
   0.33333333  0.00000000  0.00000000       0.006
   0.44444444  0.00000000  0.00000000       0.006
   0.00000000  0.11111111  0.00000000       0.006
   0.11111111  0.11111111  0.00000000       0.006
   0.22222222  0.11111111  0.00000000       0.006
   0.33333333  0.11111111  0.00000000       0.006
   0.44444444  0.11111111  0.00000000       0.006
  -0.44444444  0.11111111  0.00000000       0.006
  -0.33333333  0.11111111  0.00000000       0.006
  -0.22222222  0.11111111  0.00000000       0.006
  -0.11111111  0.11111111  0.00000000       0.006
   0.00000000  0.22222222  0.00000000       0.006
   0.11111111  0.22222222  0.00000000       0.006
   0.22222222  0.22222222  0.00000000       0.006
   0.33333333  0.22222222  0.00000000       0.006
   0.44444444  0.22222222  0.00000000       0.006
  -0.44444444  0.22222222  0.00000000       0.006
  -0.33333333  0.22222222  0.00000000       0.006
  -0.22222222  0.22222222  0.00000000       0.006
  -0.11111111  0.22222222  0.00000000       0.006
   0.00000000  0.33333333  0.00000000       0.006
   0.11111111  0.33333333  0.00000000       0.006
   0.22222222  0.33333333  0.00000000       0.006
   0.33333333  0.33333333  0.00000000       0.006
   0.44444444  0.33333333  0.00000000       0.006
  -0.44444444  0.33333333  0.00000000       0.006
  -0.33333333  0.33333333  0.00000000       0.006
  -0.22222222  0.33333333  0.00000000       0.006
  -0.11111111  0.33333333  0.00000000       0.006
   0.00000000  0.44444444  0.00000000       0.006
   0.11111111  0.44444444  0.00000000       0.006
   0.22222222  0.44444444  0.00000000       0.006
   0.33333333  0.44444444  0.00000000       0.006
   0.44444444  0.44444444  0.00000000       0.006
  -0.44444444  0.44444444  0.00000000       0.006
  -0.33333333  0.44444444  0.00000000       0.006
  -0.22222222  0.44444444  0.00000000       0.006
  -0.11111111  0.44444444  0.00000000       0.006
   0.00000000  0.00000000  0.25000000       0.006
   0.11111111  0.00000000  0.25000000       0.006
   0.22222222  0.00000000  0.25000000       0.006
   0.33333333  0.00000000  0.25000000       0.006
   0.44444444  0.00000000  0.25000000       0.006
  -0.44444444 -0.00000000  0.25000000       0.006
  -0.33333333 -0.00000000  0.25000000       0.006
  -0.22222222 -0.00000000  0.25000000       0.006
  -0.11111111 -0.00000000  0.25000000       0.006
   0.00000000  0.11111111  0.25000000       0.006
   0.11111111  0.11111111  0.25000000       0.006
   0.22222222  0.11111111  0.25000000       0.006
   0.33333333  0.11111111  0.25000000       0.006
   0.44444444  0.11111111  0.25000000       0.006
  -0.44444444  0.11111111  0.25000000       0.006
  -0.33333333  0.11111111  0.25000000       0.006
  -0.22222222  0.11111111  0.25000000       0.006
  -0.11111111  0.11111111  0.25000000       0.006
   0.00000000  0.22222222  0.25000000       0.006
   0.11111111  0.22222222  0.25000000       0.006
   0.22222222  0.22222222  0.25000000       0.006
   0.33333333  0.22222222  0.25000000       0.006
   0.44444444  0.22222222  0.25000000       0.006
  -0.44444444  0.22222222  0.25000000       0.006
  -0.33333333  0.22222222  0.25000000       0.006
  -0.22222222  0.22222222  0.25000000       0.006
  -0.11111111  0.22222222  0.25000000       0.006
   0.00000000  0.33333333  0.25000000       0.006
   0.11111111  0.33333333  0.25000000       0.006
   0.22222222  0.33333333  0.25000000       0.006
   0.33333333  0.33333333  0.25000000       0.006
   0.44444444  0.33333333  0.25000000       0.006
  -0.44444444  0.33333333  0.25000000       0.006
  -0.33333333  0.33333333  0.25000000       0.006
  -0.22222222  0.33333333  0.25000000       0.006
  -0.11111111  0.33333333  0.25000000       0.006
   0.00000000  0.44444444  0.25000000       0.006
   0.11111111  0.44444444  0.25000000       0.006
   0.22222222  0.44444444  0.25000000       0.006
   0.33333333  0.44444444  0.25000000       0.006
   0.44444444  0.44444444  0.25000000       0.006
  -0.44444444  0.44444444  0.25000000       0.006
  -0.33333333  0.44444444  0.25000000       0.006
  -0.22222222  0.44444444  0.25000000       0.006
  -0.11111111  0.44444444  0.25000000       0.006
   0.00000000 -0.44444444  0.25000000       0.006
   0.11111111 -0.44444444  0.25000000       0.006
   0.22222222 -0.44444444  0.25000000       0.006
   0.33333333 -0.44444444  0.25000000       0.006
   0.44444444 -0.44444444  0.25000000       0.006
  -0.44444444 -0.44444444  0.25000000       0.006
  -0.33333333 -0.44444444  0.25000000       0.006
  -0.22222222 -0.44444444  0.25000000       0.006
  -0.11111111 -0.44444444  0.25000000       0.006
  -0.00000000 -0.33333333  0.25000000       0.006
   0.11111111 -0.33333333  0.25000000       0.006
   0.22222222 -0.33333333  0.25000000       0.006
   0.33333333 -0.33333333  0.25000000       0.006
   0.44444444 -0.33333333  0.25000000       0.006
  -0.44444444 -0.33333333  0.25000000       0.006
  -0.33333333 -0.33333333  0.25000000       0.006
  -0.22222222 -0.33333333  0.25000000       0.006
  -0.11111111 -0.33333333  0.25000000       0.006
   0.00000000 -0.22222222  0.25000000       0.006
   0.11111111 -0.22222222  0.25000000       0.006
   0.22222222 -0.22222222  0.25000000       0.006
   0.33333333 -0.22222222  0.25000000       0.006
   0.44444444 -0.22222222  0.25000000       0.006
  -0.44444444 -0.22222222  0.25000000       0.006
  -0.33333333 -0.22222222  0.25000000       0.006
  -0.22222222 -0.22222222  0.25000000       0.006
  -0.11111111 -0.22222222  0.25000000       0.006
   0.00000000 -0.11111111  0.25000000       0.006
   0.11111111 -0.11111111  0.25000000       0.006
   0.22222222 -0.11111111  0.25000000       0.006
   0.33333333 -0.11111111  0.25000000       0.006
   0.44444444 -0.11111111  0.25000000       0.006
  -0.44444444 -0.11111111  0.25000000       0.006
  -0.33333333 -0.11111111  0.25000000       0.006
  -0.22222222 -0.11111111  0.25000000       0.006
  -0.11111111 -0.11111111  0.25000000       0.006
   0.00000000  0.00000000  0.50000000       0.003
   0.11111111  0.00000000  0.50000000       0.006
   0.22222222  0.00000000  0.50000000       0.006
   0.33333333  0.00000000  0.50000000       0.006
   0.44444444  0.00000000  0.50000000       0.006
   0.00000000  0.11111111  0.50000000       0.006
   0.11111111  0.11111111  0.50000000       0.006
   0.22222222  0.11111111  0.50000000       0.006
   0.33333333  0.11111111  0.50000000       0.006
   0.44444444  0.11111111  0.50000000       0.006
  -0.44444444  0.11111111  0.50000000       0.006
  -0.33333333  0.11111111  0.50000000       0.006
  -0.22222222  0.11111111  0.50000000       0.006
  -0.11111111  0.11111111  0.50000000       0.006
   0.00000000  0.22222222  0.50000000       0.006
   0.11111111  0.22222222  0.50000000       0.006
   0.22222222  0.22222222  0.50000000       0.006
   0.33333333  0.22222222  0.50000000       0.006
   0.44444444  0.22222222  0.50000000       0.006
  -0.44444444  0.22222222  0.50000000       0.006
  -0.33333333  0.22222222  0.50000000       0.006
  -0.22222222  0.22222222  0.50000000       0.006
  -0.11111111  0.22222222  0.50000000       0.006
   0.00000000  0.33333333  0.50000000       0.006
   0.11111111  0.33333333  0.50000000       0.006
   0.22222222  0.33333333  0.50000000       0.006
   0.33333333  0.33333333  0.50000000       0.006
   0.44444444  0.33333333  0.50000000       0.006
  -0.44444444  0.33333333  0.50000000       0.006
  -0.33333333  0.33333333  0.50000000       0.006
  -0.22222222  0.33333333  0.50000000       0.006
  -0.11111111  0.33333333  0.50000000       0.006
   0.00000000  0.44444444  0.50000000       0.006
   0.11111111  0.44444444  0.50000000       0.006
   0.22222222  0.44444444  0.50000000       0.006
   0.33333333  0.44444444  0.50000000       0.006
   0.44444444  0.44444444  0.50000000       0.006
  -0.44444444  0.44444444  0.50000000       0.006
  -0.33333333  0.44444444  0.50000000       0.006
  -0.22222222  0.44444444  0.50000000       0.006
  -0.11111111  0.44444444  0.50000000       0.006
 
 position of ions in fractional coordinates (direct lattice) 
   0.50039905  0.00032672  0.12572575
   0.99967330  0.00032672  0.12500000
   0.49967330  0.50032672  0.12500000
   0.99967330  0.50032672  0.12500000
   0.49967330  0.00032672  0.62500000
   0.99967330  0.00032672  0.62500000
   0.49967330  0.50032672  0.62500000
   0.99967330  0.50032672  0.62500000
   0.00032672  0.49967330  0.37500000
   0.50032672  0.49967330  0.37500000
   0.00032672  0.99967330  0.37500000
   0.50032672  0.99967330  0.37500000
   0.00032672  0.49967330  0.87500000
   0.50032672  0.49967330  0.87500000
   0.00032672  0.99967330  0.87500000
   0.50032672  0.99967330  0.87500000
   0.16629246  0.33370753  0.12500000
   0.66629246  0.33370753  0.12500000
   0.16629246  0.83370753  0.12500000
   0.66629246  0.83370753  0.12500000
   0.16629246  0.33370753  0.62500000
   0.66629246  0.33370753  0.62500000
   0.16629246  0.83370753  0.62500000
   0.66629246  0.83370753  0.62500000
   0.33370753  0.16629246  0.37500000
   0.83370753  0.16629246  0.37500000
   0.33370753  0.66629246  0.37500000
   0.83370753  0.66629246  0.37500000
   0.33370753  0.16629246  0.87500000
   0.83370753  0.16629246  0.87500000
   0.33370753  0.66629246  0.87500000
   0.83370753  0.66629246  0.87500000
 
 position of ions in cartesian coordinates  (Angst):
   2.46759936  0.00043502  1.61753675
   4.93045658 -0.00052323  1.60819955
   1.22996963  2.13595390  1.60819955
   3.69640688  2.13499426  1.60819955
   2.46401933  0.00043641  8.04099776
   4.93045658 -0.00052323  8.04099776
   1.22996963  2.13595390  8.04099776
   3.69640688  2.13499426  8.04099776
  -1.23163172  2.13412154  4.82459865
   1.23480553  2.13316189  4.82459865
  -2.46568142  4.26963903  4.82459865
   0.00075583  4.26867939  4.82459865
  -1.23163172  2.13412154 11.25739686
   1.23480553  2.13316189 11.25739686
  -2.46568142  4.26963903 11.25739686
   0.00075583  4.26867939 11.25739686
  -0.00332350  1.42495737  1.60819955
   2.46311374  1.42399773  1.60819955
  -1.23737320  3.56047486  1.60819955
   1.22906405  3.55951522  1.60819955
  -0.00332350  1.42495737  8.04099776
   2.46311374  1.42399773  8.04099776
  -1.23737320  3.56047486  8.04099776
   1.22906405  3.55951522  8.04099776
   1.23571103  0.70960044  4.82459865
   3.70214828  0.70864080  4.82459865
   0.00166133  2.84511794  4.82459865
   2.46809858  2.84415829  4.82459865
   1.23571103  0.70960044 11.25739686
   3.70214828  0.70864080 11.25739686
   0.00166133  2.84511794 11.25739686
   2.46809858  2.84415829 11.25739686
 


--------------------------------------------------------------------------------------------------------


 k-point  1 :   0.0000 0.0000 0.0000  plane waves:    9003
 k-point  2 :   0.1111 0.0000 0.0000  plane waves:    9029
 k-point  3 :   0.2222 0.0000 0.0000  plane waves:    9037
 k-point  4 :   0.3333 0.0000 0.0000  plane waves:    9067
 k-point  5 :   0.4444 0.0000 0.0000  plane waves:    9063
 k-point  6 :   0.0000 0.1111 0.0000  plane waves:    9029
 k-point  7 :   0.1111 0.1111 0.0000  plane waves:    9004
 k-point  8 :   0.2222 0.1111 0.0000  plane waves:    9062
 k-point  9 :   0.3333 0.1111 0.0000  plane waves:    9038
 k-point 10 :   0.4444 0.1111 0.0000  plane waves:    9072
 k-point 11 :  -0.4444 0.1111 0.0000  plane waves:    9042
 k-point 12 :  -0.3333 0.1111 0.0000  plane waves:    9054
 k-point 13 :  -0.2222 0.1111 0.0000  plane waves:    9006
 k-point 14 :  -0.1111 0.1111 0.0000  plane waves:    9035
 k-point 15 :   0.0000 0.2222 0.0000  plane waves:    9037
 k-point 16 :   0.1111 0.2222 0.0000  plane waves:    9062
 k-point 17 :   0.2222 0.2222 0.0000  plane waves:    9058
 k-point 18 :   0.3333 0.2222 0.0000  plane waves:    9032
 k-point 19 :   0.4444 0.2222 0.0000  plane waves:    9034
 k-point 20 :  -0.4444 0.2222 0.0000  plane waves:    9060
 k-point 21 :  -0.3333 0.2222 0.0000  plane waves:    9058
 k-point 22 :  -0.2222 0.2222 0.0000  plane waves:    9039
 k-point 23 :  -0.1111 0.2222 0.0000  plane waves:    9006
 k-point 24 :   0.0000 0.3333 0.0000  plane waves:    9067
 k-point 25 :   0.1111 0.3333 0.0000  plane waves:    9038
 k-point 26 :   0.2222 0.3333 0.0000  plane waves:    9032
 k-point 27 :   0.3333 0.3333 0.0000  plane waves:    9030
 k-point 28 :   0.4444 0.3333 0.0000  plane waves:    9038
 k-point 29 :  -0.4444 0.3333 0.0000  plane waves:    9048
 k-point 30 :  -0.3333 0.3333 0.0000  plane waves:    9069
 k-point 31 :  -0.2222 0.3333 0.0000  plane waves:    9058
 k-point 32 :  -0.1111 0.3333 0.0000  plane waves:    9054
 k-point 33 :   0.0000 0.4444 0.0000  plane waves:    9063
 k-point 34 :   0.1111 0.4444 0.0000  plane waves:    9072
 k-point 35 :   0.2222 0.4444 0.0000  plane waves:    9034
 k-point 36 :   0.3333 0.4444 0.0000  plane waves:    9038
 k-point 37 :   0.4444 0.4444 0.0000  plane waves:    9070
 k-point 38 :  -0.4444 0.4444 0.0000  plane waves:    9069
 k-point 39 :  -0.3333 0.4444 0.0000  plane waves:    9048
 k-point 40 :  -0.2222 0.4444 0.0000  plane waves:    9060
 k-point 41 :  -0.1111 0.4444 0.0000  plane waves:    9042
 k-point 42 :   0.0000 0.0000 0.2500  plane waves:    8983
 k-point 43 :   0.1111 0.0000 0.2500  plane waves:    9015
 k-point 44 :   0.2222 0.0000 0.2500  plane waves:    9033
 k-point 45 :   0.3333 0.0000 0.2500  plane waves:    9041
 k-point 46 :   0.4444 0.0000 0.2500  plane waves:    9066
 k-point 47 :  -0.4444-0.0000 0.2500  plane waves:    9066
 k-point 48 :  -0.3333-0.0000 0.2500  plane waves:    9041
 k-point 49 :  -0.2222-0.0000 0.2500  plane waves:    9033
 k-point 50 :  -0.1111-0.0000 0.2500  plane waves:    9015
 k-point 51 :   0.0000 0.1111 0.2500  plane waves:    9015
 k-point 52 :   0.1111 0.1111 0.2500  plane waves:    9029
 k-point 53 :   0.2222 0.1111 0.2500  plane waves:    9051
 k-point 54 :   0.3333 0.1111 0.2500  plane waves:    9044
 k-point 55 :   0.4444 0.1111 0.2500  plane waves:    9060
 k-point 56 :  -0.4444 0.1111 0.2500  plane waves:    9042
 k-point 57 :  -0.3333 0.1111 0.2500  plane waves:    9046
 k-point 58 :  -0.2222 0.1111 0.2500  plane waves:    9032
 k-point 59 :  -0.1111 0.1111 0.2500  plane waves:    9014
 k-point 60 :   0.0000 0.2222 0.2500  plane waves:    9033
 k-point 61 :   0.1111 0.2222 0.2500  plane waves:    9051
 k-point 62 :   0.2222 0.2222 0.2500  plane waves:    9030
 k-point 63 :   0.3333 0.2222 0.2500  plane waves:    9051
 k-point 64 :   0.4444 0.2222 0.2500  plane waves:    9050
 k-point 65 :  -0.4444 0.2222 0.2500  plane waves:    9031
 k-point 66 :  -0.3333 0.2222 0.2500  plane waves:    9049
 k-point 67 :  -0.2222 0.2222 0.2500  plane waves:    9031
 k-point 68 :  -0.1111 0.2222 0.2500  plane waves:    9032
 k-point 69 :   0.0000 0.3333 0.2500  plane waves:    9041
 k-point 70 :   0.1111 0.3333 0.2500  plane waves:    9044
 k-point 71 :   0.2222 0.3333 0.2500  plane waves:    9051
 k-point 72 :   0.3333 0.3333 0.2500  plane waves:    9037
 k-point 73 :   0.4444 0.3333 0.2500  plane waves:    9050
 k-point 74 :  -0.4444 0.3333 0.2500  plane waves:    9044
 k-point 75 :  -0.3333 0.3333 0.2500  plane waves:    9041
 k-point 76 :  -0.2222 0.3333 0.2500  plane waves:    9049
 k-point 77 :  -0.1111 0.3333 0.2500  plane waves:    9046
 k-point 78 :   0.0000 0.4444 0.2500  plane waves:    9066
 k-point 79 :   0.1111 0.4444 0.2500  plane waves:    9060
 k-point 80 :   0.2222 0.4444 0.2500  plane waves:    9050
 k-point 81 :   0.3333 0.4444 0.2500  plane waves:    9050
 k-point 82 :   0.4444 0.4444 0.2500  plane waves:    9069
 k-point 83 :  -0.4444 0.4444 0.2500  plane waves:    9067
 k-point 84 :  -0.3333 0.4444 0.2500  plane waves:    9044
 k-point 85 :  -0.2222 0.4444 0.2500  plane waves:    9031
 k-point 86 :  -0.1111 0.4444 0.2500  plane waves:    9042
 k-point 87 :   0.0000-0.4444 0.2500  plane waves:    9066
 k-point 88 :   0.1111-0.4444 0.2500  plane waves:    9042
 k-point 89 :   0.2222-0.4444 0.2500  plane waves:    9031
 k-point 90 :   0.3333-0.4444 0.2500  plane waves:    9044
 k-point 91 :   0.4444-0.4444 0.2500  plane waves:    9067
 k-point 92 :  -0.4444-0.4444 0.2500  plane waves:    9069
 k-point 93 :  -0.3333-0.4444 0.2500  plane waves:    9050
 k-point 94 :  -0.2222-0.4444 0.2500  plane waves:    9050
 k-point 95 :  -0.1111-0.4444 0.2500  plane waves:    9060
 k-point 96 :  -0.0000-0.3333 0.2500  plane waves:    9041
 k-point 97 :   0.1111-0.3333 0.2500  plane waves:    9046
 k-point 98 :   0.2222-0.3333 0.2500  plane waves:    9049
 k-point 99 :   0.3333-0.3333 0.2500  plane waves:    9041
 k-point ** :   0.4444-0.3333 0.2500  plane waves:    9044
 k-point ** :  -0.4444-0.3333 0.2500  plane waves:    9050
 k-point ** :  -0.3333-0.3333 0.2500  plane waves:    9037
 k-point ** :  -0.2222-0.3333 0.2500  plane waves:    9051
 k-point ** :  -0.1111-0.3333 0.2500  plane waves:    9044
 k-point ** :   0.0000-0.2222 0.2500  plane waves:    9033
 k-point ** :   0.1111-0.2222 0.2500  plane waves:    9032
 k-point ** :   0.2222-0.2222 0.2500  plane waves:    9031
 k-point ** :   0.3333-0.2222 0.2500  plane waves:    9049
 k-point ** :   0.4444-0.2222 0.2500  plane waves:    9031
 k-point ** :  -0.4444-0.2222 0.2500  plane waves:    9050
 k-point ** :  -0.3333-0.2222 0.2500  plane waves:    9051
 k-point ** :  -0.2222-0.2222 0.2500  plane waves:    9030
 k-point ** :  -0.1111-0.2222 0.2500  plane waves:    9051
 k-point ** :   0.0000-0.1111 0.2500  plane waves:    9015
 k-point ** :   0.1111-0.1111 0.2500  plane waves:    9014
 k-point ** :   0.2222-0.1111 0.2500  plane waves:    9032
 k-point ** :   0.3333-0.1111 0.2500  plane waves:    9046
 k-point ** :   0.4444-0.1111 0.2500  plane waves:    9042
 k-point ** :  -0.4444-0.1111 0.2500  plane waves:    9060
 k-point ** :  -0.3333-0.1111 0.2500  plane waves:    9044
 k-point ** :  -0.2222-0.1111 0.2500  plane waves:    9051
 k-point ** :  -0.1111-0.1111 0.2500  plane waves:    9029
 k-point ** :   0.0000 0.0000 0.5000  plane waves:    8948
 k-point ** :   0.1111 0.0000 0.5000  plane waves:    9010
 k-point ** :   0.2222 0.0000 0.5000  plane waves:    9050
 k-point ** :   0.3333 0.0000 0.5000  plane waves:    9050
 k-point ** :   0.4444 0.0000 0.5000  plane waves:    9052
 k-point ** :   0.0000 0.1111 0.5000  plane waves:    9010
 k-point ** :   0.1111 0.1111 0.5000  plane waves:    9034
 k-point ** :   0.2222 0.1111 0.5000  plane waves:    9024
 k-point ** :   0.3333 0.1111 0.5000  plane waves:    9052
 k-point ** :   0.4444 0.1111 0.5000  plane waves:    9050
 k-point ** :  -0.4444 0.1111 0.5000  plane waves:    9056
 k-point ** :  -0.3333 0.1111 0.5000  plane waves:    9030
 k-point ** :  -0.2222 0.1111 0.5000  plane waves:    9032
 k-point ** :  -0.1111 0.1111 0.5000  plane waves:    9010
 k-point ** :   0.0000 0.2222 0.5000  plane waves:    9050
 k-point ** :   0.1111 0.2222 0.5000  plane waves:    9024
 k-point ** :   0.2222 0.2222 0.5000  plane waves:    9040
 k-point ** :   0.3333 0.2222 0.5000  plane waves:    9058
 k-point ** :   0.4444 0.2222 0.5000  plane waves:    9054
 k-point ** :  -0.4444 0.2222 0.5000  plane waves:    9040
 k-point ** :  -0.3333 0.2222 0.5000  plane waves:    9026
 k-point ** :  -0.2222 0.2222 0.5000  plane waves:    9052
 k-point ** :  -0.1111 0.2222 0.5000  plane waves:    9032
 k-point ** :   0.0000 0.3333 0.5000  plane waves:    9050
 k-point ** :   0.1111 0.3333 0.5000  plane waves:    9052
 k-point ** :   0.2222 0.3333 0.5000  plane waves:    9058
 k-point ** :   0.3333 0.3333 0.5000  plane waves:    9090
 k-point ** :   0.4444 0.3333 0.5000  plane waves:    9058
 k-point ** :  -0.4444 0.3333 0.5000  plane waves:    9052
 k-point ** :  -0.3333 0.3333 0.5000  plane waves:    9052
 k-point ** :  -0.2222 0.3333 0.5000  plane waves:    9026
 k-point ** :  -0.1111 0.3333 0.5000  plane waves:    9030
 k-point ** :   0.0000 0.4444 0.5000  plane waves:    9052
 k-point ** :   0.1111 0.4444 0.5000  plane waves:    9050
 k-point ** :   0.2222 0.4444 0.5000  plane waves:    9054
 k-point ** :   0.3333 0.4444 0.5000  plane waves:    9058
 k-point ** :   0.4444 0.4444 0.5000  plane waves:    9052
 k-point ** :  -0.4444 0.4444 0.5000  plane waves:    9046
 k-point ** :  -0.3333 0.4444 0.5000  plane waves:    9052
 k-point ** :  -0.2222 0.4444 0.5000  plane waves:    9040
 k-point ** :  -0.1111 0.4444 0.5000  plane waves:    9056

 maximum and minimum number of plane-waves per node :      9090     8948

 maximum number of plane-waves:      9090
 maximum index in each direction: 
   IXMAX=   10   IYMAX=   10   IZMAX=   25
   IXMIN=  -10   IYMIN=  -10   IZMIN=  -26

 WARNING: aliasing errors must be expected set NGX to  42 to avoid them
 WARNING: aliasing errors must be expected set NGY to  42 to avoid them
 NGZ is ok and might be reduce to 104
 aliasing errors are usually negligible using standard VASP settings
 and one can safely disregard these warnings

 serial   3D FFT for wavefunctions
 parallel 3D FFT for charge:
    minimum data exchange during FFTs selected (reduces bandwidth)


 total amount of memory used by VASP on root node   498296. kBytes
========================================================================

   base      :      30000. kBytes
   nonl-proj :      99480. kBytes
   fftplans  :       8783. kBytes
   grid      :      18621. kBytes
   one-center:         98. kBytes
   wavefun   :     341314. kBytes
 
     INWAV:  cpu time    0.00: real time    0.00
 Broyden mixing: mesh for mixing (old mesh)
   NGX = 19   NGY = 19   NGZ = 51
  (NGX  = 80   NGY  = 80   NGZ  =216)
  gives a total of  18411 points

 initial charge density was supplied:
 charge density of overlapping atoms calculated
 number of electron     128.0000000 magnetization 
 keeping initial charge density in first step


--------------------------------------------------------------------------------------------------------


 Maximum index for augmentation-charges         1492 (set IRDMAX)


--------------------------------------------------------------------------------------------------------


 First call to EWALD:  gamma=   0.274
 Maximum number of real-space cells 4x 4x 2
 Maximum number of reciprocal cells 2x 2x 5

 FEWALD executed in parallel
    FEWALD:  cpu time    0.00: real time    0.00


----------------------------------------- Iteration    1(   1)  ---------------------------------------


    POTLOK:  cpu time    0.22: real time    0.22
    SETDIJ:  cpu time    0.01: real time    0.02
     EDDAV:  cpu time  161.07: real time  161.16
 BZINTS: Fermi energy: 16.264775;128.000000 electrons
         Band energy:  98.756363;  BLOECHL correction: -0.102579
       DOS:  cpu time    0.21: real time    0.21
    --------------------------------------------
      LOOP:  cpu time  161.52: real time  161.65

 eigenvalue-minimisations  : 27384
 total energy-change (2. order) : 0.5739816E+03  (-0.7223942E+04)
 number of electron     128.0000000 magnetization 
 augmentation part      128.0000000 magnetization 

 Free energy of the ion-electron system (eV)
  ---------------------------------------------------
  alpha Z        PSCENC =       307.88348157
  Ewald energy   TEWEN  =     -3888.95920286
  -Hartree energ DENC   =     -1059.44326621
  -exchange      EXHF   =         0.00000000
  -V(xc)+E(xc)   XCENC  =       443.75039325
  PAW double counting   =      1210.60617908    -1247.42152856
  entropy T*S    EENTRO =         0.00000000
  eigenvalues    EBANDS =        98.75636339
  atomic energy  EATOM  =      4708.80920826
  ---------------------------------------------------
  free energy    TOTEN  =       573.98162792 eV

  energy without entropy =      573.98162792  energy(sigma->0) =      573.98162792


--------------------------------------------------------------------------------------------------------




----------------------------------------- Iteration    1(   2)  ---------------------------------------


     EDDAV:  cpu time  188.19: real time  188.28
 BZINTS: Fermi energy:  4.242674;128.000000 electrons
         Band energy:-739.970520;  BLOECHL correction: -0.000101
       DOS:  cpu time    0.14: real time    0.15
    --------------------------------------------
      LOOP:  cpu time  188.33: real time  188.55

 eigenvalue-minimisations  : 33948
 total energy-change (2. order) :-0.8387269E+03  (-0.8082906E+03)
 number of electron     128.0000000 magnetization 
 augmentation part      128.0000000 magnetization 

 Free energy of the ion-electron system (eV)
  ---------------------------------------------------
  alpha Z        PSCENC =       307.88348157
  Ewald energy   TEWEN  =     -3888.95920286
  -Hartree energ DENC   =     -1059.44326621
  -exchange      EXHF   =         0.00000000
  -V(xc)+E(xc)   XCENC  =       443.75039325
  PAW double counting   =      1210.60617908    -1247.42152856
  entropy T*S    EENTRO =         0.00000000
  eigenvalues    EBANDS =      -739.97052037
  atomic energy  EATOM  =      4708.80920826
  ---------------------------------------------------
  free energy    TOTEN  =      -264.74525584 eV

  energy without entropy =     -264.74525584  energy(sigma->0) =     -264.74525584


--------------------------------------------------------------------------------------------------------




----------------------------------------- Iteration    1(   3)  ---------------------------------------


     EDDAV:  cpu time  186.31: real time  186.40
 BZINTS: Fermi energy:  3.652909;128.000000 electrons
         Band energy:-787.327212;  BLOECHL correction: -0.000000
       DOS:  cpu time    0.10: real time    0.10
    --------------------------------------------
      LOOP:  cpu time  186.41: real time  186.51

 eigenvalue-minimisations  : 33432
 total energy-change (2. order) :-0.4735669E+02  (-0.4688506E+02)
 number of electron     128.0000000 magnetization 
 augmentation part      128.0000000 magnetization 

 Free energy of the ion-electron system (eV)
  ---------------------------------------------------
  alpha Z        PSCENC =       307.88348157
  Ewald energy   TEWEN  =     -3888.95920286
  -Hartree energ DENC   =     -1059.44326621
  -exchange      EXHF   =         0.00000000
  -V(xc)+E(xc)   XCENC  =       443.75039325
  PAW double counting   =      1210.60617908    -1247.42152856
  entropy T*S    EENTRO =         0.00000000
  eigenvalues    EBANDS =      -787.32721195
  atomic energy  EATOM  =      4708.80920826
  ---------------------------------------------------
  free energy    TOTEN  =      -312.10194742 eV

  energy without entropy =     -312.10194742  energy(sigma->0) =     -312.10194742


--------------------------------------------------------------------------------------------------------




----------------------------------------- Iteration    1(   4)  ---------------------------------------


     EDDAV:  cpu time  184.84: real time  184.94
 BZINTS: Fermi energy:  3.649554;128.000000 electrons
         Band energy:-788.200728;  BLOECHL correction:  0.000000
       DOS:  cpu time    0.07: real time    0.07
    --------------------------------------------
      LOOP:  cpu time  184.91: real time  185.01

 eigenvalue-minimisations  : 34404
 total energy-change (2. order) :-0.8735165E+00  (-0.8718098E+00)
 number of electron     128.0000000 magnetization 
 augmentation part      128.0000000 magnetization 

 Free energy of the ion-electron system (eV)
  ---------------------------------------------------
  alpha Z        PSCENC =       307.88348157
  Ewald energy   TEWEN  =     -3888.95920286
  -Hartree energ DENC   =     -1059.44326621
  -exchange      EXHF   =         0.00000000
  -V(xc)+E(xc)   XCENC  =       443.75039325
  PAW double counting   =      1210.60617908    -1247.42152856
  entropy T*S    EENTRO =         0.00000000
  eigenvalues    EBANDS =      -788.20072846
  atomic energy  EATOM  =      4708.80920826
  ---------------------------------------------------
  free energy    TOTEN  =      -312.97546393 eV

  energy without entropy =     -312.97546393  energy(sigma->0) =     -312.97546393


--------------------------------------------------------------------------------------------------------




----------------------------------------- Iteration    1(   5)  ---------------------------------------


     EDDAV:  cpu time  191.46: real time  191.56
 BZINTS: Fermi energy:  3.649963;128.000000 electrons
         Band energy:-788.226128;  BLOECHL correction: -0.000000
       DOS:  cpu time    0.07: real time    0.07
    CHARGE:  cpu time    8.54: real time    8.55
    MIXING:  cpu time    0.01: real time    0.01
    --------------------------------------------
      LOOP:  cpu time  200.08: real time  200.19

 eigenvalue-minimisations  : 34740
 total energy-change (2. order) :-0.2539981E-01  (-0.2538881E-01)
 number of electron     127.9999994 magnetization 
 augmentation part        3.3964187 magnetization 

 Broyden mixing:
  rms(total) = 0.22073E+01    rms(broyden)= 0.22070E+01
  rms(prec ) = 0.26348E+01
  weight for this iteration     100.00

 Free energy of the ion-electron system (eV)
  ---------------------------------------------------
  alpha Z        PSCENC =       307.88348157
  Ewald energy   TEWEN  =     -3888.95920286
  -Hartree energ DENC   =     -1059.44326621
  -exchange      EXHF   =         0.00000000
  -V(xc)+E(xc)   XCENC  =       443.75039325
  PAW double counting   =      1210.60617908    -1247.42152856
  entropy T*S    EENTRO =         0.00000000
  eigenvalues    EBANDS =      -788.22612827
  atomic energy  EATOM  =      4708.80920826
  ---------------------------------------------------
  free energy    TOTEN  =      -313.00086374 eV

  energy without entropy =     -313.00086374  energy(sigma->0) =     -313.00086374


--------------------------------------------------------------------------------------------------------




----------------------------------------- Iteration    1(   6)  ---------------------------------------


    POTLOK:  cpu time    0.21: real time    0.21
    SETDIJ:  cpu time    0.02: real time    0.02
     EDDAV:  cpu time  177.37: real time  177.46
 BZINTS: Fermi energy:  4.363467;128.000000 electrons
         Band energy:-653.514922;  BLOECHL correction:  0.000000
       DOS:  cpu time    0.08: real time    0.08
    CHARGE:  cpu time    8.63: real time    8.64
    MIXING:  cpu time    0.01: real time    0.01
    --------------------------------------------
      LOOP:  cpu time  186.32: real time  186.41

 eigenvalue-minimisations  : 31296
 total energy-change (2. order) : 0.1425086E+02  (-0.1471887E+01)
 number of electron     127.9999995 magnetization 
 augmentation part        3.2418328 magnetization 

 Broyden mixing:
  rms(total) = 0.11570E+01    rms(broyden)= 0.11570E+01
  rms(prec ) = 0.13701E+01
  weight for this iteration     100.00

 eigenvalues of (default mixing * dielectric matrix)
  average eigenvalue GAMMA=   2.0344
  2.0344

 Free energy of the ion-electron system (eV)
  ---------------------------------------------------
  alpha Z        PSCENC =       307.88348157
  Ewald energy   TEWEN  =     -3888.95920286
  -Hartree energ DENC   =     -1185.26843196
  -exchange      EXHF   =         0.00000000
  -V(xc)+E(xc)   XCENC  =       452.03719931
  PAW double counting   =      1641.27695933    -1681.01429898
  entropy T*S    EENTRO =         0.00000000
  eigenvalues    EBANDS =      -653.51492223
  atomic energy  EATOM  =      4708.80920826
  ---------------------------------------------------
  free energy    TOTEN  =      -298.75000756 eV

  energy without entropy =     -298.75000756  energy(sigma->0) =     -298.75000756


--------------------------------------------------------------------------------------------------------




----------------------------------------- Iteration    1(   7)  ---------------------------------------


    POTLOK:  cpu time    0.22: real time    0.22
    SETDIJ:  cpu time    0.02: real time    0.02
     EDDAV:  cpu time  176.31: real time  176.40
 BZINTS: Fermi energy:  5.054792;128.000000 electrons
         Band energy:-517.011009;  BLOECHL correction:  0.000000
       DOS:  cpu time    0.06: real time    0.06
    CHARGE:  cpu time    8.63: real time    8.64
    MIXING:  cpu time    0.01: real time    0.01
    --------------------------------------------
      LOOP:  cpu time  185.24: real time  185.34

 eigenvalue-minimisations  : 31140
 total energy-change (2. order) : 0.4470948E+01  (-0.1519362E+01)
 number of electron     127.9999996 magnetization 
 augmentation part        3.0783154 magnetization 

 Broyden mixing:
  rms(total) = 0.19064E+00    rms(broyden)= 0.19052E+00
  rms(prec ) = 0.20466E+00
  weight for this iteration     100.00

 eigenvalues of (default mixing * dielectric matrix)
  average eigenvalue GAMMA=   2.1696
  2.0995  2.2397

 Free energy of the ion-electron system (eV)
  ---------------------------------------------------
  alpha Z        PSCENC =       307.88348157
  Ewald energy   TEWEN  =     -3888.95920286
  -Hartree energ DENC   =     -1324.30063031
  -exchange      EXHF   =         0.00000000
  -V(xc)+E(xc)   XCENC  =       461.41977424
  PAW double counting   =      2178.91025660    -2221.03093808
  entropy T*S    EENTRO =         0.00000000
  eigenvalues    EBANDS =      -517.01100853
  atomic energy  EATOM  =      4708.80920826
  ---------------------------------------------------
  free energy    TOTEN  =      -294.27905911 eV

  energy without entropy =     -294.27905911  energy(sigma->0) =     -294.27905911


--------------------------------------------------------------------------------------------------------




----------------------------------------- Iteration    1(   8)  ---------------------------------------


    POTLOK:  cpu time    0.22: real time    0.22
    SETDIJ:  cpu time    0.01: real time    0.02
     EDDAV:  cpu time  173.00: real time  173.08
 BZINTS: Fermi energy:  5.025179;128.000000 electrons
         Band energy:-520.377400;  BLOECHL correction:  0.000000
       DOS:  cpu time    0.05: real time    0.05
    CHARGE:  cpu time    7.06: real time    7.06
    MIXING:  cpu time    0.01: real time    0.01
    --------------------------------------------
      LOOP:  cpu time  180.35: real time  180.44

 eigenvalue-minimisations  : 30828
 total energy-change (2. order) :-0.5504242E-01  (-0.3646470E-01)
 number of electron     127.9999996 magnetization 
 augmentation part        3.0729239 magnetization 

 Broyden mixing:
  rms(total) = 0.25044E-01    rms(broyden)= 0.25017E-01
  rms(prec ) = 0.31711E-01
  weight for this iteration     100.00

 eigenvalues of (default mixing * dielectric matrix)
  average eigenvalue GAMMA=   1.7924
  0.9338  2.4808  1.9625

 Free energy of the ion-electron system (eV)
  ---------------------------------------------------
  alpha Z        PSCENC =       307.88348157
  Ewald energy   TEWEN  =     -3888.95920286
  -Hartree energ DENC   =     -1321.61768422
  -exchange      EXHF   =         0.00000000
  -V(xc)+E(xc)   XCENC  =       461.27879234
  PAW double counting   =      2213.40903807    -2254.76033482
  entropy T*S    EENTRO =         0.00000000
  eigenvalues    EBANDS =      -520.37739988
  atomic energy  EATOM  =      4708.80920826
  ---------------------------------------------------
  free energy    TOTEN  =      -294.33410153 eV

  energy without entropy =     -294.33410153  energy(sigma->0) =     -294.33410153


--------------------------------------------------------------------------------------------------------




----------------------------------------- Iteration    1(   9)  ---------------------------------------


    POTLOK:  cpu time    0.19: real time    0.19
    SETDIJ:  cpu time    0.01: real time    0.02
     EDDAV:  cpu time  184.35: real time  184.45
 BZINTS: Fermi energy:  5.039629;128.000000 electrons
         Band energy:-518.275582;  BLOECHL correction: -0.000000
       DOS:  cpu time    0.06: real time    0.06
    CHARGE:  cpu time    8.58: real time    8.58
    MIXING:  cpu time    0.01: real time    0.01
    --------------------------------------------
      LOOP:  cpu time  193.21: real time  193.31

 eigenvalue-minimisations  : 33336
 total energy-change (2. order) :-0.1315270E-02  (-0.1295865E-02)
 number of electron     127.9999996 magnetization 
 augmentation part        3.0693734 magnetization 

 Broyden mixing:
  rms(total) = 0.10864E-01    rms(broyden)= 0.10860E-01
  rms(prec ) = 0.13517E-01
  weight for this iteration     100.00

 eigenvalues of (default mixing * dielectric matrix)
  average eigenvalue GAMMA=   1.7005
  2.5233  1.9633  1.4673  0.8483

 Free energy of the ion-electron system (eV)
  ---------------------------------------------------
  alpha Z        PSCENC =       307.88348157
  Ewald energy   TEWEN  =     -3888.95920286
  -Hartree energ DENC   =     -1323.89249403
  -exchange      EXHF   =         0.00000000
  -V(xc)+E(xc)   XCENC  =       461.44371421
  PAW double counting   =      2222.99557415    -2264.34011610
  entropy T*S    EENTRO =         0.00000000
  eigenvalues    EBANDS =      -518.27558201
  atomic energy  EATOM  =      4708.80920826
  ---------------------------------------------------
  free energy    TOTEN  =      -294.33541680 eV

  energy without entropy =     -294.33541680  energy(sigma->0) =     -294.33541680


--------------------------------------------------------------------------------------------------------




----------------------------------------- Iteration    1(  10)  ---------------------------------------


    POTLOK:  cpu time    0.22: real time    0.22
    SETDIJ:  cpu time    0.02: real time    0.02
     EDDAV:  cpu time  185.64: real time  185.73
 BZINTS: Fermi energy:  5.042409;128.000000 electrons
         Band energy:-517.774307;  BLOECHL correction:  0.000000
       DOS:  cpu time    0.07: real time    0.07
    CHARGE:  cpu time    8.67: real time    8.68
    MIXING:  cpu time    0.01: real time    0.01
    --------------------------------------------
      LOOP:  cpu time  194.62: real time  194.72

 eigenvalue-minimisations  : 33264
 total energy-change (2. order) :-0.7379747E-03  (-0.2686841E-03)
 number of electron     127.9999996 magnetization 
 augmentation part        3.0685940 magnetization 

 Broyden mixing:
  rms(total) = 0.75407E-02    rms(broyden)= 0.75383E-02
  rms(prec ) = 0.10787E-01
  weight for this iteration     100.00

 eigenvalues of (default mixing * dielectric matrix)
  average eigenvalue GAMMA=   1.6092
  2.6200  2.1071  1.9345  0.8427  0.5417

 Free energy of the ion-electron system (eV)
  ---------------------------------------------------
[...]
     79      12.9868      0.00000
     80      12.9897      0.00000
     81      13.1680      0.00000
     82      13.1693      0.00000
     83      13.3564      0.00000
     84      13.3576      0.00000

 k-point   162 :      -0.2222    0.4444    0.5000
  band No.  band energies     occupation 
      1     -13.6903      2.00000
      2     -13.6900      2.00000
      3     -13.4137      2.00000
      4     -13.4132      2.00000
      5     -11.7525      2.00000
      6     -11.7509      2.00000
      7     -11.7461      2.00000
      8     -11.7447      2.00000
      9     -11.5080      2.00000
     10     -11.5065      2.00000
     11     -11.5016      2.00000
     12     -11.5001      2.00000
     13      -8.4837      2.00000
     14      -8.4819      2.00000
     15      -8.3785      2.00000
     16      -8.3767      2.00000
     17      -7.4934      2.00000
     18      -7.4900      2.00000
     19      -7.4339      2.00000
     20      -7.4303      2.00000
     21      -4.5093      2.00000
     22      -4.5061      2.00000
     23      -4.4986      2.00000
     24      -4.4970      2.00000
     25      -4.3833      2.00000
     26      -4.3804      2.00000
     27      -4.3733      2.00000
     28      -4.3714      2.00000
     29      -4.2000      2.00000
     30      -4.1978      2.00000
     31      -4.0934      2.00000
     32      -4.0913      2.00000
     33      -2.2788      2.00000
     34      -2.2776      2.00000
     35      -1.5734      2.00000
     36      -1.5719      2.00000
     37      -1.5589      2.00000
     38      -1.5563      2.00000
     39      -1.5016      2.00000
     40      -1.5004      2.00000
     41      -1.4873      2.00000
     42      -1.4842      2.00000
     43      -0.6561      2.00000
     44      -0.6552      2.00000
     45      -0.6204      2.00000
     46      -0.6160      2.00000
     47      -0.5844      2.00000
     48      -0.5805      2.00000
     49      -0.0022      2.00000
     50      -0.0007      2.00000
     51       0.0032      2.00000
     52       0.0046      2.00000
     53       0.3474      2.00000
     54       0.3516      2.00000
     55       0.3773      2.00000
     56       0.3828      2.00000
     57       1.4430      2.00000
     58       1.4448      2.00000
     59       1.4489      2.00000
     60       1.4507      2.00000
     61       3.3931      2.00000
     62       3.3960      2.00000
     63       3.9984      2.00000
     64       4.0014      2.00000
     65       6.2998      0.00000
     66       6.3024      0.00000
     67       6.3067      0.00000
     68       6.3118      0.00000
     69       9.4361      0.00000
     70       9.4393      0.00000
     71       9.4462      0.00000
     72       9.4481      0.00000
     73      10.1221      0.00000
     74      10.1253      0.00000
     75      10.1260      0.00000
     76      10.1285      0.00000
     77      11.6083      0.00000
     78      11.6103      0.00000
     79      13.6272      0.00000
     80      13.6304      0.00000
     81      13.6981      0.00000
     82      13.7056      0.00000
     83      13.7082      0.00000
     84      13.8268      0.00000

 k-point   163 :      -0.1111    0.4444    0.5000
  band No.  band energies     occupation 
      1     -13.6169      2.00000
      2     -13.6166      2.00000
      3     -13.3415      2.00000
      4     -13.3410      2.00000
      5     -12.3152      2.00000
      6     -12.3150      2.00000
      7     -12.0613      2.00000
      8     -12.0608      2.00000
      9     -11.0514      2.00000
     10     -11.0512      2.00000
     11     -10.8192      2.00000
     12     -10.8188      2.00000
     13      -9.2508      2.00000
     14      -9.2505      2.00000
     15      -9.0573      2.00000
     16      -9.0568      2.00000
     17      -6.7459      2.00000
     18      -6.7441      2.00000
     19      -6.6101      2.00000
     20      -6.6084      2.00000
     21      -5.0923      2.00000
     22      -5.0906      2.00000
     23      -4.9694      2.00000
     24      -4.9678      2.00000
     25      -4.0924      2.00000
     26      -4.0906      2.00000
     27      -3.9916      2.00000
     28      -3.9898      2.00000
     29      -3.8341      2.00000
     30      -3.8338      2.00000
     31      -3.7129      2.00000
     32      -3.7124      2.00000
     33      -2.6335      2.00000
     34      -2.6318      2.00000
     35      -2.5504      2.00000
     36      -2.5485      2.00000
     37      -2.1914      2.00000
     38      -2.1902      2.00000
     39      -0.9665      2.00000
     40      -0.9647      2.00000
     41      -0.8940      2.00000
     42      -0.8922      2.00000
     43      -0.7150      2.00000
     44      -0.7146      2.00000
     45      -0.6583      2.00000
     46      -0.6578      2.00000
     47      -0.6549      2.00000
     48      -0.6539      2.00000
     49      -0.5672      2.00000
     50      -0.5654      2.00000
     51       0.4175      2.00000
     52       0.4192      2.00000
     53       0.4633      2.00000
     54       0.4649      2.00000
     55       0.8024      2.00000
     56       0.8037      2.00000
     57       0.8493      2.00000
     58       0.8510      2.00000
     59       2.1638      2.00000
     60       2.1655      2.00000
     61       2.7545      2.00000
     62       2.7562      2.00000
     63       3.7549      2.00000
     64       3.7571      2.00000
     65       6.5277      0.00000
     66       6.5306      0.00000
     67       7.0600      0.00000
     68       7.0620      0.00000
     69       8.5121      0.00000
     70       8.5144      0.00000
     71       9.1347      0.00000
     72       9.1366      0.00000
     73      10.3423      0.00000
     74      10.3448      0.00000
     75      11.0482      0.00000
     76      11.0497      0.00000
     77      11.6826      0.00000
     78      11.6846      0.00000
     79      12.9701      0.00000
     80      12.9728      0.00000
     81      13.1420      0.00000
     82      13.1437      0.00000
     83      13.3505      0.00000
     84      13.3547      0.00000


--------------------------------------------------------------------------------------------------------


 soft charge-density along one line, spin component           1
         0         1         2         3         4         5         6         7         8         9
 total charge-density along one line
 
 pseudopotential strength for first ion, spin component:           1
  9.750   0.004  -0.000  -0.000   0.000   0.000   0.000  -0.000
  0.004  -0.002   0.000   0.000   0.000   0.000   0.000  -0.000
 -0.000   0.000  -3.924   0.000   0.000  -0.015   0.000   0.000
 -0.000   0.000   0.000  -3.918   0.000   0.000  -0.012   0.000
  0.000   0.000   0.000   0.000  -3.924   0.000   0.000  -0.015
  0.000   0.000  -0.015   0.000   0.000  -0.763   0.000   0.000
  0.000   0.000   0.000  -0.012   0.000   0.000  -0.763  -0.000
 -0.000  -0.000   0.000   0.000  -0.015   0.000  -0.000  -0.763
 total augmentation occupancy for first ion, spin component:           1
  1.471  -1.107   0.000   0.000   0.003   0.000  -0.001   0.001
 -1.107   1.040  -0.000   0.006  -0.002  -0.000   0.002  -0.001
  0.000  -0.000   1.225  -0.000  -0.002   0.225  -0.000  -0.001
  0.000   0.006  -0.000   0.926  -0.000  -0.000   0.103  -0.000
  0.003  -0.002  -0.002  -0.000   1.224  -0.001  -0.000   0.225
  0.000  -0.000   0.225  -0.000  -0.001   0.047  -0.000  -0.000
 -0.001   0.002  -0.000   0.103  -0.000  -0.000   0.013  -0.000
  0.001  -0.001  -0.001  -0.000   0.225  -0.000  -0.000   0.047


------------------------ aborting loop because EDIFF is reached ----------------------------------------


    CHARGE:  cpu time    8.70: real time    8.70
    FORLOC:  cpu time    0.05: real time    0.05
    FORNL :  cpu time   51.84: real time   51.86
    STRESS:  cpu time   94.38: real time   94.43
    FORHAR:  cpu time    0.09: real time    0.09
    MIXING:  cpu time    0.01: real time    0.01
    OFIELD:  cpu time    0.00: real time    0.00

 ---------------------------------------------------------------------------------------------

         DFTD3 V3.0 Rev 1        
 IVDW         = 12
 DF pbe       
 parameters
 VDW_S6       =    1.0000
 VDW_S8       =    0.7875
 VDW_A1       =    0.4289
 VDW_A2       =    4.4407
 k1-k3        =   16.0000    1.3333   -4.0000
 VDW_RADIUS   =   50.2022 A
 VDW_CNRADIUS =   21.1671 A
 Edisp (eV)   -5.25772

 E6    (eV) :    -3.7594
 E8    (eV) :    -1.4983
 % E8        : 28.50
    FORVDW:  cpu time    0.29: real time    0.29

  FORCE on cell =-STRESS in cart. coord.  units (eV):
  Direction    XX          YY          ZZ          XY          YZ          ZX
  --------------------------------------------------------------------------------------
  Alpha Z   307.88348   307.88348   307.88348
  Ewald     415.24355   414.75581 -4718.97563    -1.20572    -0.00060    -0.00737
  Hartree  1144.86457  1144.86144  -964.74465    -0.10970    -0.00016    -0.00155
  E(xc)    -468.00677  -468.01373  -484.53102    -0.00896    -0.00001    -0.00000
  Local   -3197.39195 -3196.99332  3777.76659     1.08482     0.00042     0.00752
  n-local  -112.34561  -112.45584  -102.95175    -0.10157    -0.00026     0.00037
  augment   -12.38065   -12.37977   -11.34264     0.00201     0.00000     0.00001
  Kinetic  1922.03998  1922.85592  2205.94024     0.83056     0.00345    -0.00360
  Fock        0.00000     0.00000     0.00000     0.00000     0.00000     0.00000
  vdW        -0.68766    -0.67707    -6.11862     0.00962     0.00000    -0.00002
  -------------------------------------------------------------------------------------
  Total      -0.78106    -0.16308     2.92600     0.50104     0.00285    -0.00464
  in kB      -4.61774    -0.96412    17.29896     2.96222     0.01685    -0.02746
  external pressure =        3.91 kB  Pullay stress =        0.00 kB


 VOLUME and BASIS-vectors are now :
 -----------------------------------------------------------------------------
  energy-cutoff  :      600.00
  volume of cell :      271.00
      direct lattice vectors                 reciprocal lattice vectors
     4.932874498 -0.001919286  0.000000000     0.202767147  0.117172881  0.000000000
    -2.468099399  4.271034986  0.000000000     0.000091118  0.234187941  0.000000000
     0.000000000  0.000000000 12.865596413     0.000000000  0.000000000  0.077726673

  length of vectors
     4.932874871  4.932874871 12.865596413     0.234187958  0.234187958  0.077726673


 FORCES acting on ions
    electron-ion (+dipol)            ewald-force                    non-local-force                 convergence-correction
 -----------------------------------------------------------------------------------------------
   0.666E+00 0.616E-01 -.158E+01   -.795E+00 -.573E-01 0.161E+01   -.102E+00 0.280E-02 -.171E+00   -.477E-03 0.616E-06 0.427E-02
   -.322E+00 0.652E-01 0.375E+00   0.333E+00 -.619E-01 -.362E+00   0.137E-01 0.269E-02 -.213E-01   0.570E-03 0.136E-04 0.419E-02
   -.140E+00 0.170E+00 0.375E+00   0.127E+00 -.181E+00 -.362E+00   0.263E-02 -.378E-02 -.213E-01   0.333E-04 -.362E-03 0.418E-02
   -.140E+00 -.395E-01 0.375E+00   0.126E+00 0.579E-01 -.362E+00   0.271E-02 0.901E-02 -.213E-01   0.648E-04 0.240E-03 0.419E-02
   -.113E+00 0.652E-01 -.961E-01   0.107E+00 -.617E-01 0.101E+00   -.454E-02 0.261E-02 0.236E-02   -.369E-04 -.329E-04 -.435E-02
   -.113E+00 0.652E-01 -.949E-01   0.107E+00 -.617E-01 0.995E-01   -.455E-02 0.261E-02 0.243E-02   -.436E-04 -.288E-04 -.435E-02
   -.113E+00 0.653E-01 -.949E-01   0.107E+00 -.618E-01 0.995E-01   -.454E-02 0.261E-02 0.243E-02   -.451E-04 -.142E-04 -.434E-02
   -.113E+00 0.651E-01 -.949E-01   0.107E+00 -.616E-01 0.995E-01   -.454E-02 0.260E-02 0.243E-02   -.398E-04 -.117E-04 -.435E-02
   0.113E+00 -.704E-01 -.845E-01   -.107E+00 0.670E-01 0.830E-01   0.450E-02 -.277E-02 -.247E-02   0.226E-04 -.508E-05 0.128E-02
   0.112E+00 -.603E-01 -.841E-01   -.107E+00 0.566E-01 0.829E-01   0.435E-02 -.257E-02 -.284E-02   0.521E-04 -.390E-04 0.128E-02
   0.104E+00 -.651E-01 -.842E-01   -.977E-01 0.617E-01 0.829E-01   0.425E-02 -.255E-02 -.266E-02   0.619E-04 -.285E-04 0.127E-02
   0.123E+00 -.651E-01 -.155E+00   -.117E+00 0.616E-01 0.154E+00   0.452E-02 -.263E-02 -.227E-02   0.166E-04 -.116E-04 0.128E-02
   0.113E+00 -.699E-01 -.822E-01   -.107E+00 0.669E-01 0.832E-01   0.443E-02 -.259E-02 -.291E-02   0.482E-04 -.491E-05 -.100E-02
   0.113E+00 -.597E-01 -.824E-01   -.107E+00 0.564E-01 0.832E-01   0.458E-02 -.239E-02 -.254E-02   0.132E-04 -.237E-04 -.999E-03
   0.104E+00 -.650E-01 -.823E-01   -.977E-01 0.617E-01 0.832E-01   0.432E-02 -.261E-02 -.272E-02   0.471E-04 -.278E-04 -.998E-03
   0.123E+00 -.650E-01 -.151E+00   -.117E+00 0.618E-01 0.153E+00   0.460E-02 -.252E-02 -.220E-02   0.127E-04 -.475E-04 -.996E-03
   0.320E-01 -.648E-01 0.313E+00   -.267E-01 0.616E-01 -.315E+00   0.554E-02 -.248E-02 0.107E-01   0.217E-03 -.279E-06 0.419E-02
   0.357E+00 -.564E-01 0.832E+00   -.348E+00 0.523E-01 -.869E+00   0.312E-01 -.228E-02 0.792E-01   -.313E-03 -.341E-04 0.418E-02
   -.234E+00 -.405E+00 0.828E+00   0.299E+00 0.433E+00 -.864E+00   0.224E-01 -.750E-02 0.790E-01   -.174E-04 0.223E-03 0.418E-02
   -.224E+00 0.271E+00 0.835E+00   0.288E+00 -.306E+00 -.873E+00   0.234E-01 0.205E-02 0.795E-01   -.660E-04 -.902E-04 0.418E-02
   0.112E+00 -.645E-01 -.949E-01   -.106E+00 0.613E-01 0.993E-01   0.434E-02 -.249E-02 -.517E-03   0.552E-04 0.466E-04 -.433E-02
   0.112E+00 -.645E-01 -.955E-01   -.106E+00 0.613E-01 0.999E-01   0.432E-02 -.249E-02 -.501E-03   0.572E-04 0.188E-04 -.434E-02
   0.112E+00 -.645E-01 -.955E-01   -.106E+00 0.614E-01 0.999E-01   0.433E-02 -.248E-02 -.500E-03   0.783E-04 0.339E-06 -.433E-02
   0.112E+00 -.644E-01 -.955E-01   -.106E+00 0.613E-01 0.999E-01   0.433E-02 -.248E-02 -.500E-03   0.287E-04 0.675E-05 -.434E-02
   -.871E-01 0.532E-01 -.986E-01   0.815E-01 -.499E-01 0.973E-01   -.420E-02 0.256E-02 0.126E-02   -.267E-04 -.129E-04 0.126E-02
   -.137E+00 0.474E-01 -.117E+00   0.132E+00 -.439E-01 0.116E+00   -.422E-02 0.243E-02 0.827E-03   -.646E-04 0.192E-04 0.129E-02
   -.107E+00 0.929E-01 -.108E+00   0.101E+00 -.903E-01 0.107E+00   -.410E-02 0.252E-02 0.104E-02   -.779E-04 0.444E-04 0.128E-02
   -.115E+00 0.644E-01 -.782E-01   0.110E+00 -.612E-01 0.768E-01   -.440E-02 0.250E-02 0.213E-03   -.118E-04 0.213E-04 0.128E-02
   -.136E+00 0.811E-01 -.115E+00   0.131E+00 -.786E-01 0.116E+00   -.420E-02 0.246E-02 0.796E-03   -.751E-04 0.399E-04 -.987E-03
   -.875E-01 0.752E-01 -.962E-01   0.819E-01 -.725E-01 0.972E-01   -.420E-02 0.234E-02 0.120E-02   0.209E-05 0.293E-04 -.102E-02
   -.107E+00 0.361E-01 -.105E+00   0.101E+00 -.328E-01 0.107E+00   -.409E-02 0.240E-02 0.979E-03   -.264E-04 -.133E-05 -.101E-02
   -.116E+00 0.642E-01 -.763E-01   0.111E+00 -.614E-01 0.772E-01   -.440E-02 0.240E-02 0.189E-03   -.469E-04 0.436E-04 -.101E-02
 -----------------------------------------------------------------------------------------------
   -.197E-03 0.804E-04 -.928E-02   0.387E-14 -.148E-13 0.107E-12   0.122E-03 -.473E-04 0.751E-02   0.127E-04 -.285E-04 0.104E-02
 
 
 POSITION                                       TOTAL-FORCE (eV/Angst)
 -----------------------------------------------------------------------------------
      2.46760      0.00044      1.61754        -0.233636      0.007182     -0.134152
      4.93046     -0.00052      1.60820         0.027298      0.006120     -0.004036
      1.22997      2.13595      1.60820        -0.010919     -0.015940     -0.003972
      3.69641      2.13499      1.60820        -0.011026      0.028340     -0.004196
      2.46402      0.00044      8.04100        -0.010720      0.006098      0.002562
      4.93046     -0.00052      8.04100        -0.010695      0.006091      0.002631
      1.22997      2.13595      8.04100        -0.010700      0.006093      0.002625
      3.69641      2.13499      8.04100        -0.010708      0.006098      0.002630
     -1.23163      2.13412      4.82460         0.010391     -0.006226     -0.002698
      1.23481      2.13316      4.82460         0.010091     -0.006333     -0.002812
     -2.46568      4.26964      4.82460         0.010332     -0.006015     -0.002756
      0.00076      4.26868      4.82460         0.010101     -0.006200     -0.001651
     -1.23163      2.13412     11.25740         0.010398     -0.005640     -0.002897
      1.23481      2.13316     11.25740         0.010683     -0.005727     -0.002791
     -2.46568      4.26964     11.25740         0.010612     -0.005932     -0.002844
      0.00076      4.26868     11.25740         0.010400     -0.005771     -0.001637
     -0.00332      1.42496      1.60820         0.011288     -0.005689      0.012216
      2.46311      1.42400      1.60820         0.039756     -0.006415      0.046068
     -1.23737      3.56047      1.60820         0.086809      0.021340      0.046508
      1.22906      3.55952      1.60820         0.087078     -0.033078      0.045570
     -0.00332      1.42496      8.04100         0.009889     -0.005652     -0.000450
      2.46311      1.42400      8.04100         0.009905     -0.005648     -0.000418
     -1.23737      3.56047      8.04100         0.009893     -0.005652     -0.000419
      1.22906      3.55952      8.04100         0.009905     -0.005650     -0.000416
      1.23571      0.70960      4.82460        -0.009962      0.005918      0.001194
      3.70215      0.70864      4.82460        -0.009089      0.006074      0.001255
      0.00166      2.84512      4.82460        -0.009662      0.005253      0.001224
      2.46810      2.84416      4.82460        -0.009430      0.005744      0.000146
      1.23571      0.70960     11.25740        -0.009166      0.005000      0.001189
      3.70215      0.70864     11.25740        -0.009941      0.005164      0.001103
      0.00166      2.84512     11.25740        -0.009698      0.005751      0.001128
      2.46810      2.84416     11.25740        -0.009473      0.005303      0.000094
 -----------------------------------------------------------------------------------
    total drift:                               -0.000062      0.000005     -0.000723


--------------------------------------------------------------------------------------------------------



  FREE ENERGIE OF THE ION-ELECTRON SYSTEM (eV)
  ---------------------------------------------------
  free  energy   TOTEN  =      -299.59422508 eV

  energy  without entropy=     -299.59422508  energy(sigma->0) =     -299.59422508
 


--------------------------------------------------------------------------------------------------------


    POTLOK:  cpu time    0.23: real time    0.23


--------------------------------------------------------------------------------------------------------


     LOOP+:  cpu time 2933.57: real time 2935.29
    4ORBIT:  cpu time    0.00: real time    0.00
 BZINTS: Fermi energy:  5.043356;128.000000 electrons
         Band energy:-517.306692;  BLOECHL correction:  0.000000

 total amount of memory used by VASP on root node   498296. kBytes
========================================================================

   base      :      30000. kBytes
   nonl-proj :      99480. kBytes
   fftplans  :       8783. kBytes
   grid      :      18621. kBytes
   one-center:         98. kBytes
   wavefun   :     341314. kBytes
 
  
  
 General timing and accounting informations for this job:
 ========================================================
  
                  Total CPU time used (sec):     2974.153
                            User time (sec):     2563.755
                          System time (sec):      410.398
                         Elapsed time (sec):     2976.388
  
                   Maximum memory used (kb):      602328.
                   Average memory used (kb):           0.
  
                          Minor page faults:     42734258
                          Major page faults:            0
                 Voluntary context switches:          894
