   4   4   0   0
  0.8119452E+01  0.2466437E-09  0.2466437E-09  0.6167528E-09  0.5000000E-15
  1.000000000000000E-004
  CAR 
 graphite                                
     19.26374589    -16.29860891  301      5.42272220      1.00000000
    -16.299  0.0000E+00  0.0000E+00
    -16.180  0.0000E+00  0.0000E+00
    -16.062  0.0000E+00  0.0000E+00
    -15.943  0.0000E+00  0.0000E+00
    -15.824  0.0000E+00  0.0000E+00
    -15.706  0.0000E+00  0.0000E+00
    -15.587  0.0000E+00  0.0000E+00
    -15.469  0.0000E+00  0.0000E+00
    -15.350  0.0000E+00  0.0000E+00
    -15.232  0.0000E+00  0.0000E+00
    -15.113  0.0000E+00  0.0000E+00
    -14.995  0.0000E+00  0.0000E+00
    -14.876  0.0000E+00  0.0000E+00
    -14.758  0.0000E+00  0.0000E+00
    -14.639  0.0000E+00  0.0000E+00
    -14.520  0.0000E+00  0.0000E+00
    -14.402  0.0000E+00  0.0000E+00
    -14.283  0.2271E-04  0.1151E-06
    -14.165  0.8720E-03  0.4527E-04
    -14.046  0.1289E-02  0.1821E-03
    -13.928  0.1721E-02  0.3599E-03
    -13.809  0.2253E-02  0.5940E-03
    -13.691  0.2998E-02  0.9034E-03
    -13.572  0.2943E-02  0.1273E-02
    -13.454  0.3045E-02  0.1628E-02
    -13.335  0.3122E-02  0.1994E-02
    -13.217  0.3114E-02  0.2365E-02
    -13.098  0.3080E-02  0.2733E-02
    -12.979  0.3103E-02  0.3099E-02
    -12.861  0.3118E-02  0.3468E-02
    -12.742  0.3119E-02  0.3838E-02
    -12.624  0.3090E-02  0.4207E-02
    -12.505  0.3096E-02  0.4573E-02
    -12.387  0.3127E-02  0.4941E-02
    -12.268  0.3164E-02  0.5315E-02
    -12.150  0.3164E-02  0.5690E-02
    -12.031  0.3166E-02  0.6065E-02
    -11.913  0.3166E-02  0.6441E-02
    -11.794  0.3147E-02  0.6815E-02
    -11.676  0.3130E-02  0.7187E-02
    -11.557  0.3150E-02  0.7559E-02
    -11.438  0.3175E-02  0.7934E-02
    -11.320  0.3204E-02  0.8312E-02
    -11.201  0.3238E-02  0.8694E-02
    -11.083  0.3242E-02  0.9077E-02
    -10.964  0.3247E-02  0.9462E-02
    -10.846  0.3245E-02  0.9847E-02
    -10.727  0.3232E-02  0.1023E-01
    -10.609  0.3241E-02  0.1061E-01
    -10.490  0.3256E-02  0.1100E-01
    -10.372  0.3282E-02  0.1139E-01
    -10.253  0.3311E-02  0.1178E-01
    -10.134  0.3348E-02  0.1217E-01
    -10.016  0.3393E-02  0.1257E-01
     -9.897  0.3443E-02  0.1298E-01
     -9.779  0.3496E-02  0.1339E-01
     -9.660  0.3576E-02  0.1381E-01
     -9.542  0.3675E-02  0.1424E-01
     -9.423  0.3792E-02  0.1468E-01
     -9.305  0.4581E-02  0.1516E-01
     -9.186  0.4959E-02  0.1573E-01
     -9.068  0.5064E-02  0.1633E-01
     -8.949  0.5108E-02  0.1694E-01
     -8.831  0.3787E-02  0.1747E-01
     -8.712  0.2831E-02  0.1785E-01
     -8.593  0.2502E-02  0.1817E-01
     -8.475  0.5574E-02  0.1848E-01
     -8.356  0.2565E-02  0.1886E-01
     -8.238  0.2578E-02  0.1916E-01
     -8.119  0.1215E-02  0.1941E-01
     -8.001  0.1067E-02  0.1954E-01
     -7.882  0.9177E-03  0.1966E-01
     -7.764  0.7903E-03  0.1976E-01
     -7.645  0.9355E-03  0.1986E-01
     -7.527  0.1223E-02  0.1999E-01
     -7.408  0.1517E-02  0.2015E-01
     -7.289  0.3135E-02  0.2040E-01
     -7.171  0.4009E-02  0.2088E-01
     -7.052  0.4176E-02  0.2136E-01
     -6.934  0.4266E-02  0.2187E-01
     -6.815  0.4461E-02  0.2236E-01
     -6.697  0.5258E-02  0.2294E-01
     -6.578  0.6055E-02  0.2361E-01
     -6.460  0.4993E-02  0.2425E-01
     -6.341  0.4034E-02  0.2480E-01
     -6.223  0.3466E-02  0.2522E-01
     -6.104  0.3369E-02  0.2562E-01
     -5.986  0.3282E-02  0.2602E-01
     -5.867  0.3200E-02  0.2640E-01
     -5.748  0.3113E-02  0.2678E-01
     -5.630  0.3018E-02  0.2714E-01
     -5.511  0.2922E-02  0.2749E-01
     -5.393  0.2827E-02  0.2783E-01
     -5.274  0.2731E-02  0.2816E-01
     -5.156  0.2635E-02  0.2848E-01
     -5.037  0.2564E-02  0.2879E-01
     -4.919  0.2777E-02  0.2910E-01
     -4.800  0.3012E-02  0.2945E-01
     -4.682  0.3246E-02  0.2982E-01
     -4.563  0.3481E-02  0.3022E-01
     -4.444  0.3715E-02  0.3064E-01
     -4.326  0.3949E-02  0.3110E-01
     -4.207  0.4061E-02  0.3158E-01
     -4.089  0.4104E-02  0.3206E-01
     -3.970  0.3959E-02  0.3254E-01
     -3.852  0.3823E-02  0.3300E-01
     -3.733  0.3822E-02  0.3345E-01
     -3.615  0.3820E-02  0.3390E-01
     -3.496  0.3819E-02  0.3436E-01
     -3.378  0.3945E-02  0.3481E-01
     -3.259  0.4377E-02  0.3530E-01
     -3.141  0.4507E-02  0.3583E-01
     -3.022  0.4749E-02  0.3638E-01
     -2.903  0.4966E-02  0.3696E-01
     -2.785  0.5187E-02  0.3756E-01
     -2.666  0.5432E-02  0.3819E-01
     -2.548  0.5724E-02  0.3885E-01
     -2.429  0.5981E-02  0.3954E-01
     -2.311  0.6220E-02  0.4027E-01
     -2.192  0.6578E-02  0.4102E-01
     -2.074  0.7002E-02  0.4183E-01
     -1.955  0.6245E-02  0.4263E-01
     -1.837  0.6171E-02  0.4337E-01
     -1.718  0.5960E-02  0.4408E-01
     -1.600  0.5924E-02  0.4479E-01
     -1.481  0.5990E-02  0.4549E-01
     -1.362  0.6998E-02  0.4626E-01
     -1.244  0.8257E-02  0.4717E-01
     -1.125  0.9215E-02  0.4820E-01
     -1.007  0.1026E-01  0.4935E-01
     -0.888  0.1592E-01  0.5082E-01
     -0.770  0.9815E-02  0.5226E-01
     -0.651  0.8489E-02  0.5333E-01
     -0.533  0.7886E-02  0.5430E-01
     -0.414  0.7563E-02  0.5520E-01
     -0.296  0.6073E-02  0.5601E-01
     -0.177  0.5958E-02  0.5672E-01
     -0.058  0.5899E-02  0.5742E-01
      0.060  0.5627E-02  0.5811E-01
      0.179  0.5595E-02  0.5876E-01
      0.297  0.7101E-02  0.5949E-01
      0.416  0.8012E-02  0.6043E-01
      0.534  0.7367E-02  0.6128E-01
      0.653  0.6930E-02  0.6213E-01
      0.771  0.6610E-02  0.6293E-01
      0.890  0.6502E-02  0.6370E-01
      1.008  0.6494E-02  0.6447E-01
      1.127  0.6300E-02  0.6523E-01
      1.245  0.6051E-02  0.6596E-01
      1.364  0.5896E-02  0.6667E-01
      1.483  0.6048E-02  0.6738E-01
      1.601  0.5916E-02  0.6809E-01
      1.720  0.5789E-02  0.6878E-01
      1.838  0.5924E-02  0.6947E-01
      1.957  0.5865E-02  0.7018E-01
      2.075  0.5581E-02  0.7085E-01
      2.194  0.6431E-02  0.7155E-01
      2.312  0.5689E-02  0.7228E-01
      2.431  0.4532E-02  0.7289E-01
      2.549  0.3894E-02  0.7337E-01
      2.668  0.3868E-02  0.7383E-01
      2.787  0.3826E-02  0.7429E-01
      2.905  0.3816E-02  0.7474E-01
      3.024  0.3839E-02  0.7519E-01
      3.142  0.3990E-02  0.7566E-01
      3.261  0.4274E-02  0.7614E-01
      3.379  0.4383E-02  0.7666E-01
      3.498  0.4159E-02  0.7718E-01
      3.616  0.3485E-02  0.7764E-01
      3.735  0.3082E-02  0.7802E-01
      3.853  0.2682E-02  0.7836E-01
      3.972  0.2057E-02  0.7864E-01
      4.090  0.1757E-02  0.7886E-01
      4.209  0.1578E-02  0.7906E-01
      4.328  0.1394E-02  0.7924E-01
      4.446  0.1212E-02  0.7939E-01
      4.565  0.1051E-02  0.7953E-01
      4.683  0.9218E-03  0.7964E-01
      4.802  0.8538E-03  0.7975E-01
      4.920  0.6771E-03  0.7984E-01
      5.039  0.5059E-03  0.7991E-01
      5.157  0.3393E-03  0.7996E-01
      5.276  0.1764E-03  0.7999E-01
      5.394  0.2284E-04  0.8000E-01
      5.513  0.5951E-04  0.8000E-01
      5.632  0.1472E-03  0.8001E-01
      5.750  0.2402E-03  0.8004E-01
      5.869  0.3386E-03  0.8007E-01
      5.987  0.4439E-03  0.8012E-01
      6.106  0.5572E-03  0.8018E-01
      6.224  0.6785E-03  0.8025E-01
      6.343  0.8114E-03  0.8034E-01
      6.461  0.1045E-02  0.8045E-01
      6.580  0.1412E-02  0.8059E-01
      6.698  0.1790E-02  0.8078E-01
      6.817  0.2091E-02  0.8101E-01
      6.935  0.2473E-02  0.8127E-01
      7.054  0.4961E-02  0.8166E-01
      7.173  0.5257E-02  0.8243E-01
      7.291  0.5425E-02  0.8305E-01
      7.410  0.4176E-02  0.8358E-01
      7.528  0.3936E-02  0.8406E-01
      7.647  0.3781E-02  0.8451E-01
      7.765  0.3691E-02  0.8496E-01
      7.884  0.3682E-02  0.8539E-01
      8.002  0.3738E-02  0.8583E-01
      8.121  0.3634E-02  0.8627E-01
      8.239  0.3090E-02  0.8666E-01
      8.358  0.2945E-02  0.8702E-01
      8.476  0.2813E-02  0.8736E-01
      8.595  0.2692E-02  0.8769E-01
      8.714  0.2591E-02  0.8800E-01
      8.832  0.2525E-02  0.8830E-01
      8.951  0.2465E-02  0.8860E-01
      9.069  0.2408E-02  0.8889E-01
      9.188  0.2357E-02  0.8917E-01
      9.306  0.2306E-02  0.8945E-01
      9.425  0.2242E-02  0.8972E-01
      9.543  0.2184E-02  0.8998E-01
      9.662  0.2133E-02  0.9023E-01
      9.780  0.2087E-02  0.9048E-01
      9.899  0.2043E-02  0.9073E-01
     10.018  0.2001E-02  0.9097E-01
     10.136  0.1961E-02  0.9120E-01
     10.255  0.1923E-02  0.9143E-01
     10.373  0.1885E-02  0.9166E-01
     10.492  0.1863E-02  0.9188E-01
     10.610  0.1842E-02  0.9210E-01
     10.729  0.1891E-02  0.9232E-01
     10.847  0.2048E-02  0.9256E-01
     10.966  0.2156E-02  0.9281E-01
     11.084  0.2208E-02  0.9306E-01
     11.203  0.2309E-02  0.9333E-01
     11.321  0.2396E-02  0.9361E-01
     11.440  0.2456E-02  0.9390E-01
     11.559  0.2507E-02  0.9419E-01
     11.677  0.2577E-02  0.9449E-01
     11.796  0.2650E-02  0.9480E-01
     11.914  0.2755E-02  0.9512E-01
     12.033  0.2762E-02  0.9545E-01
     12.151  0.2541E-02  0.9577E-01
     12.270  0.2246E-02  0.9605E-01
     12.388  0.2161E-02  0.9631E-01
     12.507  0.2041E-02  0.9656E-01
     12.625  0.2401E-02  0.9682E-01
     12.744  0.2936E-02  0.9713E-01
     12.863  0.3564E-02  0.9752E-01
     12.981  0.4626E-02  0.9800E-01
     13.100  0.6074E-02  0.9863E-01
     13.218  0.7354E-02  0.9943E-01
     13.337  0.8417E-02  0.1004E+00
     13.455  0.9476E-02  0.1015E+00
     13.574  0.9778E-02  0.1026E+00
     13.692  0.9933E-02  0.1038E+00
     13.811  0.1874E-01  0.1052E+00
     13.929  0.1252E-01  0.1068E+00
     14.048  0.1017E-01  0.1082E+00
     14.166  0.7853E-02  0.1092E+00
     14.285  0.6314E-02  0.1101E+00
     14.404  0.6380E-02  0.1108E+00
     14.522  0.6639E-02  0.1116E+00
     14.641  0.6304E-02  0.1124E+00
     14.759  0.5346E-02  0.1131E+00
     14.878  0.4553E-02  0.1136E+00
     14.996  0.3823E-02  0.1141E+00
     15.115  0.3325E-02  0.1146E+00
     15.233  0.3203E-02  0.1149E+00
     15.352  0.3996E-02  0.1153E+00
     15.470  0.4064E-02  0.1159E+00
     15.589  0.3556E-02  0.1163E+00
     15.708  0.3646E-02  0.1167E+00
     15.826  0.4070E-02  0.1172E+00
     15.945  0.4583E-02  0.1177E+00
     16.063  0.3663E-02  0.1182E+00
     16.182  0.2740E-02  0.1186E+00
     16.300  0.2119E-02  0.1189E+00
     16.419  0.1797E-02  0.1191E+00
     16.537  0.1545E-02  0.1193E+00
     16.656  0.1357E-02  0.1195E+00
     16.774  0.1280E-02  0.1196E+00
     16.893  0.1139E-02  0.1198E+00
     17.011  0.7554E-03  0.1199E+00
     17.130  0.5118E-03  0.1200E+00
     17.249  0.9408E-04  0.1200E+00
     17.367  0.0000E+00  0.1200E+00
     17.486  0.0000E+00  0.1200E+00
     17.604  0.0000E+00  0.1200E+00
     17.723  0.0000E+00  0.1200E+00
     17.841  0.0000E+00  0.1200E+00
     17.960  0.0000E+00  0.1200E+00
     18.078  0.0000E+00  0.1200E+00
     18.197  0.0000E+00  0.1200E+00
     18.315  0.0000E+00  0.1200E+00
     18.434  0.0000E+00  0.1200E+00
     18.552  0.0000E+00  0.1200E+00
     18.671  0.0000E+00  0.1200E+00
     18.790  0.0000E+00  0.1200E+00
     18.908  0.0000E+00  0.1200E+00
     19.027  0.0000E+00  0.1200E+00
     19.145  0.0000E+00  0.1200E+00
     19.264  0.0000E+00  0.1200E+00
