# Thermal properties / unit cell (natom)

unit:
  temperature:   K
  free_energy:   kJ/mol
  entropy:       J/K/mol
  heat_capacity: J/K/mol

natom:     4
num_modes: 3888
num_integrated_modes: 3870

zero_point_energy:      66.3408803
high_T_entropy:        228.1234773

thermal_properties:
- temperature:         0.0000000
  free_energy:        66.3408803
  entropy:             0.0000000
  heat_capacity:       0.0000000
  energy:             66.3408803

- temperature:        10.0000000
  free_energy:        66.3408785
  entropy:             0.0012668
  heat_capacity:       0.0064512
  energy:             66.3408911

- temperature:        20.0000000
  free_energy:        66.3408013
  entropy:             0.0171421
  heat_capacity:       0.0487690
  energy:             66.3411441

- temperature:        30.0000000
  free_energy:        66.3404775
  entropy:             0.0510948
  heat_capacity:       0.1365035
  energy:             66.3420104

- temperature:        40.0000000
  free_energy:        66.3396864
  entropy:             0.1129755
  heat_capacity:       0.3221939
  energy:             66.3442055

- temperature:        50.0000000
  free_energy:        66.3380809
  entropy:             0.2157896
  heat_capacity:       0.6320012
  energy:             66.3488704

- temperature:        60.0000000
  free_energy:        66.3352064
  entropy:             0.3677660
  heat_capacity:       1.0699831
  energy:             66.3572724

- temperature:        70.0000000
  free_energy:        66.3305453
  entropy:             0.5737873
  heat_capacity:       1.6401390
  energy:             66.3707104

- temperature:        80.0000000
  free_energy:        66.3235385
  entropy:             0.8374467
  heat_capacity:       2.3478872
  energy:             66.3905342

- temperature:        90.0000000
  free_energy:        66.3135948
  entropy:             1.1615570
  heat_capacity:       3.1954606
  energy:             66.4181349

- temperature:       100.0000000
  free_energy:        66.3000994
  entropy:             1.5479968
  heat_capacity:       4.1795572
  energy:             66.4548991

- temperature:       110.0000000
  free_energy:        66.2824244
  entropy:             1.9975249
  heat_capacity:       5.2913370
  energy:             66.5021521

- temperature:       120.0000000
  free_energy:        66.2599399
  entropy:             2.5097318
  heat_capacity:       6.5175773
  energy:             66.5611077

- temperature:       130.0000000
  free_energy:        66.2320257
  entropy:             3.0831244
  heat_capacity:       7.8422384
  energy:             66.6328319

- temperature:       140.0000000
  free_energy:        66.1980814
  entropy:             3.7152967
  heat_capacity:       9.2480392
  energy:             66.7182229

- temperature:       150.0000000
  free_energy:        66.1575341
  entropy:             4.4031442
  heat_capacity:      10.7178095
  energy:             66.8180058

- temperature:       160.0000000
  free_energy:        66.1098448
  entropy:             5.1430865
  heat_capacity:      12.2355047
  energy:             66.9327387

- temperature:       170.0000000
  free_energy:        66.0545116
  entropy:             5.9312719
  heat_capacity:      13.7868514
  energy:             67.0628278

- temperature:       180.0000000
  free_energy:        65.9910717
  entropy:             6.7637514
  heat_capacity:      15.3596636
  energy:             67.2085470

- temperature:       190.0000000
  free_energy:        65.9191020
  entropy:             7.6366156
  heat_capacity:      16.9438955
  energy:             67.3700589

- temperature:       200.0000000
  free_energy:        65.8382174
  entropy:             8.5460929
  heat_capacity:      18.5315133
  energy:             67.5474360

- temperature:       210.0000000
  free_energy:        65.7480700
  entropy:             9.4886165
  heat_capacity:      20.1162593
  energy:             67.7406795

- temperature:       220.0000000
  free_energy:        65.6483460
  entropy:            10.4608616
  heat_capacity:      21.6933664
  energy:             67.9497356

- temperature:       230.0000000
  free_energy:        65.5387639
  entropy:            11.4597626
  heat_capacity:      23.2592668
  energy:             68.1745093

- temperature:       240.0000000
  free_energy:        65.4190713
  entropy:            12.4825141
  heat_capacity:      24.8113214
  energy:             68.4148747

- temperature:       250.0000000
  free_energy:        65.2890427
  entropy:            13.5265615
  heat_capacity:      26.3475851
  energy:             68.6706831

- temperature:       260.0000000
  free_energy:        65.1484769
  entropy:            14.5895848
  heat_capacity:      27.8666133
  energy:             68.9417689

- temperature:       270.0000000
  free_energy:        64.9971948
  entropy:            15.6694793
  heat_capacity:      29.3673094
  energy:             69.2279542

- temperature:       280.0000000
  free_energy:        64.8350374
  entropy:            16.7643346
  heat_capacity:      30.8488109
  energy:             69.5290511

- temperature:       290.0000000
  free_energy:        64.6618640
  entropy:            17.8724139
  heat_capacity:      32.3104065
  energy:             69.8448640

- temperature:       300.0000000
  free_energy:        64.4775504
  entropy:            18.9921349
  heat_capacity:      33.7514796
  energy:             70.1751908

- temperature:       310.0000000
  free_energy:        64.2819873
  entropy:            20.1220517
  heat_capacity:      35.1714725
  energy:             70.5198234

- temperature:       320.0000000
  free_energy:        64.0750798
  entropy:            21.2608391
  heat_capacity:      36.5698653
  energy:             70.8785483

- temperature:       330.0000000
  free_energy:        63.8567451
  entropy:            22.4072787
  heat_capacity:      37.9461656
  energy:             71.2511470

- temperature:       340.0000000
  free_energy:        63.6269124
  entropy:            23.5602469
  heat_capacity:      39.2999058
  energy:             71.6373964

- temperature:       350.0000000
  free_energy:        63.3855218
  entropy:            24.7187047
  heat_capacity:      40.6306450
  energy:             72.0370685

- temperature:       360.0000000
  free_energy:        63.1325233
  entropy:            25.8816888
  heat_capacity:      41.9379729
  energy:             72.4499312

- temperature:       370.0000000
  free_energy:        62.8678760
  entropy:            27.0483045
  heat_capacity:      43.2215151
  energy:             72.8757486

- temperature:       380.0000000
  free_energy:        62.5915478
  entropy:            28.2177192
  heat_capacity:      44.4809390
  energy:             73.3142811

- temperature:       390.0000000
  free_energy:        62.3035148
  entropy:            29.3891570
  heat_capacity:      45.7159580
  energy:             73.7652861

- temperature:       400.0000000
  free_energy:        62.0037604
  entropy:            30.5618944
  heat_capacity:      46.9263361
  energy:             74.2285182

- temperature:       410.0000000
  free_energy:        61.6922749
  entropy:            31.7352565
  heat_capacity:      48.1118899
  energy:             74.7037300

- temperature:       420.0000000
  free_energy:        61.3690553
  entropy:            32.9086131
  heat_capacity:      49.2724910
  energy:             75.1906728

- temperature:       430.0000000
  free_energy:        61.0341046
  entropy:            34.0813763
  heat_capacity:      50.4080660
  energy:             75.6890964

- temperature:       440.0000000
  free_energy:        60.6874316
  entropy:            35.2529978
  heat_capacity:      51.5185966
  energy:             76.1987506

- temperature:       450.0000000
  free_energy:        60.3290502
  entropy:            36.4229663
  heat_capacity:      52.6041174
  energy:             76.7193850

- temperature:       460.0000000
  free_energy:        59.9589793
  entropy:            37.5908055
  heat_capacity:      53.6647149
  energy:             77.2507499

- temperature:       470.0000000
  free_energy:        59.5772426
  entropy:            38.7560724
  heat_capacity:      54.7005239
  energy:             77.7925966

- temperature:       480.0000000
  free_energy:        59.1838678
  entropy:            39.9183552
  heat_capacity:      55.7117253
  energy:             78.3446783

- temperature:       490.0000000
  free_energy:        58.7788867
  entropy:            41.0772717
  heat_capacity:      56.6985421
  energy:             78.9067499

- temperature:       500.0000000
  free_energy:        58.3623348
  entropy:            42.2324679
  heat_capacity:      57.6612362
  energy:             79.4785687

- temperature:       510.0000000
  free_energy:        57.9342509
  entropy:            43.3836162
  heat_capacity:      58.6001047
  energy:             80.0598952

- temperature:       520.0000000
  free_energy:        57.4946770
  entropy:            44.5304145
  heat_capacity:      59.5154761
  energy:             80.6504925

- temperature:       530.0000000
  free_energy:        57.0436580
  entropy:            45.6725840
  heat_capacity:      60.4077068
  energy:             81.2501276

- temperature:       540.0000000
  free_energy:        56.5812416
  entropy:            46.8098689
  heat_capacity:      61.2771776
  energy:             81.8585708

- temperature:       550.0000000
  free_energy:        56.1074777
  entropy:            47.9420343
  heat_capacity:      62.1242903
  energy:             82.4755966

- temperature:       560.0000000
  free_energy:        55.6224187
  entropy:            49.0688657
  heat_capacity:      62.9494645
  energy:             83.1009835

- temperature:       570.0000000
  free_energy:        55.1261188
  entropy:            50.1901673
  heat_capacity:      63.7531345
  energy:             83.7345142

- temperature:       580.0000000
  free_energy:        54.6186344
  entropy:            51.3057613
  heat_capacity:      64.5357466
  energy:             84.3759759

- temperature:       590.0000000
  free_energy:        54.1000232
  entropy:            52.4154869
  heat_capacity:      65.2977564
  energy:             85.0251604

- temperature:       600.0000000
  free_energy:        53.5703447
  entropy:            53.5191988
  heat_capacity:      66.0396265
  energy:             85.6818639

- temperature:       610.0000000
  free_energy:        53.0296597
  entropy:            54.6167667
  heat_capacity:      66.7618242
  energy:             86.3458874

- temperature:       620.0000000
  free_energy:        52.4780302
  entropy:            55.7080745
  heat_capacity:      67.4648195
  energy:             87.0170364

- temperature:       630.0000000
  free_energy:        51.9155194
  entropy:            56.7930190
  heat_capacity:      68.1490834
  energy:             87.6951213

- temperature:       640.0000000
  free_energy:        51.3421913
  entropy:            57.8715092
  heat_capacity:      68.8150865
  energy:             88.3799572

- temperature:       650.0000000
  free_energy:        50.7581110
  entropy:            58.9434658
  heat_capacity:      69.4632968
  energy:             89.0713638

- temperature:       660.0000000
  free_energy:        50.1633440
  entropy:            60.0088202
  heat_capacity:      70.0941795
  energy:             89.7691654

- temperature:       670.0000000
  free_energy:        49.5579568
  entropy:            61.0675139
  heat_capacity:      70.7081949
  energy:             90.4731911

- temperature:       680.0000000
  free_energy:        48.9420161
  entropy:            62.1194977
  heat_capacity:      71.3057983
  energy:             91.1832746

- temperature:       690.0000000
  free_energy:        48.3155893
  entropy:            63.1647312
  heat_capacity:      71.8874384
  energy:             91.8992539

- temperature:       700.0000000
  free_energy:        47.6787441
  entropy:            64.2031821
  heat_capacity:      72.4535570
  energy:             92.6209716

- temperature:       710.0000000
  free_energy:        47.0315484
  entropy:            65.2348258
  heat_capacity:      73.0045884
  energy:             93.3482747

- temperature:       720.0000000
  free_energy:        46.3740703
  entropy:            66.2596447
  heat_capacity:      73.5409587
  energy:             94.0810145

- temperature:       730.0000000
  free_energy:        45.7063783
  entropy:            67.2776276
  heat_capacity:      74.0630855
  energy:             94.8190464

- temperature:       740.0000000
  free_energy:        45.0285406
  entropy:            68.2887696
  heat_capacity:      74.5713777
  energy:             95.5622301

- temperature:       750.0000000
  free_energy:        44.3406257
  entropy:            69.2930713
  heat_capacity:      75.0662349
  energy:             96.3104292

- temperature:       760.0000000
  free_energy:        43.6427020
  entropy:            70.2905386
  heat_capacity:      75.5480475
  energy:             97.0635113

- temperature:       770.0000000
  free_energy:        42.9348377
  entropy:            71.2811822
  heat_capacity:      76.0171962
  energy:             97.8213479

- temperature:       780.0000000
  free_energy:        42.2171010
  entropy:            72.2650170
  heat_capacity:      76.4740526
  energy:             98.5838143

- temperature:       790.0000000
  free_energy:        41.4895600
  entropy:            73.2420624
  heat_capacity:      76.9189783
  energy:             99.3507892

- temperature:       800.0000000
  free_energy:        40.7522823
  entropy:            74.2123412
  heat_capacity:      77.3523255
  energy:            100.1221553

- temperature:       810.0000000
  free_energy:        40.0053356
  entropy:            75.1758799
  heat_capacity:      77.7744368
  energy:            100.8977983

- temperature:       820.0000000
  free_energy:        39.2487871
  entropy:            76.1327080
  heat_capacity:      78.1856454
  energy:            101.6776076

- temperature:       830.0000000
  free_energy:        38.4827037
  entropy:            77.0828581
  heat_capacity:      78.5862750
  energy:            102.4614759

- temperature:       840.0000000
  free_energy:        37.7071521
  entropy:            78.0263653
  heat_capacity:      78.9766401
  energy:            103.2492989

- temperature:       850.0000000
  free_energy:        36.9221984
  entropy:            78.9632672
  heat_capacity:      79.3570459
  energy:            104.0409755

- temperature:       860.0000000
  free_energy:        36.1279086
  entropy:            79.8936035
  heat_capacity:      79.7277887
  energy:            104.8364076

- temperature:       870.0000000
  free_energy:        35.3243481
  entropy:            80.8174161
  heat_capacity:      80.0891560
  energy:            105.6355001

- temperature:       880.0000000
  free_energy:        34.5115819
  entropy:            81.7347484
  heat_capacity:      80.4414266
  energy:            106.4381604

- temperature:       890.0000000
  free_energy:        33.6896746
  entropy:            82.6456456
  heat_capacity:      80.7848707
  energy:            107.2442992

- temperature:       900.0000000
  free_energy:        32.8586903
  entropy:            83.5501545
  heat_capacity:      81.1197502
  energy:            108.0538293

- temperature:       910.0000000
  free_energy:        32.0186926
  entropy:            84.4483229
  heat_capacity:      81.4463192
  energy:            108.8666665

- temperature:       920.0000000
  free_energy:        31.1697448
  entropy:            85.3402000
  heat_capacity:      81.7648235
  energy:            109.6827288

- temperature:       930.0000000
  free_energy:        30.3119094
  entropy:            86.2258359
  heat_capacity:      82.0755015
  energy:            110.5019369

- temperature:       940.0000000
  free_energy:        29.4452487
  entropy:            87.1052817
  heat_capacity:      82.3785839
  energy:            111.3242135

- temperature:       950.0000000
  free_energy:        28.5698243
  entropy:            87.9785892
  heat_capacity:      82.6742942
  energy:            112.1494840

- temperature:       960.0000000
  free_energy:        27.6856972
  entropy:            88.8458108
  heat_capacity:      82.9628488
  energy:            112.9776756

- temperature:       970.0000000
  free_energy:        26.7929281
  entropy:            89.7069996
  heat_capacity:      83.2444573
  energy:            113.8087178

- temperature:       980.0000000
  free_energy:        25.8915771
  entropy:            90.5622093
  heat_capacity:      83.5193224
  energy:            114.6425422

- temperature:       990.0000000
  free_energy:        24.9817037
  entropy:            91.4114936
  heat_capacity:      83.7876404
  energy:            115.4790824

- temperature:      1000.0000000
  free_energy:        24.0633668
  entropy:            92.2549070
  heat_capacity:      84.0496016
  energy:            116.3182738
