  32  32   0   0
  0.5317807E+01  0.4934311E-09  0.4934311E-09  0.8070891E-09  0.5000000E-15
  1.000000000000000E-004
  CAR 
 graphite                                
     22.29008716    -13.76489494  301     11.68469081      1.00000000
    -13.765  0.0000E+00  0.0000E+00
    -13.645  0.0000E+00  0.0000E+00
    -13.525  0.0000E+00  0.0000E+00
    -13.404  0.0000E+00  0.0000E+00
    -13.284  0.0000E+00  0.0000E+00
    -13.164  0.0000E+00  0.0000E+00
    -13.044  0.0000E+00  0.0000E+00
    -12.924  0.0000E+00  0.0000E+00
    -12.803  0.0000E+00  0.0000E+00
    -12.683  0.0000E+00  0.0000E+00
    -12.563  0.0000E+00  0.0000E+00
    -12.443  0.0000E+00  0.0000E+00
    -12.323  0.0000E+00  0.0000E+00
    -12.203  0.0000E+00  0.0000E+00
    -12.082  0.0000E+00  0.0000E+00
    -11.962  0.0000E+00  0.0000E+00
    -11.842  0.0000E+00  0.0000E+00
    -11.722  0.9942E-01  0.1429E-02
    -11.602  0.6276E+00  0.5095E-01
    -11.481  0.8561E+00  0.1385E+00
    -11.361  0.1022E+01  0.2511E+00
    -11.241  0.1203E+01  0.3864E+00
    -11.121  0.1328E+01  0.5398E+00
    -11.001  0.1441E+01  0.7057E+00
    -10.880  0.1584E+01  0.8873E+00
    -10.760  0.1717E+01  0.1086E+01
    -10.640  0.1801E+01  0.1298E+01
    -10.520  0.1898E+01  0.1520E+01
    -10.400  0.2126E+01  0.1763E+01
    -10.280  0.2208E+01  0.2021E+01
    -10.159  0.2421E+01  0.2309E+01
    -10.039  0.2314E+01  0.2584E+01
     -9.919  0.2643E+01  0.2882E+01
     -9.799  0.2829E+01  0.3217E+01
     -9.679  0.2138E+01  0.3516E+01
     -9.558  0.2696E+01  0.3809E+01
     -9.438  0.1944E+01  0.4074E+01
     -9.318  0.2221E+01  0.4321E+01
     -9.198  0.3246E+01  0.4655E+01
     -9.078  0.3024E+01  0.5022E+01
     -8.958  0.3105E+01  0.5389E+01
     -8.837  0.3214E+01  0.5770E+01
     -8.717  0.3489E+01  0.6175E+01
     -8.597  0.4120E+01  0.6624E+01
     -8.477  0.3462E+01  0.7078E+01
     -8.357  0.2883E+01  0.7465E+01
     -8.236  0.2625E+01  0.7783E+01
     -8.116  0.2744E+01  0.8104E+01
     -7.996  0.3458E+01  0.8472E+01
     -7.876  0.4093E+01  0.8928E+01
     -7.756  0.3970E+01  0.9404E+01
     -7.636  0.3807E+01  0.9874E+01
     -7.515  0.3754E+01  0.1033E+02
     -7.395  0.3809E+01  0.1078E+02
     -7.275  0.3722E+01  0.1123E+02
     -7.155  0.4012E+01  0.1169E+02
     -7.035  0.5003E+01  0.1223E+02
     -6.914  0.5568E+01  0.1288E+02
     -6.794  0.5285E+01  0.1355E+02
     -6.674  0.4709E+01  0.1415E+02
     -6.554  0.4169E+01  0.1468E+02
     -6.434  0.4175E+01  0.1518E+02
     -6.314  0.4154E+01  0.1568E+02
     -6.193  0.4787E+01  0.1621E+02
     -6.073  0.4597E+01  0.1676E+02
     -5.953  0.5519E+01  0.1736E+02
     -5.833  0.6323E+01  0.1809E+02
     -5.713  0.5618E+01  0.1881E+02
     -5.592  0.5358E+01  0.1947E+02
     -5.472  0.4947E+01  0.2009E+02
     -5.352  0.4886E+01  0.2069E+02
     -5.232  0.5040E+01  0.2129E+02
     -5.112  0.4266E+01  0.2185E+02
     -4.992  0.3681E+01  0.2236E+02
     -4.871  0.3803E+01  0.2281E+02
     -4.751  0.4604E+01  0.2330E+02
     -4.631  0.5926E+01  0.2394E+02
     -4.511  0.6229E+01  0.2468E+02
     -4.391  0.5705E+01  0.2540E+02
     -4.270  0.5494E+01  0.2605E+02
     -4.150  0.5520E+01  0.2673E+02
     -4.030  0.5352E+01  0.2738E+02
     -3.910  0.4649E+01  0.2800E+02
     -3.790  0.4208E+01  0.2853E+02
     -3.669  0.3920E+01  0.2902E+02
     -3.549  0.4571E+01  0.2951E+02
     -3.429  0.5119E+01  0.3008E+02
     -3.309  0.5033E+01  0.3069E+02
     -3.189  0.4969E+01  0.3129E+02
     -3.069  0.4608E+01  0.3189E+02
     -2.948  0.4036E+01  0.3241E+02
     -2.828  0.3496E+01  0.3284E+02
     -2.708  0.3926E+01  0.3329E+02
     -2.588  0.4559E+01  0.3379E+02
     -2.468  0.5926E+01  0.3441E+02
     -2.347  0.7349E+01  0.3524E+02
     -2.227  0.6802E+01  0.3610E+02
     -2.107  0.5783E+01  0.3686E+02
     -1.987  0.5356E+01  0.3753E+02
     -1.867  0.5437E+01  0.3817E+02
     -1.747  0.5031E+01  0.3881E+02
     -1.626  0.5473E+01  0.3944E+02
     -1.506  0.5598E+01  0.4011E+02
     -1.386  0.5634E+01  0.4078E+02
     -1.266  0.5880E+01  0.4147E+02
     -1.146  0.5948E+01  0.4221E+02
     -1.025  0.5114E+01  0.4284E+02
     -0.905  0.4879E+01  0.4344E+02
     -0.785  0.5131E+01  0.4404E+02
     -0.665  0.6689E+01  0.4477E+02
     -0.545  0.6382E+01  0.4555E+02
     -0.425  0.6026E+01  0.4630E+02
     -0.304  0.6110E+01  0.4704E+02
     -0.184  0.6467E+01  0.4779E+02
     -0.064  0.6798E+01  0.4860E+02
      0.056  0.6837E+01  0.4942E+02
      0.176  0.5728E+01  0.5016E+02
      0.297  0.6223E+01  0.5086E+02
      0.417  0.6132E+01  0.5165E+02
      0.537  0.6068E+01  0.5236E+02
      0.657  0.6512E+01  0.5317E+02
      0.777  0.6539E+01  0.5399E+02
      0.897  0.7502E+01  0.5482E+02
      1.018  0.7799E+01  0.5578E+02
      1.138  0.6370E+01  0.5662E+02
      1.258  0.7149E+01  0.5740E+02
      1.378  0.8436E+01  0.5829E+02
      1.498  0.9678E+01  0.5947E+02
      1.619  0.7107E+01  0.6051E+02
      1.739  0.6852E+01  0.6132E+02
      1.859  0.7167E+01  0.6224E+02
      1.979  0.6315E+01  0.6303E+02
      2.099  0.7422E+01  0.6385E+02
      2.219  0.8121E+01  0.6478E+02
      2.340  0.1194E+02  0.6594E+02
      2.460  0.8016E+01  0.6719E+02
      2.580  0.7742E+01  0.6813E+02
      2.700  0.8823E+01  0.6912E+02
      2.820  0.9546E+01  0.7020E+02
      2.941  0.1142E+02  0.7142E+02
      3.061  0.1009E+02  0.7270E+02
      3.181  0.1055E+02  0.7389E+02
      3.301  0.1078E+02  0.7527E+02
      3.421  0.8963E+01  0.7640E+02
      3.541  0.1072E+02  0.7760E+02
      3.662  0.1102E+02  0.7899E+02
      3.782  0.1024E+02  0.8020E+02
      3.902  0.1154E+02  0.8150E+02
      4.022  0.1027E+02  0.8280E+02
      4.142  0.1053E+02  0.8404E+02
      4.263  0.8878E+01  0.8523E+02
      4.383  0.8737E+01  0.8625E+02
      4.503  0.1160E+02  0.8749E+02
      4.623  0.1088E+02  0.8889E+02
      4.743  0.1041E+02  0.9012E+02
      4.864  0.1044E+02  0.9138E+02
      4.984  0.1140E+02  0.9270E+02
      5.104  0.1057E+02  0.9402E+02
      5.224  0.8537E+01  0.9518E+02
      5.344  0.7957E+01  0.9616E+02
      5.464  0.9028E+01  0.9717E+02
      5.585  0.8517E+01  0.9822E+02
      5.705  0.7721E+01  0.9921E+02
      5.825  0.6762E+01  0.1001E+03
      5.945  0.7708E+01  0.1009E+03
      6.065  0.8238E+01  0.1019E+03
      6.186  0.7565E+01  0.1029E+03
      6.306  0.6983E+01  0.1037E+03
      6.426  0.6814E+01  0.1046E+03
      6.546  0.6268E+01  0.1053E+03
      6.666  0.5935E+01  0.1061E+03
      6.786  0.5535E+01  0.1068E+03
      6.907  0.5168E+01  0.1074E+03
      7.027  0.4905E+01  0.1080E+03
      7.147  0.4688E+01  0.1086E+03
      7.267  0.4611E+01  0.1092E+03
      7.387  0.4216E+01  0.1097E+03
      7.508  0.5307E+01  0.1103E+03
      7.628  0.4443E+01  0.1108E+03
      7.748  0.2983E+01  0.1113E+03
      7.868  0.3336E+01  0.1117E+03
      7.988  0.3113E+01  0.1121E+03
      8.108  0.3039E+01  0.1124E+03
      8.229  0.3122E+01  0.1128E+03
      8.349  0.3432E+01  0.1132E+03
      8.469  0.3643E+01  0.1136E+03
      8.589  0.3541E+01  0.1141E+03
      8.709  0.3455E+01  0.1145E+03
      8.830  0.3397E+01  0.1149E+03
      8.950  0.3686E+01  0.1153E+03
      9.070  0.3829E+01  0.1158E+03
      9.190  0.3914E+01  0.1162E+03
      9.310  0.3824E+01  0.1167E+03
      9.430  0.4912E+01  0.1172E+03
      9.551  0.5594E+01  0.1178E+03
      9.671  0.6097E+01  0.1185E+03
      9.791  0.6659E+01  0.1193E+03
      9.911  0.6314E+01  0.1201E+03
     10.031  0.6060E+01  0.1208E+03
     10.152  0.5409E+01  0.1215E+03
     10.272  0.4554E+01  0.1221E+03
     10.392  0.4105E+01  0.1226E+03
     10.512  0.3901E+01  0.1231E+03
     10.632  0.4019E+01  0.1236E+03
     10.752  0.5644E+01  0.1242E+03
     10.873  0.4865E+01  0.1249E+03
     10.993  0.2588E+01  0.1253E+03
     11.113  0.2935E+01  0.1256E+03
     11.233  0.3331E+01  0.1260E+03
     11.353  0.3529E+01  0.1264E+03
     11.474  0.4744E+01  0.1269E+03
     11.594  0.5330E+01  0.1275E+03
     11.714  0.5072E+01  0.1281E+03
     11.834  0.4652E+01  0.1288E+03
     11.954  0.3915E+01  0.1293E+03
     12.075  0.2872E+01  0.1297E+03
     12.195  0.2225E+01  0.1300E+03
     12.315  0.2477E+01  0.1303E+03
     12.435  0.2943E+01  0.1306E+03
     12.555  0.6191E+01  0.1311E+03
     12.675  0.6865E+01  0.1320E+03
     12.796  0.5834E+01  0.1327E+03
     12.916  0.5649E+01  0.1334E+03
     13.036  0.4834E+01  0.1340E+03
     13.156  0.4567E+01  0.1346E+03
     13.276  0.5244E+01  0.1352E+03
     13.397  0.5771E+01  0.1359E+03
     13.517  0.6098E+01  0.1366E+03
     13.637  0.5996E+01  0.1373E+03
     13.757  0.4080E+01  0.1379E+03
     13.877  0.5013E+01  0.1384E+03
     13.997  0.4537E+01  0.1391E+03
     14.118  0.4233E+01  0.1396E+03
     14.238  0.4587E+01  0.1401E+03
     14.358  0.4547E+01  0.1407E+03
     14.478  0.5250E+01  0.1412E+03
     14.598  0.4703E+01  0.1419E+03
     14.719  0.3828E+01  0.1424E+03
     14.839  0.4182E+01  0.1428E+03
     14.959  0.5049E+01  0.1434E+03
     15.079  0.5772E+01  0.1440E+03
     15.199  0.5273E+01  0.1447E+03
     15.319  0.4853E+01  0.1453E+03
     15.440  0.4875E+01  0.1459E+03
     15.560  0.5563E+01  0.1465E+03
     15.680  0.6380E+01  0.1472E+03
     15.800  0.4575E+01  0.1479E+03
     15.920  0.4305E+01  0.1484E+03
     16.041  0.4356E+01  0.1489E+03
     16.161  0.4744E+01  0.1495E+03
     16.281  0.5005E+01  0.1500E+03
     16.401  0.4669E+01  0.1506E+03
     16.521  0.5001E+01  0.1512E+03
     16.641  0.4888E+01  0.1518E+03
     16.762  0.4828E+01  0.1524E+03
     16.882  0.5012E+01  0.1530E+03
     17.002  0.5717E+01  0.1536E+03
     17.122  0.7786E+01  0.1544E+03
     17.242  0.6533E+01  0.1553E+03
     17.363  0.5773E+01  0.1561E+03
     17.483  0.7083E+01  0.1568E+03
     17.603  0.8552E+01  0.1578E+03
     17.723  0.8456E+01  0.1588E+03
     17.843  0.8132E+01  0.1598E+03
     17.963  0.7981E+01  0.1608E+03
     18.084  0.6161E+01  0.1617E+03
     18.204  0.5059E+01  0.1623E+03
     18.324  0.4242E+01  0.1629E+03
     18.444  0.3948E+01  0.1634E+03
     18.564  0.3866E+01  0.1638E+03
     18.685  0.3830E+01  0.1643E+03
     18.805  0.4189E+01  0.1648E+03
     18.925  0.4812E+01  0.1653E+03
     19.045  0.4859E+01  0.1659E+03
     19.165  0.3877E+01  0.1664E+03
     19.286  0.3113E+01  0.1668E+03
     19.406  0.2390E+01  0.1672E+03
     19.526  0.2055E+01  0.1674E+03
     19.646  0.1498E+01  0.1676E+03
     19.766  0.1072E+01  0.1678E+03
     19.886  0.7122E+00  0.1679E+03
     20.007  0.3024E+00  0.1680E+03
     20.127  0.1591E+00  0.1680E+03
     20.247  0.4345E-01  0.1680E+03
     20.367  0.0000E+00  0.1680E+03
     20.487  0.0000E+00  0.1680E+03
     20.608  0.0000E+00  0.1680E+03
     20.728  0.0000E+00  0.1680E+03
     20.848  0.0000E+00  0.1680E+03
     20.968  0.0000E+00  0.1680E+03
     21.088  0.0000E+00  0.1680E+03
     21.208  0.0000E+00  0.1680E+03
     21.329  0.0000E+00  0.1680E+03
     21.449  0.0000E+00  0.1680E+03
     21.569  0.0000E+00  0.1680E+03
     21.689  0.0000E+00  0.1680E+03
     21.809  0.0000E+00  0.1680E+03
     21.930  0.0000E+00  0.1680E+03
     22.050  0.0000E+00  0.1680E+03
     22.170  0.0000E+00  0.1680E+03
     22.290  0.0000E+00  0.1680E+03
