  80  80   0   0
  0.9612539E+01  0.1162932E-08  0.8134336E-09  0.8129271E-09  0.5000000E-15
  1.000000000000000E-004
  CAR 
 diamond                                 
      8.87170587    -16.74485372  301     -6.04994009      1.00000000
    -16.745  0.0000E+00  0.0000E+00
    -16.659  0.0000E+00  0.0000E+00
    -16.574  0.0000E+00  0.0000E+00
    -16.489  0.0000E+00  0.0000E+00
    -16.403  0.0000E+00  0.0000E+00
    -16.318  0.0000E+00  0.0000E+00
    -16.233  0.0000E+00  0.0000E+00
    -16.147  0.0000E+00  0.0000E+00
    -16.062  0.0000E+00  0.0000E+00
    -15.976  0.0000E+00  0.0000E+00
    -15.891  0.0000E+00  0.0000E+00
    -15.806  0.0000E+00  0.0000E+00
    -15.720  0.0000E+00  0.0000E+00
    -15.635  0.0000E+00  0.0000E+00
    -15.549  0.0000E+00  0.0000E+00
    -15.464  0.0000E+00  0.0000E+00
    -15.379  0.0000E+00  0.0000E+00
    -15.293  0.0000E+00  0.0000E+00
    -15.208  0.0000E+00  0.0000E+00
    -15.122  0.0000E+00  0.0000E+00
    -15.037  0.0000E+00  0.0000E+00
    -14.952  0.0000E+00  0.0000E+00
    -14.866  0.0000E+00  0.0000E+00
    -14.781  0.0000E+00  0.0000E+00
    -14.696  0.4301E-01  0.8828E-03
    -14.610  0.9598E-01  0.6396E-02
    -14.525  0.1324E+00  0.1816E-01
    -14.439  0.2196E+00  0.3499E-01
    -14.354  0.3264E+00  0.5649E-01
    -14.269  0.3534E+00  0.8740E-01
    -14.183  0.3438E+00  0.1219E+00
    -14.098  0.2646E+00  0.1508E+00
    -14.012  0.0000E+00  0.1600E+00
    -13.927  0.0000E+00  0.1600E+00
    -13.842  0.0000E+00  0.1600E+00
    -13.756  0.0000E+00  0.1600E+00
    -13.671  0.0000E+00  0.1600E+00
    -13.585  0.0000E+00  0.1600E+00
    -13.500  0.0000E+00  0.1600E+00
    -13.415  0.0000E+00  0.1600E+00
    -13.329  0.0000E+00  0.1600E+00
    -13.244  0.0000E+00  0.1600E+00
    -13.159  0.0000E+00  0.1600E+00
    -13.073  0.0000E+00  0.1600E+00
    -12.988  0.0000E+00  0.1600E+00
    -12.902  0.0000E+00  0.1600E+00
    -12.817  0.0000E+00  0.1600E+00
    -12.732  0.0000E+00  0.1600E+00
    -12.646  0.0000E+00  0.1600E+00
    -12.561  0.0000E+00  0.1600E+00
    -12.475  0.0000E+00  0.1600E+00
    -12.390  0.0000E+00  0.1600E+00
    -12.305  0.0000E+00  0.1600E+00
    -12.219  0.0000E+00  0.1600E+00
    -12.134  0.0000E+00  0.1600E+00
    -12.048  0.0000E+00  0.1600E+00
    -11.963  0.0000E+00  0.1600E+00
    -11.878  0.0000E+00  0.1600E+00
    -11.792  0.0000E+00  0.1600E+00
    -11.707  0.0000E+00  0.1600E+00
    -11.622  0.0000E+00  0.1600E+00
    -11.536  0.0000E+00  0.1600E+00
    -11.451  0.0000E+00  0.1600E+00
    -11.365  0.0000E+00  0.1600E+00
    -11.280  0.0000E+00  0.1600E+00
    -11.195  0.0000E+00  0.1600E+00
    -11.109  0.0000E+00  0.1600E+00
    -11.024  0.0000E+00  0.1600E+00
    -10.938  0.0000E+00  0.1600E+00
    -10.853  0.0000E+00  0.1600E+00
    -10.768  0.0000E+00  0.1600E+00
    -10.682  0.0000E+00  0.1600E+00
    -10.597  0.0000E+00  0.1600E+00
    -10.511  0.0000E+00  0.1600E+00
    -10.426  0.0000E+00  0.1600E+00
    -10.341  0.0000E+00  0.1600E+00
    -10.255  0.0000E+00  0.1600E+00
    -10.170  0.0000E+00  0.1600E+00
    -10.085  0.0000E+00  0.1600E+00
     -9.999  0.0000E+00  0.1600E+00
     -9.914  0.0000E+00  0.1600E+00
     -9.828  0.0000E+00  0.1600E+00
     -9.743  0.0000E+00  0.1600E+00
     -9.658  0.0000E+00  0.1600E+00
     -9.572  0.0000E+00  0.1600E+00
     -9.487  0.0000E+00  0.1600E+00
     -9.401  0.0000E+00  0.1600E+00
     -9.316  0.0000E+00  0.1600E+00
     -9.231  0.0000E+00  0.1600E+00
     -9.145  0.0000E+00  0.1600E+00
     -9.060  0.0000E+00  0.1600E+00
     -8.974  0.0000E+00  0.1600E+00
     -8.889  0.0000E+00  0.1600E+00
     -8.804  0.0000E+00  0.1600E+00
     -8.718  0.0000E+00  0.1600E+00
     -8.633  0.0000E+00  0.1600E+00
     -8.548  0.0000E+00  0.1600E+00
     -8.462  0.0000E+00  0.1600E+00
     -8.377  0.0000E+00  0.1600E+00
     -8.291  0.0000E+00  0.1600E+00
     -8.206  0.0000E+00  0.1600E+00
     -8.121  0.0000E+00  0.1600E+00
     -8.035  0.0000E+00  0.1600E+00
     -7.950  0.0000E+00  0.1600E+00
     -7.864  0.0000E+00  0.1600E+00
     -7.779  0.0000E+00  0.1600E+00
     -7.694  0.0000E+00  0.1600E+00
     -7.608  0.0000E+00  0.1600E+00
     -7.523  0.4847E-02  0.1600E+00
     -7.438  0.1385E+00  0.1657E+00
     -7.352  0.2760E+00  0.1840E+00
     -7.267  0.2593E+00  0.2091E+00
     -7.181  0.2985E+00  0.2313E+00
     -7.096  0.2421E+00  0.2550E+00
     -7.011  0.1710E+00  0.2831E+00
     -6.925  0.3382E+00  0.3057E+00
     -6.840  0.3725E+00  0.3297E+00
     -6.754  0.2542E+00  0.3541E+00
     -6.669  0.4796E+00  0.3914E+00
     -6.584  0.2904E+00  0.4209E+00
     -6.498  0.5456E+00  0.4554E+00
     -6.413  0.5775E+00  0.5010E+00
     -6.327  0.5494E+00  0.5526E+00
     -6.242  0.2376E+00  0.5998E+00
     -6.157  0.5601E+00  0.6308E+00
     -6.071  0.7446E-03  0.6400E+00
     -5.986  0.0000E+00  0.6400E+00
     -5.901  0.0000E+00  0.6400E+00
     -5.815  0.0000E+00  0.6400E+00
     -5.730  0.0000E+00  0.6400E+00
     -5.644  0.0000E+00  0.6400E+00
     -5.559  0.0000E+00  0.6400E+00
     -5.474  0.0000E+00  0.6400E+00
     -5.388  0.0000E+00  0.6400E+00
     -5.303  0.0000E+00  0.6400E+00
     -5.217  0.0000E+00  0.6400E+00
     -5.132  0.0000E+00  0.6400E+00
     -5.047  0.0000E+00  0.6400E+00
     -4.961  0.0000E+00  0.6400E+00
     -4.876  0.0000E+00  0.6400E+00
     -4.790  0.0000E+00  0.6400E+00
     -4.705  0.0000E+00  0.6400E+00
     -4.620  0.0000E+00  0.6400E+00
     -4.534  0.0000E+00  0.6400E+00
     -4.449  0.0000E+00  0.6400E+00
     -4.364  0.0000E+00  0.6400E+00
     -4.278  0.0000E+00  0.6400E+00
     -4.193  0.0000E+00  0.6400E+00
     -4.107  0.0000E+00  0.6400E+00
     -4.022  0.0000E+00  0.6400E+00
     -3.937  0.0000E+00  0.6400E+00
     -3.851  0.0000E+00  0.6400E+00
     -3.766  0.0000E+00  0.6400E+00
     -3.680  0.0000E+00  0.6400E+00
     -3.595  0.0000E+00  0.6400E+00
     -3.510  0.0000E+00  0.6400E+00
     -3.424  0.0000E+00  0.6400E+00
     -3.339  0.0000E+00  0.6400E+00
     -3.253  0.0000E+00  0.6400E+00
     -3.168  0.0000E+00  0.6400E+00
     -3.083  0.0000E+00  0.6400E+00
     -2.997  0.0000E+00  0.6400E+00
     -2.912  0.0000E+00  0.6400E+00
     -2.827  0.0000E+00  0.6400E+00
     -2.741  0.0000E+00  0.6400E+00
     -2.656  0.0000E+00  0.6400E+00
     -2.570  0.0000E+00  0.6400E+00
     -2.485  0.0000E+00  0.6400E+00
     -2.400  0.0000E+00  0.6400E+00
     -2.314  0.0000E+00  0.6400E+00
     -2.229  0.0000E+00  0.6400E+00
     -2.143  0.0000E+00  0.6400E+00
     -2.058  0.0000E+00  0.6400E+00
     -1.973  0.0000E+00  0.6400E+00
     -1.887  0.0000E+00  0.6400E+00
     -1.802  0.0000E+00  0.6400E+00
     -1.716  0.0000E+00  0.6400E+00
     -1.631  0.0000E+00  0.6400E+00
     -1.546  0.0000E+00  0.6400E+00
     -1.460  0.0000E+00  0.6400E+00
     -1.375  0.0000E+00  0.6400E+00
     -1.290  0.0000E+00  0.6400E+00
     -1.204  0.0000E+00  0.6400E+00
     -1.119  0.0000E+00  0.6400E+00
     -1.033  0.0000E+00  0.6400E+00
     -0.948  0.0000E+00  0.6400E+00
     -0.863  0.0000E+00  0.6400E+00
     -0.777  0.0000E+00  0.6400E+00
     -0.692  0.0000E+00  0.6400E+00
     -0.606  0.0000E+00  0.6400E+00
     -0.521  0.0000E+00  0.6400E+00
     -0.436  0.0000E+00  0.6400E+00
     -0.350  0.0000E+00  0.6400E+00
     -0.265  0.0000E+00  0.6400E+00
     -0.179  0.0000E+00  0.6400E+00
     -0.094  0.0000E+00  0.6400E+00
     -0.009  0.0000E+00  0.6400E+00
      0.077  0.0000E+00  0.6400E+00
      0.162  0.0000E+00  0.6400E+00
      0.247  0.0000E+00  0.6400E+00
      0.333  0.0000E+00  0.6400E+00
      0.418  0.0000E+00  0.6400E+00
      0.504  0.0000E+00  0.6400E+00
      0.589  0.0000E+00  0.6400E+00
      0.674  0.0000E+00  0.6400E+00
      0.760  0.0000E+00  0.6400E+00
      0.845  0.0000E+00  0.6400E+00
      0.931  0.0000E+00  0.6400E+00
      1.016  0.0000E+00  0.6400E+00
      1.101  0.0000E+00  0.6400E+00
      1.187  0.0000E+00  0.6400E+00
      1.272  0.0000E+00  0.6400E+00
      1.358  0.0000E+00  0.6400E+00
      1.443  0.1033E-03  0.6400E+00
      1.528  0.1688E-02  0.6401E+00
      1.614  0.4473E-02  0.6403E+00
      1.699  0.7341E-02  0.6408E+00
      1.784  0.8780E-02  0.6415E+00
      1.870  0.9911E-02  0.6423E+00
      1.955  0.1129E-01  0.6432E+00
      2.041  0.1279E-01  0.6443E+00
      2.126  0.1499E-01  0.6454E+00
      2.211  0.1813E-01  0.6468E+00
      2.297  0.2244E-01  0.6486E+00
      2.382  0.2726E-01  0.6507E+00
      2.468  0.3055E-01  0.6532E+00
      2.553  0.2437E-01  0.6556E+00
      2.638  0.1929E-01  0.6574E+00
      2.724  0.1992E-01  0.6591E+00
      2.809  0.2189E-01  0.6608E+00
      2.895  0.3278E-01  0.6630E+00
      2.980  0.5556E-01  0.6668E+00
      3.065  0.6204E-01  0.6720E+00
      3.151  0.5580E-01  0.6772E+00
      3.236  0.2061E-01  0.6806E+00
      3.321  0.1351E+00  0.6864E+00
      3.407  0.1163E+00  0.6997E+00
      3.492  0.1501E+00  0.7106E+00
      3.578  0.6471E-01  0.7192E+00
      3.663  0.6700E-01  0.7244E+00
      3.748  0.1082E+00  0.7320E+00
      3.834  0.9185E-01  0.7403E+00
      3.919  0.1288E+00  0.7517E+00
      4.005  0.9507E-01  0.7600E+00
      4.090  0.8326E-01  0.7675E+00
      4.175  0.8004E-01  0.7743E+00
      4.261  0.1042E+00  0.7819E+00
      4.346  0.1827E+00  0.7940E+00
      4.432  0.5365E-01  0.8046E+00
      4.517  0.1067E+00  0.8117E+00
      4.602  0.8457E-01  0.8196E+00
      4.688  0.8561E-01  0.8262E+00
      4.773  0.1579E+00  0.8363E+00
      4.858  0.1483E+00  0.8498E+00
      4.944  0.1144E+00  0.8609E+00
      5.029  0.1163E+00  0.8705E+00
      5.115  0.1247E+00  0.8808E+00
      5.200  0.1314E+00  0.8914E+00
      5.285  0.1073E+00  0.9027E+00
      5.371  0.1256E+00  0.9125E+00
      5.456  0.1006E+00  0.9216E+00
      5.542  0.1518E+00  0.9331E+00
      5.627  0.1410E+00  0.9450E+00
      5.712  0.8671E-01  0.9546E+00
      5.798  0.4275E-01  0.9600E+00
      5.883  0.1138E+00  0.9670E+00
      5.968  0.1099E+00  0.9764E+00
      6.054  0.7882E-01  0.9844E+00
      6.139  0.9445E-01  0.9911E+00
      6.225  0.1364E+00  0.1002E+01
      6.310  0.1290E+00  0.1012E+01
      6.395  0.1379E+00  0.1024E+01
      6.481  0.7441E-01  0.1033E+01
      6.566  0.1120E+00  0.1043E+01
      6.652  0.1044E+00  0.1052E+01
      6.737  0.4483E-01  0.1058E+01
      6.822  0.4513E-02  0.1060E+01
      6.908  0.0000E+00  0.1060E+01
      6.993  0.0000E+00  0.1060E+01
      7.079  0.0000E+00  0.1060E+01
      7.164  0.0000E+00  0.1060E+01
      7.249  0.0000E+00  0.1060E+01
      7.335  0.0000E+00  0.1060E+01
      7.420  0.0000E+00  0.1060E+01
      7.505  0.0000E+00  0.1060E+01
      7.591  0.0000E+00  0.1060E+01
      7.676  0.0000E+00  0.1060E+01
      7.762  0.0000E+00  0.1060E+01
      7.847  0.0000E+00  0.1060E+01
      7.932  0.0000E+00  0.1060E+01
      8.018  0.0000E+00  0.1060E+01
      8.103  0.0000E+00  0.1060E+01
      8.189  0.0000E+00  0.1060E+01
      8.274  0.0000E+00  0.1060E+01
      8.359  0.0000E+00  0.1060E+01
      8.445  0.0000E+00  0.1060E+01
      8.530  0.0000E+00  0.1060E+01
      8.616  0.0000E+00  0.1060E+01
      8.701  0.0000E+00  0.1060E+01
      8.786  0.0000E+00  0.1060E+01
      8.872  0.0000E+00  0.1060E+01
