  80  80   0   0
  0.9612539E+01  0.1162932E-08  0.8134336E-09  0.8129271E-09  0.5000000E-15
  1.000000000000000E-004
  CAR 
 methane                                 
      8.86960760    -16.74437911  301     -6.05053966      1.00000000
    -16.744  0.0000E+00  0.0000E+00
    -16.659  0.0000E+00  0.0000E+00
    -16.574  0.0000E+00  0.0000E+00
    -16.488  0.0000E+00  0.0000E+00
    -16.403  0.0000E+00  0.0000E+00
    -16.317  0.0000E+00  0.0000E+00
    -16.232  0.0000E+00  0.0000E+00
    -16.147  0.0000E+00  0.0000E+00
    -16.061  0.0000E+00  0.0000E+00
    -15.976  0.0000E+00  0.0000E+00
    -15.891  0.0000E+00  0.0000E+00
    -15.805  0.0000E+00  0.0000E+00
    -15.720  0.0000E+00  0.0000E+00
    -15.634  0.0000E+00  0.0000E+00
    -15.549  0.0000E+00  0.0000E+00
    -15.464  0.0000E+00  0.0000E+00
    -15.378  0.0000E+00  0.0000E+00
    -15.293  0.0000E+00  0.0000E+00
    -15.208  0.0000E+00  0.0000E+00
    -15.122  0.0000E+00  0.0000E+00
    -15.037  0.0000E+00  0.0000E+00
    -14.951  0.0000E+00  0.0000E+00
    -14.866  0.0000E+00  0.0000E+00
    -14.781  0.0000E+00  0.0000E+00
    -14.695  0.4287E-01  0.8738E-03
    -14.610  0.9569E-01  0.6374E-02
    -14.525  0.1325E+00  0.1813E-01
    -14.439  0.2212E+00  0.3495E-01
    -14.354  0.3269E+00  0.5647E-01
    -14.268  0.3528E+00  0.8735E-01
    -14.183  0.3384E+00  0.1218E+00
    -14.098  0.2650E+00  0.1508E+00
    -14.012  0.0000E+00  0.1600E+00
    -13.927  0.0000E+00  0.1600E+00
    -13.841  0.0000E+00  0.1600E+00
    -13.756  0.0000E+00  0.1600E+00
    -13.671  0.0000E+00  0.1600E+00
    -13.585  0.0000E+00  0.1600E+00
    -13.500  0.0000E+00  0.1600E+00
    -13.415  0.0000E+00  0.1600E+00
    -13.329  0.0000E+00  0.1600E+00
    -13.244  0.0000E+00  0.1600E+00
    -13.158  0.0000E+00  0.1600E+00
    -13.073  0.0000E+00  0.1600E+00
    -12.988  0.0000E+00  0.1600E+00
    -12.902  0.0000E+00  0.1600E+00
    -12.817  0.0000E+00  0.1600E+00
    -12.732  0.0000E+00  0.1600E+00
    -12.646  0.0000E+00  0.1600E+00
    -12.561  0.0000E+00  0.1600E+00
    -12.475  0.0000E+00  0.1600E+00
    -12.390  0.0000E+00  0.1600E+00
    -12.305  0.0000E+00  0.1600E+00
    -12.219  0.0000E+00  0.1600E+00
    -12.134  0.0000E+00  0.1600E+00
    -12.048  0.0000E+00  0.1600E+00
    -11.963  0.0000E+00  0.1600E+00
    -11.878  0.0000E+00  0.1600E+00
    -11.792  0.0000E+00  0.1600E+00
    -11.707  0.0000E+00  0.1600E+00
    -11.622  0.0000E+00  0.1600E+00
    -11.536  0.0000E+00  0.1600E+00
    -11.451  0.0000E+00  0.1600E+00
    -11.365  0.0000E+00  0.1600E+00
    -11.280  0.0000E+00  0.1600E+00
    -11.195  0.0000E+00  0.1600E+00
    -11.109  0.0000E+00  0.1600E+00
    -11.024  0.0000E+00  0.1600E+00
    -10.939  0.0000E+00  0.1600E+00
    -10.853  0.0000E+00  0.1600E+00
    -10.768  0.0000E+00  0.1600E+00
    -10.682  0.0000E+00  0.1600E+00
    -10.597  0.0000E+00  0.1600E+00
    -10.512  0.0000E+00  0.1600E+00
    -10.426  0.0000E+00  0.1600E+00
    -10.341  0.0000E+00  0.1600E+00
    -10.256  0.0000E+00  0.1600E+00
    -10.170  0.0000E+00  0.1600E+00
    -10.085  0.0000E+00  0.1600E+00
     -9.999  0.0000E+00  0.1600E+00
     -9.914  0.0000E+00  0.1600E+00
     -9.829  0.0000E+00  0.1600E+00
     -9.743  0.0000E+00  0.1600E+00
     -9.658  0.0000E+00  0.1600E+00
     -9.572  0.0000E+00  0.1600E+00
     -9.487  0.0000E+00  0.1600E+00
     -9.402  0.0000E+00  0.1600E+00
     -9.316  0.0000E+00  0.1600E+00
     -9.231  0.0000E+00  0.1600E+00
     -9.146  0.0000E+00  0.1600E+00
     -9.060  0.0000E+00  0.1600E+00
     -8.975  0.0000E+00  0.1600E+00
     -8.889  0.0000E+00  0.1600E+00
     -8.804  0.0000E+00  0.1600E+00
     -8.719  0.0000E+00  0.1600E+00
     -8.633  0.0000E+00  0.1600E+00
     -8.548  0.0000E+00  0.1600E+00
     -8.463  0.0000E+00  0.1600E+00
     -8.377  0.0000E+00  0.1600E+00
     -8.292  0.0000E+00  0.1600E+00
     -8.206  0.0000E+00  0.1600E+00
     -8.121  0.0000E+00  0.1600E+00
     -8.036  0.0000E+00  0.1600E+00
     -7.950  0.0000E+00  0.1600E+00
     -7.865  0.0000E+00  0.1600E+00
     -7.779  0.0000E+00  0.1600E+00
     -7.694  0.0000E+00  0.1600E+00
     -7.609  0.0000E+00  0.1600E+00
     -7.523  0.1644E-02  0.1600E+00
     -7.438  0.1388E+00  0.1656E+00
     -7.353  0.2779E+00  0.1838E+00
     -7.267  0.2589E+00  0.2089E+00
     -7.182  0.2978E+00  0.2310E+00
     -7.096  0.2426E+00  0.2548E+00
     -7.011  0.1701E+00  0.2831E+00
     -6.926  0.3394E+00  0.3053E+00
     -6.840  0.3623E+00  0.3296E+00
     -6.755  0.2616E+00  0.3538E+00
     -6.670  0.5105E+00  0.3915E+00
     -6.584  0.2859E+00  0.4209E+00
     -6.499  0.5454E+00  0.4550E+00
     -6.413  0.5953E+00  0.5000E+00
     -6.328  0.5400E+00  0.5518E+00
     -6.243  0.2740E+00  0.5995E+00
     -6.157  0.5209E+00  0.6315E+00
     -6.072  0.7536E-03  0.6400E+00
     -5.987  0.0000E+00  0.6400E+00
     -5.901  0.0000E+00  0.6400E+00
     -5.816  0.0000E+00  0.6400E+00
     -5.730  0.0000E+00  0.6400E+00
     -5.645  0.0000E+00  0.6400E+00
     -5.560  0.0000E+00  0.6400E+00
     -5.474  0.0000E+00  0.6400E+00
     -5.389  0.0000E+00  0.6400E+00
     -5.303  0.0000E+00  0.6400E+00
     -5.218  0.0000E+00  0.6400E+00
     -5.133  0.0000E+00  0.6400E+00
     -5.047  0.0000E+00  0.6400E+00
     -4.962  0.0000E+00  0.6400E+00
     -4.877  0.0000E+00  0.6400E+00
     -4.791  0.0000E+00  0.6400E+00
     -4.706  0.0000E+00  0.6400E+00
     -4.620  0.0000E+00  0.6400E+00
     -4.535  0.0000E+00  0.6400E+00
     -4.450  0.0000E+00  0.6400E+00
     -4.364  0.0000E+00  0.6400E+00
     -4.279  0.0000E+00  0.6400E+00
     -4.194  0.0000E+00  0.6400E+00
     -4.108  0.0000E+00  0.6400E+00
     -4.023  0.0000E+00  0.6400E+00
     -3.937  0.0000E+00  0.6400E+00
     -3.852  0.0000E+00  0.6400E+00
     -3.767  0.0000E+00  0.6400E+00
     -3.681  0.0000E+00  0.6400E+00
     -3.596  0.0000E+00  0.6400E+00
     -3.510  0.0000E+00  0.6400E+00
     -3.425  0.0000E+00  0.6400E+00
     -3.340  0.0000E+00  0.6400E+00
     -3.254  0.0000E+00  0.6400E+00
     -3.169  0.0000E+00  0.6400E+00
     -3.084  0.0000E+00  0.6400E+00
     -2.998  0.0000E+00  0.6400E+00
     -2.913  0.0000E+00  0.6400E+00
     -2.827  0.0000E+00  0.6400E+00
     -2.742  0.0000E+00  0.6400E+00
     -2.657  0.0000E+00  0.6400E+00
     -2.571  0.0000E+00  0.6400E+00
     -2.486  0.0000E+00  0.6400E+00
     -2.401  0.0000E+00  0.6400E+00
     -2.315  0.0000E+00  0.6400E+00
     -2.230  0.0000E+00  0.6400E+00
     -2.144  0.0000E+00  0.6400E+00
     -2.059  0.0000E+00  0.6400E+00
     -1.974  0.0000E+00  0.6400E+00
     -1.888  0.0000E+00  0.6400E+00
     -1.803  0.0000E+00  0.6400E+00
     -1.718  0.0000E+00  0.6400E+00
     -1.632  0.0000E+00  0.6400E+00
     -1.547  0.0000E+00  0.6400E+00
     -1.461  0.0000E+00  0.6400E+00
     -1.376  0.0000E+00  0.6400E+00
     -1.291  0.0000E+00  0.6400E+00
     -1.205  0.0000E+00  0.6400E+00
     -1.120  0.0000E+00  0.6400E+00
     -1.034  0.0000E+00  0.6400E+00
     -0.949  0.0000E+00  0.6400E+00
     -0.864  0.0000E+00  0.6400E+00
     -0.778  0.0000E+00  0.6400E+00
     -0.693  0.0000E+00  0.6400E+00
     -0.608  0.0000E+00  0.6400E+00
     -0.522  0.0000E+00  0.6400E+00
     -0.437  0.0000E+00  0.6400E+00
     -0.351  0.0000E+00  0.6400E+00
     -0.266  0.0000E+00  0.6400E+00
     -0.181  0.0000E+00  0.6400E+00
     -0.095  0.0000E+00  0.6400E+00
     -0.010  0.0000E+00  0.6400E+00
      0.075  0.0000E+00  0.6400E+00
      0.161  0.0000E+00  0.6400E+00
      0.246  0.0000E+00  0.6400E+00
      0.332  0.0000E+00  0.6400E+00
      0.417  0.0000E+00  0.6400E+00
      0.502  0.0000E+00  0.6400E+00
      0.588  0.0000E+00  0.6400E+00
      0.673  0.0000E+00  0.6400E+00
      0.759  0.0000E+00  0.6400E+00
      0.844  0.0000E+00  0.6400E+00
      0.929  0.0000E+00  0.6400E+00
      1.015  0.0000E+00  0.6400E+00
      1.100  0.0000E+00  0.6400E+00
      1.185  0.0000E+00  0.6400E+00
      1.271  0.0000E+00  0.6400E+00
      1.356  0.0000E+00  0.6400E+00
      1.442  0.9639E-04  0.6400E+00
      1.527  0.1660E-02  0.6401E+00
      1.612  0.4434E-02  0.6403E+00
      1.698  0.7314E-02  0.6408E+00
      1.783  0.8763E-02  0.6415E+00
      1.868  0.9896E-02  0.6423E+00
      1.954  0.1127E-01  0.6432E+00
      2.039  0.1276E-01  0.6442E+00
      2.125  0.1496E-01  0.6454E+00
      2.210  0.1808E-01  0.6468E+00
      2.295  0.2237E-01  0.6485E+00
      2.381  0.2719E-01  0.6507E+00
      2.466  0.3055E-01  0.6532E+00
      2.551  0.2451E-01  0.6556E+00
      2.637  0.1933E-01  0.6574E+00
      2.722  0.1990E-01  0.6590E+00
      2.808  0.2185E-01  0.6608E+00
      2.893  0.3251E-01  0.6630E+00
      2.978  0.5527E-01  0.6667E+00
      3.064  0.6195E-01  0.6719E+00
      3.149  0.5566E-01  0.6771E+00
      3.235  0.2051E-01  0.6806E+00
      3.320  0.1430E+00  0.6862E+00
      3.405  0.1183E+00  0.6994E+00
      3.491  0.1518E+00  0.7104E+00
      3.576  0.6300E-01  0.7191E+00
      3.661  0.6599E-01  0.7243E+00
      3.747  0.1070E+00  0.7318E+00
      3.832  0.9125E-01  0.7401E+00
      3.918  0.1343E+00  0.7514E+00
      4.003  0.9518E-01  0.7598E+00
      4.088  0.8292E-01  0.7673E+00
      4.174  0.7999E-01  0.7741E+00
      4.259  0.1031E+00  0.7817E+00
      4.344  0.1813E+00  0.7937E+00
      4.430  0.5570E-01  0.8046E+00
      4.515  0.1065E+00  0.8115E+00
      4.601  0.8979E-01  0.8194E+00
      4.686  0.8593E-01  0.8261E+00
      4.771  0.1579E+00  0.8361E+00
      4.857  0.1483E+00  0.8496E+00
      4.942  0.1151E+00  0.8608E+00
      5.028  0.1158E+00  0.8704E+00
      5.113  0.1239E+00  0.8806E+00
      5.198  0.1310E+00  0.8912E+00
      5.284  0.1077E+00  0.9026E+00
      5.369  0.1266E+00  0.9123E+00
      5.454  0.1009E+00  0.9214E+00
      5.540  0.1543E+00  0.9329E+00
      5.625  0.1422E+00  0.9448E+00
      5.711  0.8743E-01  0.9545E+00
      5.796  0.4325E-01  0.9599E+00
      5.881  0.1138E+00  0.9669E+00
      5.967  0.1103E+00  0.9763E+00
      6.052  0.7866E-01  0.9843E+00
      6.137  0.9488E-01  0.9911E+00
      6.223  0.1364E+00  0.1001E+01
      6.308  0.1289E+00  0.1012E+01
      6.394  0.1380E+00  0.1024E+01
      6.479  0.7420E-01  0.1033E+01
      6.564  0.1116E+00  0.1043E+01
      6.650  0.1019E+00  0.1052E+01
      6.735  0.5058E-01  0.1058E+01
      6.820  0.6840E-02  0.1060E+01
      6.906  0.0000E+00  0.1060E+01
      6.991  0.0000E+00  0.1060E+01
      7.077  0.0000E+00  0.1060E+01
      7.162  0.0000E+00  0.1060E+01
      7.247  0.0000E+00  0.1060E+01
      7.333  0.0000E+00  0.1060E+01
      7.418  0.0000E+00  0.1060E+01
      7.504  0.0000E+00  0.1060E+01
      7.589  0.0000E+00  0.1060E+01
      7.674  0.0000E+00  0.1060E+01
      7.760  0.0000E+00  0.1060E+01
      7.845  0.0000E+00  0.1060E+01
      7.930  0.0000E+00  0.1060E+01
      8.016  0.0000E+00  0.1060E+01
      8.101  0.0000E+00  0.1060E+01
      8.187  0.0000E+00  0.1060E+01
      8.272  0.0000E+00  0.1060E+01
      8.357  0.0000E+00  0.1060E+01
      8.443  0.0000E+00  0.1060E+01
      8.528  0.0000E+00  0.1060E+01
      8.613  0.0000E+00  0.1060E+01
      8.699  0.0000E+00  0.1060E+01
      8.784  0.0000E+00  0.1060E+01
      8.870  0.0000E+00  0.1060E+01
