  72  72   0   0
  0.1068060E+02  0.1162932E-08  0.8134336E-09  0.8129271E-09  0.5000000E-15
  1.000000000000000E-004
  CAR 
 diamond                                 
      8.18758471    -16.67492293  301     -1.96460591      1.00000000
    -16.675  0.0000E+00  0.0000E+00
    -16.592  0.0000E+00  0.0000E+00
    -16.509  0.0000E+00  0.0000E+00
    -16.426  0.0000E+00  0.0000E+00
    -16.343  0.0000E+00  0.0000E+00
    -16.261  0.0000E+00  0.0000E+00
    -16.178  0.0000E+00  0.0000E+00
    -16.095  0.0000E+00  0.0000E+00
    -16.012  0.0000E+00  0.0000E+00
    -15.929  0.0000E+00  0.0000E+00
    -15.846  0.0000E+00  0.0000E+00
    -15.763  0.0000E+00  0.0000E+00
    -15.680  0.0000E+00  0.0000E+00
    -15.598  0.0000E+00  0.0000E+00
    -15.515  0.0000E+00  0.0000E+00
    -15.432  0.0000E+00  0.0000E+00
    -15.349  0.0000E+00  0.0000E+00
    -15.266  0.0000E+00  0.0000E+00
    -15.183  0.0000E+00  0.0000E+00
    -15.100  0.0000E+00  0.0000E+00
    -15.017  0.0000E+00  0.0000E+00
    -14.935  0.0000E+00  0.0000E+00
    -14.852  0.0000E+00  0.0000E+00
    -14.769  0.0000E+00  0.0000E+00
    -14.686  0.0000E+00  0.0000E+00
    -14.603  0.6878E-01  0.2545E-02
    -14.520  0.2645E+00  0.1423E-01
    -14.437  0.3813E+00  0.3232E-01
    -14.354  0.2553E+00  0.6046E-01
    -14.272  0.1224E+00  0.7934E-01
    -14.189  0.1081E-01  0.8004E-01
    -14.106  0.4471E+00  0.9115E-01
    -14.023  0.8389E+00  0.1367E+00
    -13.940  0.0000E+00  0.1600E+00
    -13.857  0.0000E+00  0.1600E+00
    -13.774  0.0000E+00  0.1600E+00
    -13.691  0.0000E+00  0.1600E+00
    -13.609  0.0000E+00  0.1600E+00
    -13.526  0.0000E+00  0.1600E+00
    -13.443  0.0000E+00  0.1600E+00
    -13.360  0.0000E+00  0.1600E+00
    -13.277  0.0000E+00  0.1600E+00
    -13.194  0.0000E+00  0.1600E+00
    -13.111  0.0000E+00  0.1600E+00
    -13.028  0.0000E+00  0.1600E+00
    -12.946  0.0000E+00  0.1600E+00
    -12.863  0.0000E+00  0.1600E+00
    -12.780  0.0000E+00  0.1600E+00
    -12.697  0.0000E+00  0.1600E+00
    -12.614  0.0000E+00  0.1600E+00
    -12.531  0.0000E+00  0.1600E+00
    -12.448  0.0000E+00  0.1600E+00
    -12.365  0.0000E+00  0.1600E+00
    -12.283  0.0000E+00  0.1600E+00
    -12.200  0.0000E+00  0.1600E+00
    -12.117  0.0000E+00  0.1600E+00
    -12.034  0.0000E+00  0.1600E+00
    -11.951  0.0000E+00  0.1600E+00
    -11.868  0.0000E+00  0.1600E+00
    -11.785  0.0000E+00  0.1600E+00
    -11.702  0.0000E+00  0.1600E+00
    -11.620  0.0000E+00  0.1600E+00
    -11.537  0.0000E+00  0.1600E+00
    -11.454  0.0000E+00  0.1600E+00
    -11.371  0.0000E+00  0.1600E+00
    -11.288  0.0000E+00  0.1600E+00
    -11.205  0.0000E+00  0.1600E+00
    -11.122  0.0000E+00  0.1600E+00
    -11.039  0.0000E+00  0.1600E+00
    -10.957  0.0000E+00  0.1600E+00
    -10.874  0.0000E+00  0.1600E+00
    -10.791  0.0000E+00  0.1600E+00
    -10.708  0.0000E+00  0.1600E+00
    -10.625  0.0000E+00  0.1600E+00
    -10.542  0.0000E+00  0.1600E+00
    -10.459  0.0000E+00  0.1600E+00
    -10.376  0.0000E+00  0.1600E+00
    -10.294  0.0000E+00  0.1600E+00
    -10.211  0.0000E+00  0.1600E+00
    -10.128  0.0000E+00  0.1600E+00
    -10.045  0.0000E+00  0.1600E+00
     -9.962  0.0000E+00  0.1600E+00
     -9.879  0.0000E+00  0.1600E+00
     -9.796  0.0000E+00  0.1600E+00
     -9.713  0.0000E+00  0.1600E+00
     -9.631  0.0000E+00  0.1600E+00
     -9.548  0.0000E+00  0.1600E+00
     -9.465  0.0000E+00  0.1600E+00
     -9.382  0.0000E+00  0.1600E+00
     -9.299  0.0000E+00  0.1600E+00
     -9.216  0.0000E+00  0.1600E+00
     -9.133  0.0000E+00  0.1600E+00
     -9.050  0.0000E+00  0.1600E+00
     -8.968  0.0000E+00  0.1600E+00
     -8.885  0.0000E+00  0.1600E+00
     -8.802  0.0000E+00  0.1600E+00
     -8.719  0.0000E+00  0.1600E+00
     -8.636  0.0000E+00  0.1600E+00
     -8.553  0.0000E+00  0.1600E+00
     -8.470  0.0000E+00  0.1600E+00
     -8.387  0.0000E+00  0.1600E+00
     -8.305  0.0000E+00  0.1600E+00
     -8.222  0.0000E+00  0.1600E+00
     -8.139  0.1460E-02  0.1600E+00
     -8.056  0.5425E-01  0.1620E+00
     -7.973  0.2635E+00  0.1743E+00
     -7.890  0.4388E+00  0.2027E+00
     -7.807  0.4306E+00  0.2356E+00
     -7.724  0.2970E+00  0.2635E+00
     -7.642  0.1642E+00  0.2843E+00
     -7.559  0.1043E+00  0.2933E+00
     -7.476  0.1763E+00  0.3033E+00
     -7.393  0.1222E+00  0.3187E+00
     -7.310  0.0000E+00  0.3200E+00
     -7.227  0.0000E+00  0.3200E+00
     -7.144  0.5219E-02  0.3200E+00
     -7.061  0.1205E+00  0.3238E+00
     -6.979  0.3738E+00  0.3428E+00
     -6.896  0.3063E+00  0.3710E+00
     -6.813  0.4016E+00  0.4045E+00
     -6.730  0.2806E+00  0.4433E+00
     -6.647  0.3251E+00  0.4867E+00
     -6.564  0.2875E+00  0.5145E+00
     -6.481  0.3403E+00  0.5443E+00
     -6.398  0.6729E-01  0.5593E+00
     -6.316  0.0000E+00  0.5600E+00
     -6.233  0.0000E+00  0.5600E+00
     -6.150  0.0000E+00  0.5600E+00
     -6.067  0.0000E+00  0.5600E+00
     -5.984  0.0000E+00  0.5600E+00
     -5.901  0.0000E+00  0.5600E+00
     -5.818  0.0000E+00  0.5600E+00
     -5.735  0.0000E+00  0.5600E+00
     -5.653  0.0000E+00  0.5600E+00
     -5.570  0.0000E+00  0.5600E+00
     -5.487  0.0000E+00  0.5600E+00
     -5.404  0.0000E+00  0.5600E+00
     -5.321  0.0000E+00  0.5600E+00
     -5.238  0.0000E+00  0.5600E+00
     -5.155  0.0000E+00  0.5600E+00
     -5.072  0.0000E+00  0.5600E+00
     -4.990  0.0000E+00  0.5600E+00
     -4.907  0.0000E+00  0.5600E+00
     -4.824  0.0000E+00  0.5600E+00
     -4.741  0.0000E+00  0.5600E+00
     -4.658  0.0000E+00  0.5600E+00
     -4.575  0.0000E+00  0.5600E+00
     -4.492  0.0000E+00  0.5600E+00
     -4.409  0.0000E+00  0.5600E+00
     -4.327  0.0000E+00  0.5600E+00
     -4.244  0.0000E+00  0.5600E+00
     -4.161  0.0000E+00  0.5600E+00
     -4.078  0.0000E+00  0.5600E+00
     -3.995  0.0000E+00  0.5600E+00
     -3.912  0.0000E+00  0.5600E+00
     -3.829  0.0000E+00  0.5600E+00
     -3.746  0.0000E+00  0.5600E+00
     -3.664  0.0000E+00  0.5600E+00
     -3.581  0.0000E+00  0.5600E+00
     -3.498  0.0000E+00  0.5600E+00
     -3.415  0.0000E+00  0.5600E+00
     -3.332  0.0000E+00  0.5600E+00
     -3.249  0.0000E+00  0.5600E+00
     -3.166  0.0000E+00  0.5600E+00
     -3.083  0.0000E+00  0.5600E+00
     -3.001  0.0000E+00  0.5600E+00
     -2.918  0.0000E+00  0.5600E+00
     -2.835  0.0000E+00  0.5600E+00
     -2.752  0.0000E+00  0.5600E+00
     -2.669  0.0000E+00  0.5600E+00
     -2.586  0.0000E+00  0.5600E+00
     -2.503  0.1376E-01  0.5604E+00
     -2.420  0.4239E-01  0.5626E+00
     -2.338  0.9104E-01  0.5683E+00
     -2.255  0.1271E+00  0.5779E+00
     -2.172  0.9296E-01  0.5871E+00
     -2.089  0.8769E-01  0.5945E+00
     -2.006  0.2255E-01  0.5999E+00
     -1.923  0.4584E-01  0.6006E+00
     -1.840  0.7179E-01  0.6062E+00
     -1.757  0.7181E-01  0.6121E+00
     -1.675  0.7820E-01  0.6181E+00
     -1.592  0.1317E+00  0.6268E+00
     -1.509  0.1269E+00  0.6377E+00
     -1.426  0.0000E+00  0.6400E+00
     -1.343  0.0000E+00  0.6400E+00
     -1.260  0.0000E+00  0.6400E+00
     -1.177  0.0000E+00  0.6400E+00
     -1.094  0.0000E+00  0.6400E+00
     -1.012  0.0000E+00  0.6400E+00
     -0.929  0.0000E+00  0.6400E+00
     -0.846  0.0000E+00  0.6400E+00
     -0.763  0.0000E+00  0.6400E+00
     -0.680  0.0000E+00  0.6400E+00
     -0.597  0.0000E+00  0.6400E+00
     -0.514  0.0000E+00  0.6400E+00
     -0.431  0.0000E+00  0.6400E+00
     -0.349  0.0000E+00  0.6400E+00
     -0.266  0.0000E+00  0.6400E+00
     -0.183  0.0000E+00  0.6400E+00
     -0.100  0.0000E+00  0.6400E+00
     -0.017  0.0000E+00  0.6400E+00
      0.066  0.0000E+00  0.6400E+00
      0.149  0.0000E+00  0.6400E+00
      0.232  0.0000E+00  0.6400E+00
      0.314  0.0000E+00  0.6400E+00
      0.397  0.0000E+00  0.6400E+00
      0.480  0.0000E+00  0.6400E+00
      0.563  0.0000E+00  0.6400E+00
      0.646  0.0000E+00  0.6400E+00
      0.729  0.0000E+00  0.6400E+00
      0.812  0.0000E+00  0.6400E+00
      0.895  0.0000E+00  0.6400E+00
      0.977  0.0000E+00  0.6400E+00
      1.060  0.0000E+00  0.6400E+00
      1.143  0.0000E+00  0.6400E+00
      1.226  0.0000E+00  0.6400E+00
      1.309  0.0000E+00  0.6400E+00
      1.392  0.0000E+00  0.6400E+00
      1.475  0.0000E+00  0.6400E+00
      1.558  0.8658E-03  0.6400E+00
      1.640  0.3206E-02  0.6402E+00
      1.723  0.6255E-02  0.6406E+00
      1.806  0.8324E-02  0.6412E+00
      1.889  0.9584E-02  0.6419E+00
      1.972  0.1084E-01  0.6428E+00
      2.055  0.1239E-01  0.6437E+00
      2.138  0.1428E-01  0.6448E+00
      2.221  0.1708E-01  0.6461E+00
      2.303  0.2091E-01  0.6477E+00
      2.386  0.2719E-01  0.6497E+00
      2.469  0.3353E-01  0.6522E+00
      2.552  0.3009E-01  0.6549E+00
      2.635  0.2270E-01  0.6571E+00
      2.718  0.2114E-01  0.6589E+00
      2.801  0.2163E-01  0.6606E+00
      2.884  0.3288E-01  0.6628E+00
      2.966  0.6316E-01  0.6666E+00
      3.049  0.1139E+00  0.6740E+00
      3.132  0.3305E-01  0.6812E+00
      3.215  0.1066E+00  0.6861E+00
      3.298  0.7760E-01  0.6954E+00
      3.381  0.7079E-01  0.7009E+00
      3.464  0.7694E-01  0.7074E+00
      3.547  0.7123E-01  0.7139E+00
      3.629  0.4566E-01  0.7185E+00
      3.712  0.4082E-01  0.7218E+00
      3.795  0.7098E-01  0.7264E+00
      3.878  0.1065E+00  0.7338E+00
      3.961  0.7662E-01  0.7414E+00
      4.044  0.8270E-01  0.7477E+00
      4.127  0.1001E+00  0.7554E+00
      4.210  0.7883E-01  0.7632E+00
      4.292  0.1116E+00  0.7700E+00
      4.375  0.1767E+00  0.7829E+00
      4.458  0.1017E+00  0.7966E+00
      4.541  0.6936E-01  0.8013E+00
      4.624  0.1534E+00  0.8102E+00
      4.707  0.1154E+00  0.8234E+00
      4.790  0.1130E+00  0.8327E+00
      4.873  0.6466E-01  0.8390E+00
      4.955  0.2001E+00  0.8512E+00
      5.038  0.1495E+00  0.8669E+00
      5.121  0.1058E+00  0.8761E+00
      5.204  0.1379E+00  0.8864E+00
      5.287  0.1080E+00  0.8975E+00
      5.370  0.7867E-01  0.9044E+00
      5.453  0.1126E+00  0.9134E+00
      5.536  0.1261E+00  0.9215E+00
      5.618  0.2036E+00  0.9396E+00
      5.701  0.1149E+00  0.9506E+00
      5.784  0.1093E+00  0.9605E+00
      5.867  0.8333E-01  0.9683E+00
      5.950  0.5636E-01  0.9740E+00
      6.033  0.3175E-01  0.9784E+00
      6.116  0.5800E-02  0.9799E+00
      6.199  0.0000E+00  0.9800E+00
      6.281  0.0000E+00  0.9800E+00
      6.364  0.0000E+00  0.9800E+00
      6.447  0.0000E+00  0.9800E+00
      6.530  0.0000E+00  0.9800E+00
      6.613  0.0000E+00  0.9800E+00
      6.696  0.0000E+00  0.9800E+00
      6.779  0.0000E+00  0.9800E+00
      6.862  0.0000E+00  0.9800E+00
      6.944  0.0000E+00  0.9800E+00
      7.027  0.0000E+00  0.9800E+00
      7.110  0.0000E+00  0.9800E+00
      7.193  0.0000E+00  0.9800E+00
      7.276  0.0000E+00  0.9800E+00
      7.359  0.0000E+00  0.9800E+00
      7.442  0.0000E+00  0.9800E+00
      7.525  0.0000E+00  0.9800E+00
      7.607  0.0000E+00  0.9800E+00
      7.690  0.0000E+00  0.9800E+00
      7.773  0.0000E+00  0.9800E+00
      7.856  0.0000E+00  0.9800E+00
      7.939  0.0000E+00  0.9800E+00
      8.022  0.0000E+00  0.9800E+00
      8.105  0.0000E+00  0.9800E+00
      8.188  0.0000E+00  0.9800E+00
