   80   80  200    1
  0.9612539E+01  0.1162932E-08  0.8134336E-09  0.8129271E-09  0.5000000E-15
  1.000000000000000E-004
  CAR 
 methane                                 
    128     27    106
 
  0.0000000E+00  0.0000000E+00  0.0000000E+00  0.1562500E-01
    1      -14.744379
    2      -14.499801
    3      -14.457357
    4      -14.434213
    5      -14.352596
    6      -14.345096
    7      -14.300616
    8      -14.291702
    9      -14.287490
   10      -14.250250
   11      -14.244678
   12      -14.244244
   13      -14.166896
   14      -14.161518
   15      -14.105916
   16      -14.026220
   17       -7.509064
   18       -7.505461
   19       -7.480920
   20       -7.460419
   21       -7.359592
   22       -7.293525
   23       -7.278288
   24       -7.131165
   25       -7.093598
   26       -7.092845
   27       -7.068716
   28       -7.063586
   29       -7.039392
   30       -7.000961
   31       -6.920320
   32       -6.868758
   33       -6.816092
   34       -6.815292
   35       -6.771799
   36       -6.743264
   37       -6.706882
   38       -6.680865
   39       -6.674929
   40       -6.650879
   41       -6.543568
   42       -6.541280
   43       -6.527709
   44       -6.524560
   45       -6.523628
   46       -6.513020
   47       -6.466286
   48       -6.464153
   49       -6.448226
   50       -6.404205
   51       -6.349094
   52       -6.345865
   53       -6.333210
   54       -6.332319
   55       -6.319591
   56       -6.301521
   57       -6.300453
   58       -6.278504
   59       -6.224423
   60       -6.220880
   61       -6.191677
   62       -6.150822
   63       -6.138326
   64       -6.066324
   65        1.414562
   66        2.677572
   67        2.765839
   68        3.187744
   69        3.308631
   70        3.340934
   71        3.399220
   72        3.408954
   73        3.763356
   74        3.911680
   75        3.929683
   76        3.942735
   77        3.973446
   78        3.979997
   79        3.990955
   80        4.011589
   81        4.016350
   82        4.444435
   83        4.642964
   84        4.978439
   85        4.981115
   86        5.136223
   87        5.141198
   88        5.256325
   89        5.305051
   90        5.308738
   91        5.352696
   92        5.542187
   93        5.684828
   94        5.704887
   95        5.809222
   96        5.871380
   97        5.918677
   98        5.938935
   99        6.107858
  100        6.186075
  101        6.285272
  102        6.307543
  103        6.510090
  104        6.565327
  105        6.657855
  106        6.721031
 
  0.2500000E+00  0.0000000E+00  0.0000000E+00  0.3125000E-01
    1      -14.722830
    2      -14.564650
    3      -14.483364
    4      -14.364581
    5      -14.351485
    6      -14.346187
    7      -14.321044
    8      -14.295054
    9      -14.288823
   10      -14.244644
   11      -14.244307
   12      -14.178739
   13      -14.166049
   14      -14.162615
   15      -14.133251
   16      -14.045639
   17       -7.513407
   18       -7.465092
   19       -7.444161
   20       -7.442929
   21       -7.411753
   22       -7.277692
   23       -7.188630
   24       -7.166941
   25       -7.145380
   26       -7.129387
   27       -7.076925
   28       -7.066940
   29       -7.064043
   30       -7.033648
   31       -6.961916
   32       -6.959326
   33       -6.794335
   34       -6.788856
   35       -6.781107
   36       -6.768967
   37       -6.702410
   38       -6.675840
   39       -6.670154
   40       -6.573269
   41       -6.554096
   42       -6.549575
   43       -6.535167
   44       -6.532339
   45       -6.477842
   46       -6.468787
   47       -6.458559
   48       -6.415864
   49       -6.365245
   50       -6.355045
   51       -6.353531
   52       -6.347143
   53       -6.341479
   54       -6.334267
   55       -6.313250
   56       -6.302426
   57       -6.297467
   58       -6.269911
   59       -6.257553
   60       -6.234654
   61       -6.196166
   62       -6.191066
   63       -6.166239
   64       -6.116431
   65        1.515470
   66        2.224319
   67        3.173055
   68        3.203215
   69        3.273449
   70        3.321442
   71        3.391632
   72        3.446422
   73        3.727525
   74        3.791805
   75        3.901152
   76        3.921537
   77        3.965245
   78        3.978436
   79        4.082810
   80        4.089665
   81        4.150616
   82        4.266539
   83        4.837052
   84        5.054234
   85        5.072123
   86        5.164064
   87        5.184567
   88        5.297113
   89        5.319367
   90        5.368841
   91        5.377064
   92        5.397659
   93        5.406357
   94        5.602303
   95        5.729492
   96        5.788130
   97        5.800135
   98        5.831450
   99        6.196360
  100        6.272429
  101        6.340474
  102        6.401445
  103        6.436451
  104        6.647964
  105        6.687951
  106        6.736669
 
  0.5000000E+00  0.0000000E+00  0.0000000E+00  0.1562500E-01
    1      -14.660571
    2      -14.660569
    3      -14.436072
    4      -14.436070
    5      -14.348833
    6      -14.348832
    7      -14.291966
    8      -14.291963
    9      -14.244457
   10      -14.244456
   11      -14.210914
   12      -14.210912
   13      -14.163802
   14      -14.163800
   15      -14.100068
   16      -14.100067
   17       -7.500714
   18       -7.500713
   19       -7.350910
   20       -7.350908
   21       -7.345705
   22       -7.345705
   23       -7.272937
   24       -7.272935
   25       -7.189002
   26       -7.189001
   27       -7.021927
   28       -7.021925
   29       -7.007996
   30       -7.007996
   31       -6.934185
   32       -6.934184
   33       -6.904548
   34       -6.904547
   35       -6.845355
   36       -6.845355
   37       -6.640436
   38       -6.640435
   39       -6.634520
   40       -6.634519
   41       -6.517938
   42       -6.517936
   43       -6.462454
   44       -6.462453
   45       -6.444890
   46       -6.444890
   47       -6.416905
   48       -6.416904
   49       -6.369128
   50       -6.369128
   51       -6.326215
   52       -6.326213
   53       -6.308195
   54       -6.308193
   55       -6.306838
   56       -6.306838
   57       -6.272565
   58       -6.272565
   59       -6.238475
   60       -6.238475
   61       -6.235323
   62       -6.235322
   63       -6.221452
   64       -6.221451
   65        1.800994
   66        1.800995
   67        3.187925
   68        3.187927
   69        3.354267
   70        3.354267
   71        3.560037
   72        3.560038
   73        3.585434
   74        3.585436
   75        3.900104
   76        3.900106
   77        4.054833
   78        4.054834
   79        4.078139
   80        4.078141
   81        4.204120
   82        4.204121
   83        5.095488
   84        5.095488
   85        5.207638
   86        5.207640
   87        5.276056
   88        5.276057
   89        5.286760
   90        5.286760
   91        5.335545
   92        5.335547
   93        5.478710
   94        5.478711
   95        5.612794
   96        5.612794
   97        5.620712
   98        5.620712
   99        6.280781
  100        6.280782
  101        6.467201
  102        6.467203
  103        6.665441
  104        6.667138
  105        6.670390
  106        6.685028
 
  0.0000000E+00  0.2500000E+00  0.0000000E+00  0.3125000E-01
    1      -14.707691
    2      -14.473731
    3      -14.469396
    4      -14.441456
    5      -14.413607
    6      -14.362020
    7      -14.310815
    8      -14.309884
    9      -14.273298
   10      -14.254540
   11      -14.245694
   12      -14.207979
   13      -14.181237
   14      -14.118023
   15      -14.113555
   16      -14.036000
   17       -7.527877
   18       -7.417995
   19       -7.410215
   20       -7.407172
   21       -7.405429
   22       -7.310610
   23       -7.259409
   24       -7.094301
   25       -7.078621
   26       -7.053641
   27       -7.049054
   28       -7.045001
   29       -6.984200
   30       -6.962139
   31       -6.947016
   32       -6.935451
   33       -6.928249
   34       -6.868204
   35       -6.762822
   36       -6.726020
   37       -6.718745
   38       -6.712609
   39       -6.709962
   40       -6.707044
   41       -6.622189
   42       -6.569620
   43       -6.524735
   44       -6.507822
   45       -6.482880
   46       -6.443779
   47       -6.424095
   48       -6.400472
   49       -6.399672
   50       -6.396743
   51       -6.359500
   52       -6.355582
   53       -6.349241
   54       -6.325354
   55       -6.323621
   56       -6.316609
   57       -6.305377
   58       -6.286669
   59       -6.256369
   60       -6.237090
   61       -6.214349
   62       -6.195205
   63       -6.159020
   64       -6.099276
   65        1.622653
   66        2.829587
   67        2.900957
   68        2.906484
   69        3.297379
   70        3.329112
   71        3.379049
   72        3.437014
   73        3.629856
   74        3.703740
   75        3.874363
   76        3.898551
   77        3.968097
   78        3.976669
   79        3.992382
   80        4.293037
   81        4.305927
   82        4.453274
   83        4.766374
   84        4.854546
   85        4.933221
   86        5.098929
   87        5.126494
   88        5.200964
   89        5.213615
   90        5.375121
   91        5.384100
   92        5.426854
   93        5.468006
   94        5.743900
   95        5.776525
   96        5.825137
   97        5.874809
   98        5.992858
   99        6.087089
  100        6.145884
  101        6.162192
  102        6.303672
  103        6.324637
  104        6.447221
  105        6.492546
  106        6.643218
 
  0.2500000E+00  0.2500000E+00  0.0000000E+00  0.6250000E-01
    1      -14.687389
    2      -14.538905
    3      -14.459491
    4      -14.458321
    5      -14.391786
    6      -14.346147
    7      -14.312419
    8      -14.303035
    9      -14.281118
   10      -14.261084
   11      -14.219273
   12      -14.176834
   13      -14.166264
   14      -14.138721
   15      -14.124324
   16      -14.053871
   17       -7.515270
   18       -7.439046
   19       -7.400148
   20       -7.392259
   21       -7.375515
   22       -7.316064
   23       -7.215168
   24       -7.171981
   25       -7.144771
   26       -7.122020
   27       -7.053067
   28       -7.043913
   29       -6.994768
   30       -6.946380
   31       -6.922690
   32       -6.900406
   33       -6.877140
   34       -6.849359
   35       -6.789743
   36       -6.742739
   37       -6.736661
   38       -6.729184
   39       -6.686943
   40       -6.643721
   41       -6.577997
   42       -6.548440
   43       -6.522819
   44       -6.521547
   45       -6.494263
   46       -6.466079
   47       -6.449830
   48       -6.410879
   49       -6.409388
   50       -6.376213
   51       -6.373068
   52       -6.371176
   53       -6.348092
   54       -6.334732
   55       -6.306281
   56       -6.295596
   57       -6.288536
   58       -6.278708
   59       -6.249370
   60       -6.236448
   61       -6.236265
   62       -6.209235
   63       -6.156040
   64       -6.107313
   65        1.714971
   66        2.380849
   67        2.926543
   68        3.165773
   69        3.312822
   70        3.352274
   71        3.375769
   72        3.447699
   73        3.736967
   74        3.763070
   75        3.872841
   76        3.926835
   77        3.939125
   78        3.999001
   79        4.020467
   80        4.248631
   81        4.312335
   82        4.344167
   83        4.871624
   84        4.955032
   85        4.963396
   86        5.072034
   87        5.123174
   88        5.157804
   89        5.163096
   90        5.283161
   91        5.416688
   92        5.454699
   93        5.503250
   94        5.512357
   95        5.694746
   96        5.781132
   97        5.815066
   98        6.011982
   99        6.054560
  100        6.190695
  101        6.202365
  102        6.304049
  103        6.314209
  104        6.461550
  105        6.521484
  106        6.607414
 
  0.5000000E+00  0.2500000E+00  0.0000000E+00  0.3125000E-01
    1      -14.628798
    2      -14.628796
    3      -14.431907
    4      -14.431906
    5      -14.413445
    6      -14.413444
    7      -14.286020
    8      -14.286019
    9      -14.244001
   10      -14.243999
   11      -14.209367
   12      -14.209365
   13      -14.141957
   14      -14.141955
   15      -14.104095
   16      -14.104093
   17       -7.474162
   18       -7.474161
   19       -7.403742
   20       -7.403742
   21       -7.279002
   22       -7.279001
   23       -7.256812
   24       -7.256811
   25       -7.166606
   26       -7.166605
   27       -7.007200
   28       -7.007199
   29       -6.988950
   30       -6.988948
   31       -6.962008
   32       -6.962008
   33       -6.842214
   34       -6.842214
   35       -6.771060
   36       -6.771060
   37       -6.659403
   38       -6.659402
   39       -6.655486
   40       -6.655485
   41       -6.566445
   42       -6.566445
   43       -6.544259
   44       -6.544259
   45       -6.456169
   46       -6.456167
   47       -6.437887
   48       -6.437887
   49       -6.406168
   50       -6.406166
   51       -6.386865
   52       -6.386864
   53       -6.358305
   54       -6.358304
   55       -6.298919
   56       -6.298918
   57       -6.288306
   58       -6.288304
   59       -6.236169
   60       -6.236169
   61       -6.186876
   62       -6.186875
   63       -6.155894
   64       -6.155893
   65        1.979431
   66        1.979432
   67        3.011958
   68        3.011959
   69        3.315306
   70        3.315309
   71        3.575984
   72        3.575985
   73        3.763654
   74        3.763655
   75        3.916050
   76        3.916051
   77        3.988653
   78        3.988655
   79        4.082711
   80        4.082711
   81        4.346726
   82        4.346727
   83        4.926438
   84        4.926438
   85        5.044734
   86        5.044735
   87        5.110230
   88        5.110230
   89        5.251583
   90        5.251583
   91        5.356065
   92        5.356066
   93        5.538493
   94        5.538494
   95        5.601452
   96        5.601453
   97        5.841334
   98        5.841335
   99        6.130425
  100        6.130426
  101        6.319333
  102        6.319333
  103        6.391144
  104        6.391144
  105        6.488773
  106        6.488774
 
  0.0000000E+00  0.5000000E+00  0.0000000E+00  0.1562500E-01
    1      -14.607080
    2      -14.607080
    3      -14.405280
    4      -14.405280
    5      -14.400389
    6      -14.400389
    7      -14.362627
    8      -14.362627
    9      -14.249460
   10      -14.249460
   11      -14.227918
   12      -14.227918
   13      -14.143348
   14      -14.143348
   15      -14.066355
   16      -14.066355
   17       -7.512852
   18       -7.512852
   19       -7.265678
   20       -7.265678
   21       -7.229332
   22       -7.229332
   23       -7.224837
   24       -7.224837
   25       -7.183154
   26       -7.183154
   27       -7.108092
   28       -7.108092
   29       -6.929571
   30       -6.929571
   31       -6.880111
   32       -6.880111
   33       -6.855509
   34       -6.855509
   35       -6.815238
   36       -6.815238
   37       -6.755059
   38       -6.755059
   39       -6.720688
   40       -6.720688
   41       -6.590527
   42       -6.590527
   43       -6.498133
   44       -6.498133
   45       -6.495841
   46       -6.495841
   47       -6.456202
   48       -6.456202
   49       -6.374708
   50       -6.374708
   51       -6.338262
   52       -6.338262
   53       -6.317423
   54       -6.317423
   55       -6.292981
   56       -6.292981
   57       -6.284333
   58       -6.284333
   59       -6.278708
   60       -6.278708
   61       -6.206588
   62       -6.206588
   63       -6.194818
   64       -6.194818
   65        2.176597
   66        2.176597
   67        3.142540
   68        3.142540
   69        3.255461
   70        3.255461
   71        3.412826
   72        3.412826
   73        3.638598
   74        3.638598
   75        3.719647
   76        3.719647
   77        3.958162
   78        3.958162
   79        4.327486
   80        4.327486
   81        4.620915
   82        4.620915
   83        4.705417
   84        4.705417
   85        4.803452
   86        4.803452
   87        4.988795
   88        4.988795
   89        5.468142
   90        5.468142
   91        5.508010
   92        5.508010
   93        5.609262
   94        5.609262
   95        5.787705
   96        5.787705
   97        5.928526
   98        5.928526
   99        5.985356
  100        5.985356
  101        6.050754
  102        6.050754
  103        6.190749
  104        6.190749
  105        6.418096
  106        6.418101
 
  0.2500000E+00  0.5000000E+00  0.0000000E+00  0.3125000E-01
    1      -14.590601
    2      -14.590601
    3      -14.471856
    4      -14.471856
    5      -14.391295
    6      -14.391295
    7      -14.303389
    8      -14.303389
    9      -14.290803
   10      -14.290803
   11      -14.173181
   12      -14.173181
   13      -14.161691
   14      -14.161691
   15      -14.079686
   16      -14.079686
   17       -7.488999
   18       -7.488999
   19       -7.338789
   20       -7.338789
   21       -7.285650
   22       -7.285650
   23       -7.241113
   24       -7.241113
   25       -7.107197
   26       -7.107197
   27       -7.021233
   28       -7.021233
   29       -6.937858
   30       -6.937858
   31       -6.897778
   32       -6.897778
   33       -6.858844
   34       -6.858844
   35       -6.809497
   36       -6.809497
   37       -6.694049
   38       -6.694049
   39       -6.690335
   40       -6.690335
   41       -6.653305
   42       -6.653305
   43       -6.536714
   44       -6.536714
   45       -6.473155
   46       -6.473155
   47       -6.447480
   48       -6.447480
   49       -6.411209
   50       -6.411209
   51       -6.394260
   52       -6.394260
   53       -6.343880
   54       -6.343880
   55       -6.314331
   56       -6.314331
   57       -6.290255
   58       -6.290255
   59       -6.241345
   60       -6.241345
   61       -6.171266
   62       -6.171266
   63       -6.160500
   64       -6.160500
   65        2.243716
   66        2.243716
   67        2.767336
   68        2.767336
   69        3.456718
   70        3.456718
   71        3.616569
   72        3.616569
   73        3.640005
   74        3.640005
   75        3.808367
   76        3.808367
   77        3.915028
   78        3.915028
   79        4.363344
   80        4.363344
   81        4.588947
   82        4.588947
   83        4.636077
   84        4.636077
   85        4.740376
   86        4.740376
   87        4.923704
   88        4.923704
   89        5.381640
   90        5.381640
   91        5.596275
   92        5.596275
   93        5.635841
   94        5.635841
   95        5.776996
   96        5.776996
   97        5.896979
   98        5.896979
   99        5.939905
  100        5.939905
  101        6.090594
  102        6.090594
  103        6.099048
  104        6.099048
  105        6.479810
  106        6.479832
 
  0.5000000E+00  0.5000000E+00  0.0000000E+00  0.1562500E-01
    1      -14.543280
    2      -14.543280
    3      -14.543279
    4      -14.543279
    5      -14.356249
    6      -14.356249
    7      -14.356247
    8      -14.356247
    9      -14.214376
   10      -14.214376
   11      -14.214374
   12      -14.214374
   13      -14.117368
   14      -14.117368
   15      -14.117367
   16      -14.117367
   17       -7.425672
   18       -7.425672
   19       -7.425672
   20       -7.425671
   21       -7.290706
   22       -7.290706
   23       -7.290705
   24       -7.290705
   25       -7.020661
   26       -7.020661
   27       -7.020659
   28       -7.020659
   29       -6.873125
   30       -6.873125
   31       -6.873124
   32       -6.873124
   33       -6.859028
   34       -6.859028
   35       -6.859027
   36       -6.859027
   37       -6.705229
   38       -6.705229
   39       -6.705229
   40       -6.705229
   41       -6.573915
   42       -6.573915
   43       -6.573915
   44       -6.573915
   45       -6.498448
   46       -6.498448
   47       -6.498448
   48       -6.498448
   49       -6.414320
   50       -6.414320
   51       -6.414318
   52       -6.414318
   53       -6.345702
   54       -6.345702
   55       -6.345702
   56       -6.345702
   57       -6.259259
   58       -6.259259
   59       -6.259258
   60       -6.259258
   61       -6.138557
   62       -6.138557
   63       -6.138557
   64       -6.138557
   65        2.443470
   66        2.443470
   67        2.443472
   68        2.443472
   69        3.549513
   70        3.549513
   71        3.549514
   72        3.549514
   73        3.796876
   74        3.796876
   75        3.796876
   76        3.796876
   77        4.237477
   78        4.237477
   79        4.237477
   80        4.237477
   81        4.489712
   82        4.489712
   83        4.489713
   84        4.489713
   85        4.812142
   86        4.812143
   87        4.812143
   88        4.812143
   89        5.443085
   90        5.443085
   91        5.443085
   92        5.443085
   93        5.736647
   94        5.736647
   95        5.736647
   96        5.736647
   97        5.860602
   98        5.860602
   99        5.860602
  100        5.860602
  101        6.158731
  102        6.158731
  103        6.158732
  104        6.158732
  105        6.573280
  106        6.573280
 
  0.0000000E+00  0.0000000E+00  0.2500000E+00  0.3125000E-01
    1      -14.713063
    2      -14.541884
    3      -14.432046
    4      -14.414172
    5      -14.334700
    6      -14.328038
    7      -14.313432
    8      -14.296958
    9      -14.281553
   10      -14.269643
   11      -14.254924
   12      -14.246299
   13      -14.186179
   14      -14.180567
   15      -14.094186
   16      -14.038029
   17       -7.462462
   18       -7.438724
   19       -7.418257
   20       -7.391019
   21       -7.283166
   22       -7.211315
   23       -7.204646
   24       -7.192195
   25       -7.164653
   26       -7.163347
   27       -7.081231
   28       -7.033040
   29       -6.982497
   30       -6.937209
   31       -6.868340
   32       -6.852791
   33       -6.848185
   34       -6.837798
   35       -6.771197
   36       -6.741453
   37       -6.683089
   38       -6.680975
   39       -6.668533
   40       -6.664480
   41       -6.617164
   42       -6.547938
   43       -6.547076
   44       -6.525992
   45       -6.502949
   46       -6.482771
   47       -6.481883
   48       -6.477902
   49       -6.476380
   50       -6.433314
   51       -6.418401
   52       -6.393936
   53       -6.365371
   54       -6.354121
   55       -6.348456
   56       -6.342080
   57       -6.339065
   58       -6.275661
   59       -6.264592
   60       -6.249967
   61       -6.246965
   62       -6.142037
   63       -6.132727
   64       -6.094114
   65        1.647632
   66        2.833292
   67        2.911644
   68        3.086401
   69        3.310452
   70        3.352830
   71        3.517936
   72        3.520375
   73        3.535773
   74        3.633424
   75        3.905264
   76        4.077596
   77        4.092151
   78        4.122528
   79        4.237412
   80        4.342278
   81        4.509513
   82        4.510350
   83        4.589464
   84        4.715564
   85        4.808464
   86        4.899422
   87        5.102645
   88        5.157718
   89        5.162216
   90        5.214159
   91        5.287102
   92        5.333225
   93        5.551020
   94        5.583730
   95        5.642615
   96        5.644152
   97        5.774547
   98        6.224748
   99        6.239241
  100        6.250986
  101        6.381442
  102        6.449658
  103        6.553730
  104        6.625571
  105        6.703253
  106        6.790442
 
  0.2500000E+00  0.0000000E+00  0.2500000E+00  0.6250000E-01
    1      -14.692096
    2      -14.538143
    3      -14.524413
    4      -14.397380
    5      -14.334944
    6      -14.329130
    7      -14.301265
    8      -14.280647
    9      -14.271807
   10      -14.254882
   11      -14.254347
   12      -14.200403
   13      -14.185292
   14      -14.181472
   15      -14.120733
   16      -14.058868
   17       -7.424953
   18       -7.414651
   19       -7.399134
   20       -7.376116
   21       -7.358533
   22       -7.215761
   23       -7.175746
   24       -7.166875
   25       -7.131748
   26       -7.127456
   27       -7.099303
   28       -7.084216
   29       -7.076862
   30       -7.025347
   31       -6.917515
   32       -6.866452
   33       -6.818265
   34       -6.813056
   35       -6.730653
   36       -6.715437
   37       -6.705947
   38       -6.672512
   39       -6.664140
   40       -6.655004
   41       -6.651768
   42       -6.583529
   43       -6.543925
   44       -6.521989
   45       -6.508105
   46       -6.461892
   47       -6.459634
   48       -6.439942
   49       -6.437297
   50       -6.409775
   51       -6.361240
   52       -6.359079
   53       -6.350492
   54       -6.343897
   55       -6.341585
   56       -6.316392
   57       -6.311917
   58       -6.311425
   59       -6.308944
   60       -6.259740
   61       -6.253050
   62       -6.190102
   63       -6.155570
   64       -6.124323
   65        1.742401
   66        2.408224
   67        3.096241
   68        3.240970
   69        3.320855
   70        3.364834
   71        3.496884
   72        3.520220
   73        3.532969
   74        3.732789
   75        3.857006
   76        4.033178
   77        4.098861
   78        4.147823
   79        4.164773
   80        4.380924
   81        4.382030
   82        4.501129
   83        4.699196
   84        4.749327
   85        4.877082
   86        4.906101
   87        5.086169
   88        5.126104
   89        5.157534
   90        5.166684
   91        5.362154
   92        5.460598
   93        5.484344
   94        5.485331
   95        5.640674
   96        5.660381
   97        5.867974
   98        5.896074
   99        6.323458
  100        6.369630
  101        6.433749
  102        6.488649
  103        6.539453
  104        6.678068
  105        6.731998
  106        6.745910
 
  0.5000000E+00  0.0000000E+00  0.2500000E+00  0.3125000E-01
    1      -14.631481
    2      -14.631480
    3      -14.474114
    4      -14.474112
    5      -14.331783
    6      -14.331783
    7      -14.276446
    8      -14.276444
    9      -14.253697
   10      -14.253697
   11      -14.195848
   12      -14.195847
   13      -14.182525
   14      -14.182522
   15      -14.117166
   16      -14.117164
   17       -7.410657
   18       -7.410656
   19       -7.320521
   20       -7.320519
   21       -7.309776
   22       -7.309776
   23       -7.255242
   24       -7.255241
   25       -7.143595
   26       -7.143594
   27       -7.059972
   28       -7.059971
   29       -7.024866
   30       -7.024866
   31       -6.886990
   32       -6.886989
   33       -6.880854
   34       -6.880853
   35       -6.793921
   36       -6.793921
   37       -6.668661
   38       -6.668659
   39       -6.633787
   40       -6.633786
   41       -6.608881
   42       -6.608881
   43       -6.483607
   44       -6.483606
   45       -6.472459
   46       -6.472459
   47       -6.426658
   48       -6.426658
   49       -6.398924
   50       -6.398924
   51       -6.367604
   52       -6.367603
   53       -6.348478
   54       -6.348476
   55       -6.315328
   56       -6.315327
   57       -6.297378
   58       -6.297377
   59       -6.281085
   60       -6.281085
   61       -6.219842
   62       -6.219842
   63       -6.211729
   64       -6.211729
   65        2.010746
   66        2.010747
   67        3.141774
   68        3.141774
   69        3.432650
   70        3.432652
   71        3.523386
   72        3.523386
   73        3.672058
   74        3.672059
   75        3.889675
   76        3.889676
   77        4.115822
   78        4.115824
   79        4.235281
   80        4.235282
   81        4.453417
   82        4.453419
   83        4.815291
   84        4.815291
   85        4.890999
   86        4.891000
   87        5.059312
   88        5.059313
   89        5.200561
   90        5.200561
   91        5.304342
   92        5.304344
   93        5.545332
   94        5.545333
   95        5.785752
   96        5.785753
   97        5.807715
   98        5.807715
   99        6.242898
  100        6.242898
  101        6.411160
  102        6.411160
  103        6.712778
  104        6.714721
  105        6.747835
  106        6.749572
 
  0.0000000E+00  0.2500000E+00  0.2500000E+00  0.6250000E-01
    1      -14.677464
    2      -14.513478
    3      -14.447347
    4      -14.416341
    5      -14.393828
    6      -14.343605
    7      -14.335499
    8      -14.294660
    9      -14.291680
   10      -14.284321
   11      -14.259941
   12      -14.200746
   13      -14.194459
   14      -14.129442
   15      -14.101887
   16      -14.047061
   17       -7.429155
   18       -7.383146
   19       -7.371961
   20       -7.366340
   21       -7.321178
   22       -7.226798
   23       -7.187036
   24       -7.142533
   25       -7.111569
   26       -7.065784
   27       -7.037960
   28       -7.017981
   29       -6.987362
   30       -6.971198
   31       -6.952627
   32       -6.884522
   33       -6.875721
   34       -6.871944
   35       -6.792211
   36       -6.761606
   37       -6.723683
   38       -6.714954
   39       -6.666464
   40       -6.663440
   41       -6.635393
   42       -6.626090
   43       -6.569904
   44       -6.510619
   45       -6.486972