   80   80  200    1
  0.9612539E+01  0.1162932E-08  0.8134336E-09  0.8129271E-09  0.5000000E-15
  1.000000000000000E-004
  CAR 
 diamond                                 
    128     27    106
