    2    2  200    1
  0.6204993E+01  0.2598736E-09  0.2598736E-09  0.2598736E-09  0.5000000E-15
  1.000000000000000E-004
  CAR 
 graphite                                
      8    194      8
 
  0.0000000E+00  0.0000000E+00  0.0000000E+00  0.8680556E-03
    1      -11.809683
    2        8.495950
    3        8.495950
    4        8.495951
    5       13.839644
    6       13.839645
    7       13.839646
    8       19.828116
 
  0.8333333E-01  0.0000000E+00  0.0000000E+00  0.3472222E-02
    1      -11.629125
    2        7.351976
    3        8.204490
    4        8.204491
    5       14.221737
    6       14.221739
    7       14.450247
    8       20.055367
 
  0.1666667E+00 -0.1387779E-16 -0.1387779E-16  0.3472222E-02
    1      -11.090061
    2        4.976646
    3        7.564966
    4        7.564967
    5       15.062525
    6       15.062526
    7       15.310400
    8       20.726459
 
  0.2500000E+00  0.0000000E+00 -0.1387779E-16  0.6944444E-02
    1      -10.202053
    2        2.312375
    3        6.899214
    4        6.899214
    5       15.808138
    6       15.867455
    7       15.867457
    8       21.679014
 
  0.3333333E+00  0.2775558E-16  0.1387779E-16  0.3472222E-02
    1       -8.990249
    2       -0.291622
    3        6.367756
    4        6.367757
    5       16.036188
    6       16.354626
    7       16.354628
    8       22.589847
 
  0.4166667E+00  0.0000000E+00 -0.2775558E-16  0.3472222E-02
    1       -7.544812
    2       -2.611760
    3        6.033663
    4        6.033663
    5       16.132949
    6       16.538736
    7       16.538738
    8       23.165303
 
  0.5000000E+00  0.0000000E+00 -0.2775558E-16  0.3472222E-02
    1       -6.531970
    2       -3.921817
    3        5.920410
    4        5.920410
    5       16.160153
    6       16.574628
    7       16.574630
    8       23.339742
 
  0.8333333E-01  0.8333333E-01 -0.6938894E-17  0.1736111E-02
    1      -11.568961
    2        7.677087
    3        7.677088
    4        7.874428
    5       13.646537
    6       14.856407
    7       14.856407
    8       20.048886
 
  0.1666667E+00  0.8333333E-01 -0.2775558E-16  0.3472222E-02
    1      -11.149429
    2        5.783957
    3        6.944920
    4        7.592886
    5       13.906355
    6       15.787209
    7       15.834073
    8       20.340571
 
  0.2500000E+00  0.8333333E-01 -0.2775558E-16  0.1041667E-01
    1      -10.377484
    2        3.252293
    3        6.280328
    4        6.983847
    5       14.685808
    6       16.422781
    7       16.714642
    8       20.886556
 
  0.3333333E+00  0.8333333E-01  0.2775558E-16  0.6944444E-02
    1       -9.271415
    2        0.651552
    3        5.809704
    4        6.295436
    5       15.403636
    6       16.741586
    7       17.211928
    8       21.641871
 
  0.4166667E+00  0.8333333E-01 -0.2775558E-16  0.3472222E-02
    1       -7.887013
    2       -1.766038
    3        5.581380
    4        5.704519
    5       15.831053
    6       16.890929
    7       17.300340
    8       22.527034
 
  0.5000000E+00  0.8333333E-01 -0.5551115E-16  0.1041667E-01
    1       -6.545827
    2       -3.590886
    3        5.293124
    4        5.606015
    5       16.089163
    6       16.952477
    7       17.142020
    8       23.157419
 
 -0.4166667E+00  0.8333333E-01 -0.1387779E-16  0.6944444E-02
    1       -6.926304
    2       -3.111490
    3        5.104178
    4        5.872617
    5       16.291224
    6       16.869103
    7       16.979658
    8       23.146538
 
 -0.3333333E+00  0.8333333E-01 -0.1387779E-16  0.3472222E-02
    1       -8.372607
    2       -0.989761
    3        5.161500
    4        6.352166
    5       16.395839
    6       16.472596
    7       16.966837
    8       22.503822
 
 -0.2500000E+00  0.8333333E-01  0.2775558E-16  0.1041667E-01
    1       -9.675693
    2        1.515800
    3        5.473678
    4        6.990662
    5       15.852377
    6       16.314502
    7       16.726047
    8       21.625946
 
 -0.1666667E+00  0.8333333E-01  0.0000000E+00  0.6944444E-02
    1      -10.673454
    2        4.119458
    3        6.032881
    4        7.679895
    5       15.025601
    6       15.921297
    7       16.074402
    8       20.882961
 
 -0.8333333E-01  0.8333333E-01 -0.6060057E-17  0.1736111E-02
    1      -11.329061
    2        6.376722
    3        6.918273
    4        8.193339
    5       14.317391
    6       14.996498
    7       15.296323
    8       20.347180
 
  0.1666667E+00  0.1666667E+00  0.0000000E+00  0.1736111E-02
    1      -10.850484
    2        6.160868
    3        6.160868
    4        6.267225
    5       13.191585
    6       16.950737
    7       16.950737
    8       19.838649
 
  0.2500000E+00  0.1666667E+00 -0.2775558E-16  0.1041667E-01
    1      -10.198041
    2        4.097549
    3        5.469181
    4        5.960990
    5       13.423177
    6       17.862162
    7       17.997394
    8       19.461966
 
  0.3333333E+00  0.1666667E+00 -0.5551115E-16  0.3472222E-02
    1       -9.206123
    2        1.692275
    3        4.994316
    4        5.264278
    5       14.190888
    6       18.290143
    7       18.656399
    8       19.595698
 
  0.4166667E+00  0.1666667E+00  0.0000000E+00  0.6944444E-02
    1       -7.912785
    2       -0.689313
    3        4.486713
    4        4.788087
    5       14.823494
    6       18.514620
    7       18.818018
    8       20.469711
 
  0.5000000E+00  0.1666667E+00 -0.2775558E-16  0.1041667E-01
    1       -6.483210
    2       -2.735972
    3        3.828573
    4        4.863420
    5       15.227710
    6       18.594894
    7       18.598051
    8       21.901822
 
 -0.4166667E+00  0.1666667E+00  0.0000000E+00  0.3472222E-02
    1       -6.118571
    2       -3.180744
    3        3.386594
    4        5.207107
    5       15.619833
    6       18.151228
    7       18.592718
    8       22.866163
 
 -0.3333333E+00  0.1666667E+00  0.6938894E-17  0.6944444E-02
    1       -7.441687
    2       -1.392302
    3        3.214344
    4        5.780053
    5       16.057668
    6       17.520995
    7       18.525495
    8       22.289318
 
 -0.2500000E+00  0.1666667E+00  0.2081668E-16  0.1041667E-01
    1       -8.810769
    2        0.927346
    3        3.358784
    4        6.504173
    5       16.410370
    6       16.674579
    7       18.187118
    8       21.241645
 
 -0.1666667E+00  0.1666667E+00  0.9568457E-17  0.1736111E-02
    1       -9.907190
    2        3.088152
    3        4.086607
    4        7.228660
    5       15.713086
    6       16.457658
    7       17.200901
    8       20.869312
 
  0.2500000E+00  0.2500000E+00 -0.5551115E-16  0.5208333E-02
    1       -9.666390
    2        4.074466
    3        4.734721
    4        4.734721
    5       12.721789
    6       18.077744
    7       19.286670
    8       19.286671
 
  0.3333333E+00  0.2500000E+00  0.0000000E+00  0.1041667E-01
    1       -8.793334
    2        2.338669
    3        4.101045
    4        4.215938
    5       13.024480
    6       17.329477
    7       20.174470
    8       20.225679
 
  0.4166667E+00  0.2500000E+00 -0.5551115E-16  0.1041667E-01
    1       -7.606933
    2        0.303664
    3        3.148934
    4        3.974609
    5       13.773534
    6       17.654274
    7       20.570188
    8       20.608226
 
  0.5000000E+00  0.2500000E+00 -0.5551115E-16  0.2083333E-01
    1       -6.203532
    2       -1.671310
    3        2.220496
    4        4.030694
    5       14.287537
    6       19.181382
    7       20.457790
    8       20.729532
 
 -0.4166667E+00  0.2500000E+00  0.0000000E+00  0.1041667E-01
    1       -5.260580
    2       -2.785110
    3        1.525161
    4        4.375516
    5       14.733272
    6       19.909846
    7       20.453416
    8       21.540471
 
 -0.3333333E+00  0.2500000E+00  0.1734723E-16  0.1041667E-01
    1       -6.248805
    2       -1.535957
    3        1.168578
    4        4.971178
    5       15.301536
    6       19.039875
    7       20.504389
    8       22.123941
 
 -0.2500000E+00  0.2500000E+00  0.2019514E-16  0.1041667E-01
    1       -7.637118
    2        0.221346
    3        1.494201
    4        5.735239
    5       15.940376
    6       17.890172
    7       19.918309
    8       21.137390
 
  0.3333333E+00  0.3333333E+00  0.0000000E+00  0.1736111E-02
    1       -8.040597
    2        1.557987
    3        3.636674
    4        3.636674
    5       12.449554
    6       15.886821
    7       21.514291
    8       21.514291
 
  0.4166667E+00  0.3333333E+00 -0.2775558E-16  0.3472222E-02
    1       -6.969371
    2        0.143443
    3        2.805857
    4        3.332257
    5       12.880675
    6       15.413761
    7       22.220162
    8       22.230346
 
  0.5000000E+00  0.3333333E+00  0.0000000E+00  0.1041667E-01
    1       -5.642483
    2       -1.292191
    3        1.490252
    4        3.331376
    5       13.527762
    6       16.410564
    7       22.240564
    8       22.462154
 
 -0.4166667E+00  0.3333333E+00  0.1387779E-16  0.6944444E-02
    1       -4.420682
    2       -2.428286
    3        0.331236
    4        3.632508
    5       13.968779
    6       18.639577
    7       21.643497
    8       22.441612
 
 -0.3333333E+00  0.3333333E+00  0.3515346E-17  0.1736111E-02
    1       -4.939752
    2       -1.913985
    3       -0.083209
    4        4.203990
    5       14.547767
    6       20.526748
    7       20.973730
    8       22.149155
 
  0.4166667E+00  0.4166667E+00 -0.1110223E-15  0.1736111E-02
    1       -6.014812
    2       -1.082390
    3        2.953890
    4        2.953890
    5       12.525497
    6       14.165759
    7       23.266467
    8       23.266468
 
  0.5000000E+00  0.4166667E+00 -0.1110223E-15  0.1041667E-01
    1       -4.786648
    2       -2.349315
    3        2.222810
    4        2.878482
    5       13.065021
    6       14.140412
    7       23.513915
    8       23.604690
 
 -0.4166667E+00  0.4166667E+00 -0.4508094E-17  0.1736111E-02
    1       -3.631210
    2       -3.219947
    3        0.952145
    4        3.112402
    5       13.455052
    6       15.969370
    7       22.933286
    8       23.365519
 
  0.5000000E+00  0.5000000E+00 -0.1110223E-15  0.2604167E-02
    1       -3.658741
    2       -3.658741
    3        2.722702
    4        2.722702
    5       13.064725
    6       13.064725
    7       23.973339
    8       23.973339
 
  0.0000000E+00  0.0000000E+00  0.1250000E+00  0.1736111E-02
    1      -11.404022
    2        6.237015
    3        7.904300
    4        7.904300
    5       14.618281
    6       14.618282
    7       14.915952
    8       20.340077
 
  0.8333333E-01  0.0000000E+00  0.1250000E+00  0.3472222E-02
    1      -11.403854
    2        6.887595
    3        7.315384
    4        7.770227
    5       13.673532
    6       15.331790
    7       15.332147
    8       20.158045
 
  0.1666667E+00 -0.1387779E-16  0.1250000E+00  0.3472222E-02
    1      -11.044593
    2        6.069048
    3        6.553643
    4        7.039710
    5       13.443740
    6       16.353931
    7       16.376713
    8       20.094101
 
  0.2500000E+00  0.0000000E+00  0.1250000E+00  0.5208333E-02
    1      -10.332112
    2        3.712048
    3        5.878399
    4        6.566135
    5       14.029943
    6       17.098948
    7       17.329774
    8       20.209948
 
  0.3333333E+00  0.2775558E-16  0.1250000E+00  0.3472222E-02
    1       -9.282331
    2        1.176196
    3        5.412486
    4        5.852187
    5       14.814987
    6       17.469356
    7       17.890777
    8       20.677238
 
  0.4166667E+00  0.0000000E+00  0.1250000E+00  0.3472222E-02
    1       -7.940822
    2       -1.245673
    3        5.160390
    4        5.204607
    5       15.351103
    6       17.636870
    7       17.995136
    8       21.645863
 
  0.5000000E+00  0.0000000E+00  0.1250000E+00  0.5208333E-02
    1       -6.534641
    2       -3.212957
    3        4.620833
    4        5.265613
    5       15.695100
    6       17.693655
    7       17.788260
    8       22.728072
 
 -0.4166667E+00  0.0000000E+00  0.1250000E+00  0.3472222E-02
    1       -6.538097
    2       -3.205020
    3        4.300111
    4        5.582015
    5       16.017894
    6       17.417966
    7       17.695922
    8       23.073060
 
 -0.3333333E+00 -0.2775558E-16  0.1250000E+00  0.3472222E-02
    1       -7.944059
    2       -1.228723
    3        4.236362
    4        6.117903
    5       16.321363
    6       16.904298
    7       17.643123
    8       22.383624
 
 -0.2500000E+00  0.0000000E+00  0.1250000E+00  0.5208333E-02
    1       -9.284300
    2        1.197789
    3        4.452895
    4        6.804852
    5       16.180788
    6       16.465457
    7       17.365035
    8       21.433736
 
 -0.1666667E+00  0.0000000E+00  0.1250000E+00  0.3472222E-02
    1      -10.333209
    2        3.685563
    3        4.997433
    4        7.510186
    5       15.302384
    6       16.301329
    7       16.573258
    8       20.875480
 
 -0.8333333E-01  0.0000000E+00  0.1250000E+00  0.3472222E-02
    1      -11.045133
    2        5.354245
    3        6.407824
    4        7.979142
    5       14.624881
    6       15.485822
    7       15.715167
    8       20.588598
 
  0.8333333E-01  0.8333333E-01  0.1250000E+00  0.1736111E-02
    1      -11.523974
    2        6.965215
    3        7.658858
    4        8.276841
    5       14.169730
    6       14.570686
    7       14.816245
    8       20.167051
 
  0.1666667E+00  0.8333333E-01  0.1250000E+00  0.3472222E-02
    1      -11.284114
    2        6.171352
    3        7.016920
    4        7.996072
    5       14.111836
    6       15.306443
    7       15.434788
    8       20.345979
 
  0.2500000E+00  0.8333333E-01  0.1250000E+00  0.6944444E-02
    1      -10.688009
    2        4.513841
    3        5.690698
    4        7.617580
    5       14.652655
    6       16.200227
    7       16.323146
    8       20.659147
 
  0.3333333E+00  0.8333333E-01  0.1250000E+00  0.3472222E-02
    1       -9.747295
    2        2.002638
    3        5.070494
    4        6.950635
    5       15.497563
    6       16.556815
    7       17.166795
    8       21.169048
 
  0.4166667E+00  0.8333333E-01  0.1250000E+00  0.3472222E-02
    1       -8.492815
    2       -0.505745
    3        4.736443
    4        6.267069
    5       16.183267
    6       16.592996
    7       17.563986
    8       22.027847
 
  0.5000000E+00  0.8333333E-01  0.1250000E+00  0.6944444E-02
    1       -7.044853
    2       -2.710379
    3        4.657165
    4        5.727066
    5       16.406969
    6       16.608807
    7       17.706714
    8       22.902997
 
 -0.4166667E+00  0.8333333E-01  0.1250000E+00  0.3472222E-02
    1       -6.321966
    2       -3.627418
    3        4.779468
    4        5.447158
    5       16.145709
    6       16.869621
    7       17.780521
    8       23.095364
 
 -0.3333333E+00  0.8333333E-01  0.1250000E+00  0.3472222E-02
    1       -7.528099
    2       -2.039319
    3        4.953548
    4        5.590248
    5       15.848966
    6       17.028224
    7       17.807433
    8       22.396160
 
 -0.2500000E+00  0.8333333E-01  0.1250000E+00  0.6944444E-02
    1       -8.941291
    2        0.303698
    3        5.185373
    4        6.120524
    5       15.405484
    6       17.031589
    7       17.690665
    8       21.402019
 
 -0.1666667E+00  0.8333333E-01  0.1250000E+00  0.3472222E-02
    1      -10.097415
    2        2.852644
    3        5.616710
    4        6.803703
    5       14.681135
    6       16.811072
    7       17.225136
    8       20.693707
 
 -0.8333333E-01  0.8333333E-01  0.1250000E+00  0.3472222E-02
    1      -10.925539
    2        5.331681
    3        6.273962
    4        7.409821
    5       13.905610
    6       16.262046
    7       16.341405
    8       20.328171
 
  0.1666667E+00  0.1666667E+00  0.1250000E+00  0.1736111E-02
    1      -11.164603
    2        5.402419
    3        7.297542
    4        7.790944
    5       14.484309
    6       15.377157
    7       15.393874
    8       20.556241
 
  0.3333333E+00  0.1666667E+00  0.1250000E+00  0.3472222E-02
    1       -9.863101
    2        2.879350
    3        4.286165
    4        7.072396
    5       15.434356
    6       16.614133
    7       17.440718
    8       20.753897
 
  0.4166667E+00  0.1666667E+00  0.1250000E+00  0.3472222E-02
    1       -8.712346
    2        0.458937
    3        3.829298
    4        6.344450
    5       16.320532
    6       16.592314
    7       18.168508
    8       21.349171
 
  0.5000000E+00  0.1666667E+00  0.1250000E+00  0.6944444E-02
    1       -7.307522
    2       -1.845301
    3        3.718952
    4        5.673013
    5       16.285022
    6       16.981757
    7       18.445812
    8       22.423938
 
 -0.4166667E+00  0.1666667E+00  0.1250000E+00  0.3472222E-02
    1       -6.108812
    2       -3.421709
    3        3.875158
    4        5.196319
    5       15.907900
    6       17.397493
    7       18.586375
    8       22.927530
 
 -0.3333333E+00  0.1666667E+00  0.1250000E+00  0.3472222E-02
    1       -6.820949
    2       -2.529062
    3        4.211145
    4        5.031898
    5       15.552347
    6       17.669448
    7       18.659940
    8       22.090667
 
 -0.2500000E+00  0.1666667E+00  0.1250000E+00  0.6944444E-02
    1       -8.261486
    2       -0.366213
    3        4.550024
    4        5.336361
    5       15.130575
    6       17.787392
    7       18.600714
    8       20.824535
 
 -0.1666667E+00  0.1666667E+00  0.1250000E+00  0.3472222E-02
    1       -9.511663
    2        2.074019
    3        4.931025
    4        5.983694
    5       14.447303
    6       17.672430
    7       18.263214
    8       20.026714
 
 -0.8333333E-01  0.1666667E+00  0.1250000E+00  0.3472222E-02
    1      -10.449826
    2        4.485951
    3        5.521415
    4        6.614542
    5       13.668248
    6       17.238155
    7       17.466830
    8       19.895791
 
  0.3333333E+00  0.2500000E+00  0.1250000E+00  0.6944444E-02
    1       -9.626885
    2        2.881787
    3        4.258786
    4        6.118568
    5       14.280296
    6       17.729134
    7       18.599568
    8       19.593394
 
  0.4166667E+00  0.2500000E+00  0.1250000E+00  0.6944444E-02
    1       -8.589694
    2        1.384555
    3        2.989433
    4        5.464619
    5       15.203285
    6       17.784783
    7       19.343551
    8       19.877683
 
  0.5000000E+00  0.2500000E+00  0.1250000E+00  0.1041667E-01
    1       -7.268484
    2       -0.778418
    3        2.649117
    4        4.751362
    5       16.040522
    6       17.493030
    7       19.818360
    8       20.951161
 
 -0.4166667E+00  0.2500000E+00  0.1250000E+00  0.6944444E-02
    1       -5.890498
    2       -2.646678
    3        2.584568
    4        4.282369
    5       16.440488
    6       17.206857
    7       20.330520
    8       22.041090
 
  0.3333333E+00  0.3333333E+00  0.1250000E+00  0.1736111E-02
    1       -9.042916
    2        2.129153
    3        4.587716
    4        4.634403
    5       13.575215
    6       18.282728
    7       19.377945
    8       19.452315
 
  0.4166667E+00  0.3333333E+00  0.1250000E+00  0.3472222E-02
    1       -8.125111
    2        1.289803
    3        3.045240
    4        4.257627
    5       13.965382
    6       17.598995
    7       19.603787
    8       20.945546
 
  0.5000000E+00  0.3333333E+00  0.1250000E+00  0.6944444E-02
    1       -6.908600
    2       -0.032127
    3        1.990799
    4        3.553295
    5       15.033963
    6       17.699009
    7       19.454062
    8       21.973215
 
 -0.4166667E+00  0.3333333E+00  0.1250000E+00  0.3472222E-02
    1       -5.519010
    2       -1.708818
    3        1.417212
    4        3.149251
    5       15.748961
    6       18.822083
    7       19.403462
    8       22.169886
 
 -0.3333333E+00  0.3333333E+00  0.1250000E+00  0.3472222E-02
    1       -4.860788
    2       -2.433277
    3        0.984108
    4        3.309077
    5       16.214348
    6       18.565390
    7       21.068780
    8       21.467876
 
 -0.2500000E+00  0.3333333E+00  0.1250000E+00  0.6944444E-02
    1       -6.017767
    2       -1.086658
    3        0.873330
    4        3.893865
    5       16.773690
    6       17.762393
    7       20.181292
    8       21.924984
 
 -0.1666667E+00  0.3333333E+00  0.1250000E+00  0.3472222E-02
    1       -7.365980
    2        0.049952
    3        1.829204
    4        4.696198
    5       16.371696
    6       17.402970
    7       19.607988
    8       21.056640
 
 -0.8333333E-01  0.3333333E+00  0.1250000E+00  0.3472222E-02
    1       -8.479546
    2        0.554531
    3        3.763656
    4        5.425365
    5       15.128828
    6       17.796970
    7       19.160326
    8       20.141264
 
  0.4166667E+00  0.4166667E+00  0.1250000E+00  0.1736111E-02
    1       -7.329099
    2        0.446565
    3        2.790441
    4        3.624597
    5       13.294927
    6       16.435886
    7       21.456742
    8       21.462941
 
  0.5000000E+00  0.4166667E+00  0.1250000E+00  0.6944444E-02
    1       -6.229160
    2       -0.591851
    3        2.138512
    4        2.904967
    5       13.899680
    6       15.938842
    7       21.483241
    8       22.774389
 
 -0.4166667E+00  0.4166667E+00  0.1250000E+00  0.3472222E-02
    1       -4.903909
    2       -1.729066
    3        1.352246
    4        2.258605
    5       15.091471
    6       16.503763
    7       21.230218
    8       22.917023
 
 -0.3333333E+00  0.4166667E+00  0.1250000E+00  0.3472222E-02
    1       -3.869343
    2       -2.543443
    3        0.307658
    4        2.495525
    5       15.605714
    6       18.712802
    7       20.740785
    8       21.818784
 
 -0.2500000E+00  0.4166667E+00  0.1250000E+00  0.6944444E-02
    1       -4.708526
    2       -1.983917
    3        0.264437
    4        3.138749
    5       16.155762
    6       19.226148
    7       20.943185
    8       21.139599
 
 -0.1666667E+00  0.4166667E+00  0.1250000E+00  0.3472222E-02
    1       -5.963520
    2       -1.848538
    3        1.689427
    4        4.017739
    5       16.723397
    6       17.386440
    7       20.518120
    8       21.804738
 
 -0.8333333E-01  0.4166667E+00  0.1250000E+00  0.3472222E-02
    1       -7.080528
    2       -1.690759
    3        3.514853
    4        4.860885
    5       15.700072
    6       17.586151
    7       19.463240
    8       21.367591
 
  0.5000000E+00  0.5000000E+00  0.1250000E+00  0.5208333E-02
    1       -5.250899
    2       -1.723263
    3        1.779913
    4        3.069936
    5       13.253672
    6       15.163987
    7       22.964177
    8       23.130240
 
 -0.4166667E+00  0.5000000E+00  0.1250000E+00  0.6944444E-02
    1       -4.029782
    2       -2.858417
    3        1.696941
    4        2.398249
    5       14.091546
    6       14.975169
    7       22.954843
    8       23.329293
 
 -0.3333333E+00  0.5000000E+00  0.1250000E+00  0.6944444E-02
    1       -3.835519
    2       -2.741427
    3        1.205392
    4        2.011677
    5       15.166446
    6       16.194268
    7       22.028865
    8       22.674741
 
 -0.2500000E+00  0.5000000E+00  0.1250000E+00  0.1041667E-01
    1       -4.617309
    2       -2.124848
    3        0.754846
    4        2.699199
    5       15.654585
    6       18.826938
    7       19.981760
    8       22.216577
 
 -0.1666667E+00  0.5000000E+00  0.1250000E+00  0.6944444E-02
    1       -5.260889
    2       -2.709727
    3        1.842390
    4        3.682172
    5       16.321036
    6       17.823345
    7       20.885129
    8       21.814701
 
 -0.8333333E-01  0.5000000E+00  0.1250000E+00  0.6944444E-02
    1       -5.893525
    2       -3.229799
    3        3.327958
    4        4.702229
    5       16.079550
    6       17.271238
    7       19.558517
    8       22.541577
 
 -0.4166667E+00 -0.4166667E+00  0.1250000E+00  0.1736111E-02
    1       -4.111847
    2       -2.908718
    3        1.597469
    4        2.957476
    5       13.280430
    6       14.869861
    7       23.322557
    8       23.555561
 
 -0.3333333E+00 -0.4166667E+00  0.1250000E+00  0.3472222E-02
    1       -5.158614
    2       -1.698685
    3        1.846831
    4        2.559530
    5       13.979531
    6       15.345801
    7       22.313192
    8       23.258774
 
 -0.2500000E+00 -0.4166667E+00  0.1250000E+00  0.6944444E-02
    1       -5.938508
    2       -0.820774
    3        1.622244
    4        2.777953
    5       15.033939
    6       17.024573
    7       20.344900
    8       22.672261
 
 -0.1666667E+00 -0.4166667E+00  0.1250000E+00  0.3472222E-02
    1       -6.420395
    2       -1.274724
    3        2.063410
    4        3.868721
    5       15.881634
    6       18.174325
    7       19.610124
    8       21.616020
 
 -0.8333333E-01 -0.4166667E+00  0.1250000E+00  0.3472222E-02
    1       -6.606762
    2       -2.331615
    3        3.183851
    4        5.010204
    5       16.428195
    6       16.920767
    7       19.450753
    8       22.262294
 
 -0.3333333E+00 -0.3333333E+00  0.1250000E+00  0.1736111E-02
    1       -6.330018
    2       -0.581561
    3        2.166568
    4        3.293350
    5       13.247260
    6       15.701205
    7       22.313988
    8       22.390101
 
 -0.2500000E+00 -0.3333333E+00  0.1250000E+00  0.6944444E-02
    1       -7.222218
    2        0.408774
    3        2.547814
    4        3.471642
    5       13.894792
    6       16.699845
    7       20.559946
    8       21.964243
 
 -0.1666667E+00 -0.3333333E+00  0.1250000E+00  0.3472222E-02
    1       -7.796298
    2        0.682941
    3        2.447928
    4        4.490449
    5       15.094497
    6       18.392124
    7       18.702295
    8       20.980236
 
 -0.8333333E-01 -0.3333333E+00  0.1250000E+00  0.3472222E-02
    1       -8.037370
    2       -0.201596
    3        3.227454
    4        5.624706
    5       16.204313
    6       16.947042
    7       19.185539
    8       21.016513
 
 -0.2500000E+00 -0.2500000E+00  0.1250000E+00  0.5208333E-02
    1       -8.236215
    2        1.332818
    3        3.643849
    4        4.058625
    5       13.405910
    6       17.327973
    7       20.420176
    8       20.490141
 
 -0.1666667E+00 -0.2500000E+00  0.1250000E+00  0.6944444E-02
    1       -8.928848
    2        2.094857
    3        3.617283
    4        5.179439
    5       14.099932
    6       18.511948
    7       18.724504
    8       19.814647
 
 -0.8333333E-01 -0.2500000E+00  0.1250000E+00  0.6944444E-02
    1       -9.280562
    2        2.111606
    3        3.607437
    4        6.360006
    5       15.335280
    6       17.123032
    7       18.589057
    8       20.223545
 
 -0.1666667E+00 -0.1666667E+00  0.1250000E+00  0.1736111E-02
    1       -9.743059
    2        2.908715
    3        5.200254
    4        5.641957
    5       13.789605
    6       18.119108
    7       18.388532
    8       19.446071
 
 -0.8333333E-01 -0.1666667E+00  0.1250000E+00  0.3472222E-02
    1      -10.214422
    2        3.685315
    3        4.958265
    4        6.965281
    5       14.480334
    6       16.901816
    7       17.423017
    8       20.332354
 
 -0.8333333E-01 -0.8333333E-01  0.1250000E+00  0.1736111E-02
    1      -10.806752
    2        4.548059
    3        6.593744
    4        7.315515
    5       14.271666
    6       16.154240
    7       16.309416
    8       20.586922
 
  0.1666667E+00  0.8333333E-01  0.2500000E+00  0.3472222E-02
    1      -10.613373
    2        4.701313
    3        5.465368
    4        7.233404
    5       14.116771
    6       16.645595
    7       16.888809
    8       20.314855
 
  0.3333333E+00  0.8333333E-01  0.2500000E+00  0.6944444E-02
    1       -9.435192
    2        3.009225
    3        4.082287
    4        5.487567
    5       13.691547
    6       18.444143
    7       18.815566
    8       19.268030
 
  0.4166667E+00  0.8333333E-01  0.2500000E+00  0.6944444E-02
    1       -8.344881
    2        1.028923
    3        3.323630
    4        4.840220
    5       14.546130
    6       18.650227
    7       18.692563
    8       20.255074
 
  0.5000000E+00  0.8333333E-01  0.2500000E+00  0.2083333E-01
    1       -6.986111
    2       -1.136483
    3        2.909657
    4        4.304650
    5       15.223333
    6       18.462543
    7       19.608463
    8       20.874619
 
 -0.4166667E+00  0.8333333E-01  0.2500000E+00  0.1388889E-01
    1       -5.684037
    2       -2.830785
    3        2.523669
    4        4.222925
    5       15.658918
    6       18.123302
    7       20.358091
    8       21.825210
 
 -0.3333333E+00  0.8333333E-01  0.2500000E+00  0.6944444E-02
    1       -6.063842
    2       -2.351031
    3        2.228212
    4        4.587543
    5       16.116538
    6       17.664945
    7       20.272378
    8       22.210260
 
 -0.2500000E+00  0.8333333E-01  0.2500000E+00  0.2083333E-01
    1       -7.472537
    2       -0.376965
    3        2.190096
    4        5.240543
    5       16.623764
    6       16.960850
    7       19.950177
    8       21.016567
 
 -0.1666667E+00  0.8333333E-01  0.2500000E+00  0.6944444E-02
    1       -8.749425
    2        1.575070
    3        2.761565
    4        6.008992
    5       15.870657
    6       17.060453
    7       19.288980
    8       20.130621
 
 -0.8333333E-01  0.8333333E-01  0.2500000E+00  0.6944444E-02
    1       -9.731047
    2        2.484190
    3        4.639078
    4        6.633843
    5       14.911811
    6       17.049106
    7       17.870167
    8       20.444796
 
  0.4166667E+00  0.3333333E+00  0.2500000E+00  0.6944444E-02
    1       -8.528766
    2        0.020035
    3        4.254038
    4        5.930953