   72   72  200    1
  0.1068060E+02  0.1162932E-08  0.8134336E-09  0.8129271E-09  0.5000000E-15
  1.000000000000000E-004
  CAR 
 diamond                                 
    120     27     98
 
  0.0000000E+00  0.0000000E+00  0.0000000E+00  0.1562500E-01
    1      -14.674923
    2      -14.533904
    3      -14.406433
    4      -14.392696
    5      -14.388546
    6      -14.384953
    7      -14.262536
    8      -14.259402
    9      -14.201087
   10      -14.118855
   11      -14.111300
   12      -14.039729
   13      -14.031378
   14      -14.030601
   15      -13.975217
   16      -13.956006
   17       -8.149866
   18       -8.029725
   19       -8.015102
   20       -8.013713
   21       -7.988612
   22       -7.974515
   23       -7.924335
   24       -7.747062
   25       -7.706542
   26       -7.694461
   27       -7.672047
   28       -7.629939
   29       -7.405262
   30       -7.400074
   31       -7.391624
   32       -7.365797
   33       -7.168865
   34       -7.164735
   35       -7.056694
   36       -7.054718
   37       -6.992200
   38       -6.944897
   39       -6.937131
   40       -6.865701
   41       -6.856905
   42       -6.832452
   43       -6.799077
   44       -6.798403
   45       -6.699644
   46       -6.688253
   47       -6.619858
   48       -6.614786
   49       -6.527981
   50       -6.516417
   51       -6.516074
   52       -6.487764
   53       -6.448826
   54       -6.448223
   55       -6.381483
   56       -6.375475
   57       -2.573819
   58       -2.382512
   59       -2.324565
   60       -2.235988
   61       -1.514973
   62       -1.491592
   63       -1.487795
   64       -1.482849
   65        1.475773
   66        2.647564
   67        2.812207
   68        2.990987
   69        2.994446
   70        3.425419
   71        3.499631
   72        3.643088
   73        3.644917
   74        3.680885
   75        3.877577
   76        3.938106
   77        4.012582
   78        4.031626
   79        4.481986
   80        4.500135
   81        4.548078
   82        4.669474
   83        4.796597
   84        4.870735
   85        5.004478
   86        5.018541
   87        5.233661
   88        5.251810
   89        5.254692
   90        5.421074
   91        5.424348
   92        5.447080
   93        5.486854
   94        5.673218
   95        5.869657
   96        5.948278
   97        5.989157
   98        6.020103
 
  0.2500000E+00  0.0000000E+00  0.0000000E+00  0.3125000E-01
    1      -14.659161
    2      -14.562182
    3      -14.403978
    4      -14.392652
    5      -14.390195
    6      -14.386031
    7      -14.262077
    8      -14.259853
    9      -14.168565
   10      -14.117726
   11      -14.112403
   12      -14.050722
   13      -14.038535
   14      -14.032641
   15      -13.972334
   16      -13.958743
   17       -8.128789
   18       -8.019640
   19       -8.015312
   20       -7.996733
   21       -7.982219
   22       -7.944757
   23       -7.923510
   24       -7.797200
   25       -7.761191
   26       -7.755768
   27       -7.665869
   28       -7.636019
   29       -7.404120
   30       -7.400566
   31       -7.387810
   32       -7.369435
   33       -7.106138
   34       -7.105589
   35       -7.057161
   36       -7.055013
   37       -6.982301
   38       -6.925612
   39       -6.899651
   40       -6.886832
   41       -6.868829
   42       -6.846016
   43       -6.828254
   44       -6.768723
   45       -6.698941
   46       -6.689779
   47       -6.659283
   48       -6.639365
   49       -6.525649
   50       -6.517655
   51       -6.512100
   52       -6.491936
   53       -6.448674
   54       -6.448206
   55       -6.380464
   56       -6.376292
   57       -2.546050
   58       -2.410806
   59       -2.311579
   60       -2.248947
   61       -1.511004
   62       -1.491769
   63       -1.490234
   64       -1.484037
   65        1.577266
   66        2.287195
   67        2.896911
   68        3.050047
   69        3.307961
   70        3.379181
   71        3.404224
   72        3.613260
   73        3.641227
   74        3.690816
   75        3.818857
   76        3.903321
   77        4.074560
   78        4.105268
   79        4.436965
   80        4.524526
   81        4.594692
   82        4.598422
   83        4.658922
   84        4.970140
   85        5.016981
   86        5.078990
   87        5.150096
   88        5.226355
   89        5.228852
   90        5.243991
   91        5.466989
   92        5.521852
   93        5.527259
   94        5.749510
   95        5.769587
   96        5.909144
   97        5.936374
   98        6.017011
 
  0.5000000E+00  0.0000000E+00  0.0000000E+00  0.1562500E-01
    1      -14.616184
    2      -14.616181
    3      -14.397996
    4      -14.397993
    5      -14.388512
    6      -14.388510
    7      -14.260983
    8      -14.260980
    9      -14.115049
   10      -14.115048
   11      -14.104183
   12      -14.104182
   13      -14.035585
   14      -14.035584
   15      -13.965429
   16      -13.965428
   17       -8.074737
   18       -8.074736
   19       -7.997107
   20       -7.997107
   21       -7.898255
   22       -7.898254
   23       -7.864358
   24       -7.864357
   25       -7.863727
   26       -7.863726
   27       -7.650872
   28       -7.650872
   29       -7.402007
   30       -7.402007
   31       -7.378532
   32       -7.378532
   33       -7.057652
   34       -7.057649
   35       -7.003065
   36       -7.003063
   37       -6.991009
   38       -6.991007
   39       -6.897438
   40       -6.897436
   41       -6.865002
   42       -6.865000
   43       -6.766141
   44       -6.766139
   45       -6.701543
   46       -6.701541
   47       -6.693059
   48       -6.693056
   49       -6.521116
   50       -6.521114
   51       -6.502062
   52       -6.502059
   53       -6.448370
   54       -6.448368
   55       -6.378302
   56       -6.378299
   57       -2.478681
   58       -2.478680
   59       -2.280240
   60       -2.280240
   61       -1.501384
   62       -1.501383
   63       -1.487046
   64       -1.487045
   65        1.865053
   66        1.865054
   67        3.126346
   68        3.126348
   69        3.209926
   70        3.209926
   71        3.569159
   72        3.569160
   73        3.688839
   74        3.688841
   75        3.801658
   76        3.801658
   77        4.253237
   78        4.253238
   79        4.281037
   80        4.281039
   81        4.664179
   82        4.664180
   83        4.870683
   84        4.870684
   85        4.986254
   86        4.986254
   87        5.058240
   88        5.058243
   89        5.221089
   90        5.221090
   91        5.613501
   92        5.613501
   93        5.714421
   94        5.714421
   95        5.728970
   96        5.728971
   97        6.050673
   98        6.050674
 
  0.0000000E+00  0.2500000E+00  0.0000000E+00  0.3125000E-01
    1      -14.640395
    2      -14.512980
    3      -14.444259
    4      -14.407703
    5      -14.387219
    6      -14.370285
    7      -14.286802
    8      -14.278956
    9      -14.177633
   10      -14.098695
   11      -14.086765
   12      -14.057696
   13      -14.029645
   14      -14.026256
   15      -13.996978
   16      -13.978281
   17       -8.054176
   18       -7.975007
   19       -7.966107
   20       -7.957397
   21       -7.937777
   22       -7.902176
   23       -7.846448
   24       -7.772997
   25       -7.753409
   26       -7.721989
   27       -7.694518
   28       -7.639088
   29       -7.534140
   30       -7.530407
   31       -7.487714
   32       -7.453694
   33       -7.090377
   34       -7.083909
   35       -6.992849
   36       -6.990793
   37       -6.971388
   38       -6.921834
   39       -6.897359
   40       -6.860128
   41       -6.840518
   42       -6.809358
   43       -6.769805
   44       -6.765190
   45       -6.731898
   46       -6.692840
   47       -6.664204
   48       -6.641161
   49       -6.588762
   50       -6.575383
   51       -6.546385
   52       -6.543911
   53       -6.493801
   54       -6.488782
   55       -6.399027
   56       -6.392573
   57       -2.521718
   58       -2.372312
   59       -2.331118
   60       -2.282640
   61       -1.508527
   62       -1.487968
   63       -1.485908
   64       -1.485440
   65        1.687504
   66        2.789958
   67        2.948776
   68        3.052259
   69        3.090396
   70        3.228306
   71        3.378320
   72        3.483959
   73        3.666434
   74        3.774892
   75        3.856039
   76        4.065882
   77        4.262722
   78        4.312123
   79        4.499082
   80        4.537556
   81        4.546789
   82        4.587222
   83        4.681709
   84        4.870457
   85        4.977791
   86        5.093190
   87        5.142887
   88        5.204054
   89        5.349069
   90        5.385216
   91        5.400161
   92        5.472289
   93        5.540256
   94        5.604537
   95        5.675142
   96        5.687778
   97        5.782061
   98        5.784673
 
  0.2500000E+00  0.2500000E+00  0.0000000E+00  0.6250000E-01
    1      -14.625848
    2      -14.537836
    3      -14.439274
    4      -14.413486
    5      -14.384790
    6      -14.372842
    7      -14.285679
    8      -14.280165
    9      -14.149278
   10      -14.096902
   11      -14.088471
   12      -14.053123
   13      -14.044339
   14      -14.033281
   15      -13.994252
   16      -13.980990
   17       -8.046671
   18       -7.964429
   19       -7.952984
   20       -7.935759
   21       -7.920187
   22       -7.911398
   23       -7.854966
   24       -7.814630
   25       -7.771958
   26       -7.745932
   27       -7.707780
   28       -7.650665
   29       -7.516134
   30       -7.512434
   31       -7.484707
   32       -7.459361
   33       -7.054909
   34       -7.054891
   35       -6.988588
   36       -6.985867
   37       -6.972407
   38       -6.919000
   39       -6.918049
   40       -6.839806
   41       -6.839145
   42       -6.832914
   43       -6.799993
   44       -6.737695
   45       -6.727452
   46       -6.699862
   47       -6.693552
   48       -6.663527
   49       -6.569359
   50       -6.567682
   51       -6.546021
   52       -6.544247
   53       -6.493749
   54       -6.489907
   55       -6.397991
   56       -6.393462
   57       -2.499843
   58       -2.394202
   59       -2.323800
   60       -2.289507
   61       -1.505229
   62       -1.489232
   63       -1.487614
   64       -1.485828
   65        1.781601
   66        2.449982
   67        3.018578
   68        3.081820
   69        3.174043
   70        3.262649
   71        3.427679
   72        3.506972
   73        3.543720
   74        3.856845
   75        3.910419
   76        4.117366
   77        4.325482
   78        4.343285
   79        4.504062
   80        4.508955
   81        4.525541
   82        4.575342
   83        4.653690
   84        4.910681
   85        4.965493
   86        4.974242
   87        5.132149
   88        5.175937
   89        5.271538
   90        5.364557
   91        5.425790
   92        5.448654
   93        5.490241
   94        5.512088
   95        5.566884
   96        5.787337
   97        5.808654
   98        5.839920
 
  0.5000000E+00  0.2500000E+00  0.0000000E+00  0.3125000E-01
    1      -14.586483
    2      -14.586480
    3      -14.426770
    4      -14.426767
    5      -14.378897
    6      -14.378895
    7      -14.282974
    8      -14.282971
    9      -14.092903
   10      -14.092902
   11      -14.091948
   12      -14.091947
   13      -14.042770
   14      -14.042770
   15      -13.987608
   16      -13.987607
   17       -8.011313
   18       -8.011312
   19       -7.913971
   20       -7.913971
   21       -7.893611
   22       -7.893610
   23       -7.836994
   24       -7.836993
   25       -7.828896
   26       -7.828895
   27       -7.678070
   28       -7.678070
   29       -7.499437
   30       -7.499437
   31       -7.474233
   32       -7.474233
   33       -6.998955
   34       -6.998953
   35       -6.988568
   36       -6.988568
   37       -6.969058
   38       -6.969057
   39       -6.896551
   40       -6.896549
   41       -6.827032
   42       -6.827029
   43       -6.776448
   44       -6.776447
   45       -6.714797
   46       -6.714794
   47       -6.688918
   48       -6.688916
   49       -6.560561
   50       -6.560559
   51       -6.545199
   52       -6.545197
   53       -6.492318
   54       -6.492316
   55       -6.395669
   56       -6.395666
   57       -2.447029
   58       -2.447028
   59       -2.306427
   60       -2.306426
   61       -1.497249
   62       -1.497248
   63       -1.486742
   64       -1.486741
   65        2.050488
   66        2.050490
   67        3.131818
   68        3.131820
   69        3.255550
   70        3.255552
   71        3.296888
   72        3.296888
   73        3.783965
   74        3.783966
   75        4.181736
   76        4.181737
   77        4.355182
   78        4.355183
   79        4.430567
   80        4.430569
   81        4.505401
   82        4.505402
   83        4.795973
   84        4.795973
   85        4.897661
   86        4.897662
   87        5.211882
   88        5.211883
   89        5.230627
   90        5.230629
   91        5.420051
   92        5.420051
   93        5.477697
   94        5.477698
   95        5.650386
   96        5.650386
   97        5.916984
   98        5.967239
 
  0.0000000E+00  0.5000000E+00  0.0000000E+00  0.1562500E-01
    1      -14.549947
    2      -14.549947
    3      -14.461241
    4      -14.461241
    5      -14.339082
    6      -14.339082
    7      -14.325260
    8      -14.325260
    9      -14.119042
   10      -14.119042
   11      -14.049104
   12      -14.049104
   13      -14.031891
   14      -14.031891
   15      -14.021178
   16      -14.021178
   17       -7.874649
   18       -7.874649
   19       -7.873103
   20       -7.873103
   21       -7.819405
   22       -7.819405
   23       -7.810429
   24       -7.810429
   25       -7.762391
   26       -7.762391
   27       -7.697353
   28       -7.697353
   29       -7.666104
   30       -7.666104
   31       -7.654078
   32       -7.654078
   33       -7.003929
   34       -7.003929
   35       -6.957223
   36       -6.957223
   37       -6.816176
   38       -6.816176
   39       -6.802210
   40       -6.802210
   41       -6.797116
   42       -6.797116
   43       -6.766346
   44       -6.766346
   45       -6.730570
   46       -6.730570
   47       -6.728814
   48       -6.728814
   49       -6.694142
   50       -6.694142
   51       -6.691031
   52       -6.691031
   53       -6.442661
   54       -6.442661
   55       -6.438547
   56       -6.438547
   57       -2.399583
   58       -2.399583
   59       -2.349896
   60       -2.349896
   61       -1.495094
   62       -1.495094
   63       -1.484253
   64       -1.484253
   65        2.257368
   66        2.257368
   67        3.113607
   68        3.113607
   69        3.276779
   70        3.276779
   71        3.456265
   72        3.456265
   73        3.696251
   74        3.696251
   75        4.137433
   76        4.137433
   77        4.286685
   78        4.286685
   79        4.352464
   80        4.352464
   81        4.711053
   82        4.711053
   83        4.919526
   84        4.919526
   85        4.973687
   86        4.973687
   87        5.061001
   88        5.061001
   89        5.272467
   90        5.272467
   91        5.509965
   92        5.509965
   93        5.517324
   94        5.517324
   95        5.606353
   96        5.606353
   97        5.893379
   98        5.893393
 
  0.2500000E+00  0.5000000E+00  0.0000000E+00  0.3125000E-01
    1      -14.539126
    2      -14.539126
    3      -14.477151
    4      -14.477151
    5      -14.337123
    6      -14.337123
    7      -14.327406
    8      -14.327406
    9      -14.101803
   10      -14.101803
   11      -14.046585
   12      -14.046585
   13      -14.034325
   14      -14.034325
   15      -14.033295
   16      -14.033295
   17       -7.897712
   18       -7.897712
   19       -7.892456
   20       -7.892456
   21       -7.817918
   22       -7.817918
   23       -7.759526
   24       -7.759526
   25       -7.756802
   26       -7.756802
   27       -7.695735
   28       -7.695735
   29       -7.670155
   30       -7.670155
   31       -7.659007
   32       -7.659007
   33       -6.996585
   34       -6.996585
   35       -6.963283
   36       -6.963283
   37       -6.838748
   38       -6.838748
   39       -6.814433
   40       -6.814433
   41       -6.793114
   42       -6.793114
   43       -6.764510
   44       -6.764510
   45       -6.763515
   46       -6.763515
   47       -6.735381
   48       -6.735381
   49       -6.668345
   50       -6.668345
   51       -6.658123
   52       -6.658123
   53       -6.442036
   54       -6.442036
   55       -6.439185
   56       -6.439185
   57       -2.391978
   58       -2.391978
   59       -2.356833
   60       -2.356833
   61       -1.493570
   62       -1.493570
   63       -1.485907
   64       -1.485907
   65        2.327277
   66        2.327277
   67        2.845998
   68        2.845998
   69        3.314021
   70        3.314021
   71        3.499305
   72        3.499305
   73        3.916816
   74        3.916816
   75        4.178630
   76        4.178630
   77        4.259023
   78        4.259023
   79        4.395156
   80        4.395156
   81        4.689180
   82        4.689180
   83        4.750771
   84        4.750771
   85        5.000796
   86        5.000796
   87        5.134748
   88        5.134748
   89        5.277322
   90        5.277322
   91        5.294959
   92        5.294959
   93        5.609649
   94        5.609649
   95        5.628155
   96        5.628155
   97        5.723008
   98        5.723008
 
  0.5000000E+00  0.5000000E+00  0.0000000E+00  0.1562500E-01
    1      -14.510545
    2      -14.510545
    3      -14.510543
    4      -14.510543
    5      -14.332340
    6      -14.332340
    7      -14.332337
    8      -14.332337
    9      -14.065251
   10      -14.065251
   11      -14.065251
   12      -14.065251
   13      -14.040286
   14      -14.040286
   15      -14.040285
   16      -14.040285
   17       -7.910637
   18       -7.910637
   19       -7.910636
   20       -7.910636
   21       -7.784336
   22       -7.784336
   23       -7.784335
   24       -7.784335
   25       -7.706499
   26       -7.706499
   27       -7.706499
   28       -7.706499
   29       -7.668936
   30       -7.668936
   31       -7.668936
   32       -7.668936
   33       -6.979616
   34       -6.979616
   35       -6.979614
   36       -6.979614
   37       -6.846166
   38       -6.846166
   39       -6.846166
   40       -6.846166
   41       -6.776211
   42       -6.776211
   43       -6.776211
   44       -6.776211
   45       -6.755985
   46       -6.755985
   47       -6.755985
   48       -6.755985
   49       -6.644370
   50       -6.644369
   51       -6.644369
   52       -6.644369
   53       -6.440623
   54       -6.440623
   55       -6.440620
   56       -6.440620
   57       -2.374069
   58       -2.374069
   59       -2.374068
   60       -2.374068
   61       -1.489800
   62       -1.489800
   63       -1.489799
   64       -1.489799
   65        2.531451
   66        2.531451
   67        2.531453
   68        2.531453
   69        3.407803
   70        3.407803
   71        3.407804
   72        3.407804
   73        4.192070
   74        4.192070
   75        4.192070
   76        4.192070
   77        4.337999
   78        4.337999
   79        4.337999
   80        4.337999
   81        4.679388
   82        4.679388
   83        4.679389
   84        4.679389
   85        4.953724
   86        4.953725
   87        4.953725
   88        4.953725
   89        5.328474
   90        5.328474
   91        5.328475
   92        5.328475
   93        5.590883
   94        5.590883
   95        5.590883
   96        5.590883
   97        5.770122
   98        5.770122
 
  0.0000000E+00  0.0000000E+00  0.2500000E+00  0.3125000E-01
    1      -14.643364
    2      -14.513464
    3      -14.458787
    4      -14.410730
    5      -14.374354
    6      -14.367168
    7      -14.282398
    8      -14.278388
    9      -14.188387
   10      -14.124892
   11      -14.094793
   12      -14.042172
   13      -14.030215
   14      -14.014569
   15      -13.984612
   16      -13.965843
   17       -8.121004
   18       -8.018708
   19       -7.990588
   20       -7.977147
   21       -7.974717
   22       -7.962720
   23       -7.930400
   24       -7.769988
   25       -7.763043
   26       -7.738177
   27       -7.684838
   28       -7.639346
   29       -7.400627
   30       -7.395779
   31       -7.389799
   32       -7.371898
   33       -7.148762
   34       -7.077411
   35       -7.071077
   36       -7.005399
   37       -6.942247
   38       -6.936430
   39       -6.926494
   40       -6.829793
   41       -6.810958
   42       -6.806508
   43       -6.782835
   44       -6.778189
   45       -6.705076
   46       -6.688474
   47       -6.645592
   48       -6.626375
   49       -6.625086
   50       -6.582757
   51       -6.506439
   52       -6.481053
   53       -6.465957
   54       -6.459178
   55       -6.457846
   56       -6.453831
   57       -2.444215
   58       -2.280272
   59       -2.215652
   60       -2.137438
   61       -1.691246
   62       -1.681554
   63       -1.620973
   64       -1.604139
   65        1.713174
   66        2.808424
   67        2.961380
   68        3.015495
   69        3.043451
   70        3.057375
   71        3.597181
   72        3.717228
   73        3.756237
   74        3.769670
   75        3.868787
   76        3.871199
   77        3.991682
   78        4.154799
   79        4.426077
   80        4.587380
   81        4.636823
   82        4.671527
   83        4.827787
   84        4.877687
   85        4.910478
   86        4.966602
   87        4.969434
   88        5.016145
   89        5.064368
   90        5.231517
   91        5.494031
   92        5.536659
   93        5.608624
   94        5.639896
   95        5.741676
   96        5.751772
   97        5.947335
   98        6.028316
 
  0.2500000E+00  0.0000000E+00  0.2500000E+00  0.6250000E-01
    1      -14.628647
    2      -14.539077
    3      -14.452492
    4      -14.418675
    5      -14.373278
    6      -14.368200
    7      -14.281788
    8      -14.278980
    9      -14.159431
   10      -14.119284
   11      -14.098172
   12      -14.056543
   13      -14.028920
   14      -14.019637
   15      -13.982158
   16      -13.968856
   17       -8.103446
   18       -8.013348
   19       -8.011479
   20       -7.985550
   21       -7.951709
   22       -7.927622
   23       -7.910243
   24       -7.807345
   25       -7.793434
   26       -7.740316
   27       -7.725456
   28       -7.656041
   29       -7.398772
   30       -7.394920
   31       -7.386909
   32       -7.373235
   33       -7.093807
   34       -7.061388
   35       -7.042892
   36       -7.014236
   37       -6.936624
   38       -6.933649
   39       -6.895599
   40       -6.842980
   41       -6.822448
   42       -6.821527
   43       -6.795026
   44       -6.758915
   45       -6.701349
   46       -6.697259
   47       -6.681309
   48       -6.648824
   49       -6.608110
   50       -6.585903
   51       -6.503066
   52       -6.485354
   53       -6.462900
   54       -6.458474
   55       -6.457900
   56       -6.454614
   57       -2.419873
   58       -2.303841
   59       -2.204325
   60       -2.149138
   61       -1.688942
   62       -1.682184
   63       -1.618632
   64       -1.606667
   65        1.802118
   66        2.445555
   67        3.007114
   68        3.009268
   69        3.061626
   70        3.398089
   71        3.532609
   72        3.759968
   73        3.786613
   74        3.796141
   75        3.826407
   76        3.854666
   77        3.946091
   78        4.185929
   79        4.400721
   80        4.470816
   81        4.518105
   82        4.718642
   83        4.852158
   84        4.852866
   85        4.920483
   86        4.969993
   87        5.009961
   88        5.023092
   89        5.211488
   90        5.231145
   91        5.401218
   92        5.527491
   93        5.635082
   94        5.670027
   95        5.710807
   96        5.743908
   97        5.836459
   98        5.980912
 
  0.5000000E+00  0.0000000E+00  0.2500000E+00  0.3125000E-01
    1      -14.588734
    2      -14.588732
    3      -14.436392
    4      -14.436389
    5      -14.370733
    6      -14.370730
    7      -14.280393
    8      -14.280390
    9      -14.107645
   10      -14.107644
   11      -14.102075
   12      -14.102075
   13      -14.025366
   14      -14.025365
   15      -13.975786
   16      -13.975785
   17       -8.059116
   18       -8.059115
   19       -8.000105
   20       -8.000105
   21       -7.885308
   22       -7.885307
   23       -7.856717
   24       -7.856716
   25       -7.844308
   26       -7.844306
   27       -7.692619
   28       -7.692618
   29       -7.395648
   30       -7.395648
   31       -7.379716
   32       -7.379716
   33       -7.038329
   34       -7.038326
   35       -6.992497
   36       -6.992495
   37       -6.972241
   38       -6.972240
   39       -6.844889
   40       -6.844887
   41       -6.823203
   42       -6.823201
   43       -6.792268
   44       -6.792267
   45       -6.702971
   46       -6.702969
   47       -6.688191
   48       -6.688189
   49       -6.594547
   50       -6.594545
   51       -6.494528
   52       -6.494526
   53       -6.459134
   54       -6.459131
   55       -6.456614
   56       -6.456611
   57       -2.361499
   58       -2.361499
   59       -2.176904
   60       -2.176903
   61       -1.684728
   62       -1.684728
   63       -1.612749
   64       -1.612748
   65        2.058270
   66        2.058272
   67        3.002411
   68        3.002412
   69        3.275301
   70        3.275303
   71        3.685308
   72        3.685309
   73        3.818797
   74        3.818798
   75        3.839536
   76        3.839538
   77        4.092724
   78        4.092725
   79        4.294469
   80        4.294470
   81        4.729725
   82        4.729725
   83        4.819872
   84        4.819873
   85        4.890760
   86        4.890760
   87        5.020918
   88        5.020920
   89        5.231050
   90        5.231052
   91        5.573803
   92        5.573803
   93        5.581178
   94        5.581178
   95        5.709597
   96        5.709597
   97        5.858453
   98        5.858454
 
  0.0000000E+00  0.2500000E+00  0.2500000E+00  0.6250000E-01
    1      -14.610122
    2      -14.492875
    3      -14.435304
    4      -14.422833
    5      -14.392038
    6      -14.389489
    7      -14.311842
    8      -14.298488
    9      -14.165174
   10      -14.101342
   11      -14.079830
   12      -14.052652
   13      -14.024235
   14      -14.023347
   15      -13.999623
   16      -13.987947
   17       -8.027811
   18       -7.943917
   19       -7.940654
   20       -7.933339
   21       -7.905463
   22       -7.901857
   23       -7.882495
   24       -7.786431
   25       -7.760437
   26       -7.744680
   27       -7.737068
   28       -7.656377
   29       -7.523208
   30       -7.514344
   31       -7.486179
   32       -7.466520
   33       -7.066441
   34       -7.020177
   35       -7.004777
   36       -6.964751
   37       -6.907181
   38       -6.903429
   39       -6.864931
   40       -6.862357
   41       -6.798294
   42       -6.794485
   43       -6.761070
   44       -6.754162
   45       -6.718980
   46       -6.697476
   47       -6.687254
   48       -6.664836
   49       -6.591294
   50       -6.585917
   51       -6.571692
   52       -6.552613
   53       -6.548161
   54       -6.533215
   55       -6.477022
   56       -6.475310
   57       -2.396579
   58       -2.269353
   59       -2.223135
   60       -2.179193
   61       -1.675193
   62       -1.669658
   63       -1.626306
   64       -1.613339
   65        1.903392
   66        2.951225
   67        3.036621
   68        3.077182
   69        3.122966
   70        3.172220
   71        3.274277
   72        3.548400
   73        3.826047
   74        3.859942
   75        3.907101
   76        3.997759
   77        4.258005
   78        4.350761
   79        4.417977
   80        4.469815
   81        4.644741
   82        4.674301
   83        4.758695
   84        4.770215
   85        4.909418
   86        5.079373
   87        5.089521
   88        5.123801
   89        5.172642
   90        5.261745
   91        5.461486
   92        5.495532
   93        5.566529
   94        5.591639
   95        5.676504
   96        5.686617
   97        5.719260
   98        5.951896
 
  0.2500000E+00  0.2500000E+00  0.2500000E+00  0.1250000E+00
    1      -14.596571
    2      -14.515388
    3      -14.429597
    4      -14.418285
    5      -14.399049
    6      -14.394681
    7      -14.309921
    8      -14.300487
    9      -14.139930
   10      -14.096779
   11      -14.081699
   12      -14.053865
   13      -14.035368
   14      -14.026523
   15      -13.998602
   16      -13.990313
   17       -8.019958
   18       -7.950618
   19       -7.923518
   20       -7.918818
   21       -7.916321
   22       -7.883091
   23       -7.873701
   24       -7.816540
   25       -7.773251
   26       -7.758928
   27       -7.746532
   28       -7.673858
   29       -7.510366
   30       -7.505904
   31       -7.485629
   32       -7.471082
   33       -7.037790
   34       -6.997024
   35       -6.992217
   36       -6.963039
   37       -6.918265
   38       -6.909918
   39       -6.864506
   40       -6.845804