   80   80  200    1
  0.9612539E+01  0.1162932E-08  0.8134336E-09  0.8129271E-09  0.5000000E-15
  1.000000000000000E-004
  CAR 
 diamond                                 
    128     27    106
 
  0.0000000E+00  0.0000000E+00  0.0000000E+00  0.1562500E-01
    1      -16.073562
    2      -16.054352
    3      -16.031028
    4      -16.029697
    5      -14.355643
    6      -14.330382
    7      -14.233683
    8      -14.232602
    9      -14.221968
   10      -14.215839
   11      -14.125166
   12      -14.112365
   13      -11.531021
   14      -11.522408
   15      -11.405852
   16      -11.400043
   17       -9.256888
   18       -9.202838
   19       -8.894452
   20       -8.853307
   21       -8.585165
   22       -8.508969
   23       -8.329199
   24       -8.288849
   25       -7.323688
   26       -7.321431
   27       -7.276475
   28       -7.210671
   29       -7.208855
   30       -7.183837
   31       -7.178016
   32       -7.012378
   33       -6.997959
   34       -6.996425
   35       -6.993950
   36       -6.907863
   37       -6.865926
   38       -6.844059
   39       -6.837601
   40       -6.827079
   41       -6.793885
   42       -6.704083
   43       -6.494563
   44       -6.418329
   45       -6.407389
   46       -6.402675
   47       -6.328115
   48       -6.327416
   49       -6.311360
   50       -6.244011
   51       -6.202113
   52       -6.161563
   53       -6.106145
   54       -6.056886
   55       -6.041407
   56       -5.977251
   57       -5.883980
   58       -5.770893
   59       -5.516639
   60       -5.513324
   61       -3.826136
   62       -3.734997
   63       -3.683723
   64       -3.646537
   65        1.280924
   66        1.577286
   67        1.596533
   68        1.836539
   69        2.192648
   70        2.447534
   71        2.620036
   72        2.753853
   73        2.920407
   74        3.290898
   75        3.349323
   76        3.676449
   77        3.746529
   78        3.782641
   79        3.816074
   80        3.824353
   81        4.053431
   82        4.210421
   83        4.454900
   84        4.696633
   85        4.710444
   86        4.722497
   87        4.939292
   88        4.962482
   89        5.007475
   90        5.128927
   91        5.496608
   92        5.678326
   93        5.681009
   94        5.736147
   95        5.797121
   96        6.073184
   97        6.076006
   98        6.108925
   99        6.141944
  100        6.150306
  101        6.383805
  102        6.424773
  103        6.495380
  104        6.508624
  105        6.594143
  106        6.600705
 
  0.2500000E+00  0.0000000E+00  0.0000000E+00  0.3125000E-01
    1      -16.070753
    2      -16.057174
    3      -16.030809
    4      -16.029837
    5      -14.353504
    6      -14.335692
    7      -14.248074
    8      -14.247138
    9      -14.205600
   10      -14.202968
   11      -14.121548
   12      -14.112401
   13      -11.529784
   14      -11.523679
   15      -11.405027
   16      -11.400898
   17       -9.249238
   18       -9.211041
   19       -8.888513
   20       -8.859406
   21       -8.583457
   22       -8.531099
   23       -8.336057
   24       -8.308188
   25       -7.324532
   26       -7.323090
   27       -7.270903
   28       -7.224675
   29       -7.218890
   30       -7.197351
   31       -7.171192
   32       -7.090888
   33       -7.005991
   34       -6.954106
   35       -6.883277
   36       -6.865986
   37       -6.822447
   38       -6.799194
   39       -6.775669
   40       -6.763855
   41       -6.759251
   42       -6.650386
   43       -6.566934
   44       -6.496864
   45       -6.416874
   46       -6.410089
   47       -6.332361
   48       -6.328410
   49       -6.286985
   50       -6.230850
   51       -6.230423
   52       -6.190436
   53       -6.149423
   54       -6.110405
   55       -6.079049
   56       -6.000288
   57       -5.890708
   58       -5.813446
   59       -5.517161
   60       -5.514910
   61       -3.779353
   62       -3.709235
   63       -3.672931
   64       -3.654473
   65        1.318858
   66        1.539133
   67        1.612761
   68        1.794818
   69        2.213368
   70        2.391801
   71        2.653755
   72        2.745613
   73        3.009237
   74        3.292522
   75        3.328811
   76        3.535136
   77        3.797959
   78        3.838210
   79        3.864891
   80        3.873516
   81        4.085064
   82        4.189629
   83        4.358521
   84        4.695376
   85        4.707133
   86        4.738391
   87        4.815665
   88        4.928594
   89        5.049262
   90        5.341171
   91        5.420436
   92        5.536722
   93        5.617680
   94        5.748576
   95        5.796190
   96        5.965862
   97        6.000401
   98        6.006540
   99        6.052284
  100        6.096796
  101        6.168212
  102        6.430509
  103        6.638852
  104        6.705439
  105        6.754601
  106        6.907345
 
  0.5000000E+00  0.0000000E+00  0.0000000E+00  0.1562500E-01
    1      -16.063971
    2      -16.063971
    3      -16.030268
    4      -16.030268
    5      -14.346130
    6      -14.346127
    7      -14.255600
    8      -14.255599
    9      -14.196086
   10      -14.196086
   11      -14.115215
   12      -14.115212
   13      -11.526714
   14      -11.526713
   15      -11.402949
   16      -11.402948
   17       -9.230362
   18       -9.230362
   19       -8.874024
   20       -8.874024
   21       -8.567150
   22       -8.567150
   23       -8.334736
   24       -8.334735
   25       -7.324829
   26       -7.324829
   27       -7.252597
   28       -7.252596
   29       -7.215873
   30       -7.215873
   31       -7.145821
   32       -7.145819
   33       -6.987363
   34       -6.987360
   35       -6.811382
   36       -6.811379
   37       -6.712168
   38       -6.712167
   39       -6.675111
   40       -6.675110
   41       -6.653078
   42       -6.653078
   43       -6.637986
   44       -6.637985
   45       -6.413524
   46       -6.413521
   47       -6.347470
   48       -6.347470
   49       -6.330633
   50       -6.330629
   51       -6.239559
   52       -6.239558
   53       -6.140834
   54       -6.140831
   55       -6.063825
   56       -6.063823
   57       -5.873771
   58       -5.873771
   59       -5.516927
   60       -5.516927
   61       -3.698009
   62       -3.698008
   63       -3.673198
   64       -3.673198
   65        1.419797
   66        1.419797
   67        1.700775
   68        1.700776
   69        2.285420
   70        2.285422
   71        2.711969
   72        2.711969
   73        3.249170
   74        3.249171
   75        3.301022
   76        3.301024
   77        3.828558
   78        3.828559
   79        4.054413
   80        4.054414
   81        4.144098
   82        4.144099
   83        4.225794
   84        4.225795
   85        4.850458
   86        4.850459
   87        4.923731
   88        4.923731
   89        5.221992
   90        5.221993
   91        5.381828
   92        5.381828
   93        5.647107
   94        5.647109
   95        5.700618
   96        5.700618
   97        6.006796
   98        6.006797
   99        6.214138
  100        6.214138
  101        6.263318
  102        6.263319
  103        6.737605
  104        6.737606
  105        6.762737
  106        6.762737
 
  0.0000000E+00  0.2500000E+00  0.0000000E+00  0.3125000E-01
    1      -16.067033
    2      -16.050449
    3      -16.036981
    4      -16.032961
    5      -14.336782
    6      -14.314810
    7      -14.242264
    8      -14.233941
    9      -14.218082
   10      -14.216476
   11      -14.142190
   12      -14.130684
   13      -11.513348
   14      -11.505084
   15      -11.424870
   16      -11.418537
   17       -9.267387
   18       -9.236040
   19       -9.078100
   20       -9.054766
   21       -8.295023
   22       -8.202844
   23       -8.176452
   24       -8.112930
   25       -7.446992
   26       -7.433889
   27       -7.416785
   28       -7.380713
   29       -7.164941
   30       -7.149573
   31       -7.132167
   32       -7.058060
   33       -6.994935
   34       -6.986616
   35       -6.948230
   36       -6.905504
   37       -6.870622
   38       -6.842326
   39       -6.815445
   40       -6.790979
   41       -6.771824
   42       -6.724165
   43       -6.491266
   44       -6.463102
   45       -6.416308
   46       -6.409864
   47       -6.404445
   48       -6.342398
   49       -6.337604
   50       -6.272910
   51       -6.157780
   52       -6.140398
   53       -6.110997
   54       -6.062382
   55       -6.060516
   56       -6.015480
   57       -5.832042
   58       -5.742542
   59       -5.575170
   60       -5.561648
   61       -3.811771
   62       -3.747648
   63       -3.678079
   64       -3.651889
   65        1.321608
   66        1.532010
   67        1.619988
   68        1.782951
   69        2.340296
   70        2.618095
   71        2.785775
   72        2.882879
   73        3.040856
   74        3.259896
   75        3.280458
   76        3.539095
   77        3.645096
   78        3.728352
   79        3.925922
   80        3.926650
   81        4.020082
   82        4.125892
   83        4.166793
   84        4.758065
   85        4.874019
   86        4.874850
   87        5.012254
   88        5.014335
   89        5.089637
   90        5.104067
   91        5.349461
   92        5.398505
   93        5.655649
   94        5.708606
   95        5.827887
   96        5.857760
   97        6.059890
   98        6.091568
   99        6.245916
  100        6.274845
  101        6.381670
  102        6.420092
  103        6.480740
  104        6.560550
  105        6.584619
  106        6.682875
 
  0.2500000E+00  0.2500000E+00  0.0000000E+00  0.6250000E-01
    1      -16.064599
    2      -16.052859
    3      -16.036350
    4      -16.033513
    5      -14.335477
    6      -14.320038
    7      -14.252939
    8      -14.248371
    9      -14.205755
   10      -14.203314
   11      -14.138362
   12      -14.130148
   13      -11.512144
   14      -11.506293
   15      -11.423955
   16      -11.419485
   17       -9.263733
   18       -9.241631
   19       -9.076807
   20       -9.060402
   21       -8.289259
   22       -8.225965
   23       -8.179897
   24       -8.135932
   25       -7.448069
   26       -7.439602
   27       -7.418775
   28       -7.393205
   29       -7.170311
   30       -7.161915
   31       -7.130108
   32       -7.085144
   33       -6.985466
   34       -6.931653
   35       -6.890174
   36       -6.875974
   37       -6.823867
   38       -6.822203
   39       -6.787650
   40       -6.724973
   41       -6.716697
   42       -6.665248
   43       -6.583539
   44       -6.514686
   45       -6.427293
   46       -6.414107
   47       -6.342735
   48       -6.338433
   49       -6.312563
   50       -6.242350
   51       -6.179688
   52       -6.176403
   53       -6.175805
   54       -6.143858
   55       -6.088661
   56       -6.082318
   57       -5.835788
   58       -5.777340
   59       -5.574459
   60       -5.565727
   61       -3.768145
   62       -3.718822
   63       -3.669864
   64       -3.656911
   65        1.358463
   66        1.565967
   67        1.567452
   68        1.742566
   69        2.361704
   70        2.554231
   71        2.812641
   72        2.877908
   73        3.073762
   74        3.218761
   75        3.306213
   76        3.513344
   77        3.573865
   78        3.806744
   79        3.975795
   80        4.027938
   81        4.091332
   82        4.112709
   83        4.249442
   84        4.602575
   85        4.663818
   86        4.746182
   87        5.098987
   88        5.138394
   89        5.179052
   90        5.218785
   91        5.362244
   92        5.429617
   93        5.566638
   94        5.569955
   95        5.700677
   96        5.924492
   97        5.940406
   98        5.972829
   99        6.176742
  100        6.295201
  101        6.404662
  102        6.507252
  103        6.571915
  104        6.622933
  105        6.630305
  106        6.646746
 
  0.5000000E+00  0.2500000E+00  0.0000000E+00  0.3125000E-01
    1      -16.058719
    2      -16.058719
    3      -16.034895
    4      -16.034895
    5      -14.329673
    6      -14.329670
    7      -14.258378
    8      -14.258377
    9      -14.196633
   10      -14.196631
   11      -14.132137
   12      -14.132133
   13      -11.509229
   14      -11.509229
   15      -11.421718
   16      -11.421717
   17       -9.253684
   18       -9.253683
   19       -9.070771
   20       -9.070771
   21       -8.265854
   22       -8.265853
   23       -8.170566
   24       -8.170565
   25       -7.446818
   26       -7.446818
   27       -7.412434
   28       -7.412434
   29       -7.171980
   30       -7.171979
   31       -7.116261
   32       -7.116261
   33       -6.963051
   34       -6.963048
   35       -6.840209
   36       -6.840206
   37       -6.729196
   38       -6.729195
   39       -6.678041
   40       -6.678040
   41       -6.652002
   42       -6.652002
   43       -6.617829
   44       -6.617828
   45       -6.413448
   46       -6.413445
   47       -6.341019
   48       -6.341015
   49       -6.271054
   50       -6.271054
   51       -6.235585
   52       -6.235584
   53       -6.201312
   54       -6.201310
   55       -6.146667
   56       -6.146665
   57       -5.823236
   58       -5.823236
   59       -5.571553
   60       -5.571553
   61       -3.693702
   62       -3.693702
   63       -3.676250
   64       -3.676250
   65        1.455420
   66        1.455420
   67        1.651106
   68        1.651106
   69        2.437663
   70        2.437666
   71        2.856020
   72        2.856021
   73        3.144665
   74        3.144665
   75        3.380973
   76        3.380975
   77        3.705111
   78        3.705111
   79        4.060826
   80        4.060827
   81        4.271662
   82        4.271662
   83        4.306309
   84        4.306310
   85        4.568315
   86        4.568316
   87        5.260060
   88        5.260062
   89        5.298874
   90        5.298875
   91        5.364044
   92        5.364045
   93        5.436685
   94        5.436685
   95        5.641628
   96        5.641628
   97        6.047468
   98        6.047469
   99        6.230177
  100        6.230178
  101        6.397197
  102        6.397198
  103        6.654627
  104        6.654628
  105        6.690842
  106        6.690842
 
  0.0000000E+00  0.5000000E+00  0.0000000E+00  0.1562500E-01
    1      -16.051715
    2      -16.051715
    3      -16.041391
    4      -16.041391
    5      -14.290235
    6      -14.290235
    7      -14.275632
    8      -14.275632
    9      -14.181366
   10      -14.181366
   11      -14.174135
   12      -14.174135
   13      -11.469770
   14      -11.469770
   15      -11.462409
   16      -11.462409
   17       -9.224962
   18       -9.224962
   19       -9.224023
   20       -9.224023
   21       -7.901385
   22       -7.901385
   23       -7.867239
   24       -7.867239
   25       -7.695025
   26       -7.695025
   27       -7.650039
   28       -7.650039
   29       -7.124262
   30       -7.124262
   31       -7.119726
   32       -7.119726
   33       -6.954863
   34       -6.954863
   35       -6.937811
   36       -6.937811
   37       -6.868304
   38       -6.868304
   39       -6.775114
   40       -6.775114
   41       -6.632024
   42       -6.632024
   43       -6.582440
   44       -6.582440
   45       -6.399796
   46       -6.399796
   47       -6.365907
   48       -6.365907
   49       -6.349762
   50       -6.349762
   51       -6.254627
   52       -6.254627
   53       -6.039622
   54       -6.039622
   55       -6.028127
   56       -6.028127
   57       -5.710063
   58       -5.710063
   59       -5.664911
   60       -5.664911
   61       -3.778893
   62       -3.778893
   63       -3.664851
   64       -3.664851
   65        1.424258
   66        1.424258
   67        1.688132
   68        1.688132
   69        2.740654
   70        2.740654
   71        3.033189
   72        3.033189
   73        3.166652
   74        3.166652
   75        3.235962
   76        3.235962
   77        3.414539
   78        3.414539
   79        4.142516
   80        4.142516
   81        4.147483
   82        4.147483
   83        4.470971
   84        4.470971
   85        4.539766
   86        4.539766
   87        4.861006
   88        4.861006
   89        5.374687
   90        5.374687
   91        5.521038
   92        5.521038
   93        5.834423
   94        5.834423
   95        5.858742
   96        5.858742
   97        5.893737
   98        5.893737
   99        6.120140
  100        6.120140
  101        6.443097
  102        6.443097
  103        6.473830
  104        6.473830
  105        6.742854
  106        6.742854
 
  0.2500000E+00  0.5000000E+00  0.0000000E+00  0.3125000E-01
    1      -16.050180
    2      -16.050180
    3      -16.042879
    4      -16.042879
    5      -14.291742
    6      -14.291742
    7      -14.281634
    8      -14.281634
    9      -14.176449
   10      -14.176449
   11      -14.171170
   12      -14.171170
   13      -11.468683
   14      -11.468683
   15      -11.463502
   16      -11.463502
   17       -9.226842
   18       -9.226842
   19       -9.226152
   20       -9.226152
   21       -7.904893
   22       -7.904893
   23       -7.883340
   24       -7.883340
   25       -7.696124
   26       -7.696124
   27       -7.666597
   28       -7.666597
   29       -7.128322
   30       -7.128322
   31       -7.127902
   32       -7.127902
   33       -6.936506
   34       -6.936506
   35       -6.880891
   36       -6.880891
   37       -6.835835
   38       -6.835835
   39       -6.714807
   40       -6.714807
   41       -6.621404
   42       -6.621404
   43       -6.582887
   44       -6.582887
   45       -6.392979
   46       -6.392979
   47       -6.372703
   48       -6.372703
   49       -6.340233
   50       -6.340233
   51       -6.270082
   52       -6.270082
   53       -6.118038
   54       -6.118038
   55       -6.087380
   56       -6.087380
   57       -5.708968
   58       -5.708968
   59       -5.680682
   60       -5.680682
   61       -3.742719
   62       -3.742719
   63       -3.663111
   64       -3.663111
   65        1.458563
   66        1.458563
   67        1.644258
   68        1.644258
   69        2.751416
   70        2.751416
   71        2.935478
   72        2.935478
   73        3.165285
   74        3.165285
   75        3.230007
   76        3.230007
   77        3.574693
   78        3.574693
   79        4.002944
   80        4.002944
   81        4.277293
   82        4.277293
   83        4.452482
   84        4.452482
   85        4.613167
   86        4.613167
   87        4.865620
   88        4.865620
   89        5.378811
   90        5.378811
   91        5.564871
   92        5.564871
   93        5.652304
   94        5.652304
   95        5.795280
   96        5.795280
   97        5.944363
   98        5.944363
   99        6.171141
  100        6.171141
  101        6.359607
  102        6.359607
  103        6.477133
  104        6.477133
  105        6.774250
  106        6.774250
 
  0.5000000E+00  0.5000000E+00  0.0000000E+00  0.1562500E-01
    1      -16.046502
    2      -16.046501
    3      -16.046499
    4      -16.046499
    5      -14.290192
    6      -14.290192
    7      -14.290189
    8      -14.290189
    9      -14.170110
   10      -14.170110
   11      -14.170107
   12      -14.170107
   13      -11.466110
   14      -11.466110
   15      -11.466109
   16      -11.466109
   17       -9.228481
   18       -9.228481
   19       -9.228480
   20       -9.228480
   21       -7.903537
   22       -7.903537
   23       -7.903537
   24       -7.903537
   25       -7.689110
   26       -7.689109
   27       -7.689109
   28       -7.689108
   29       -7.132047
   30       -7.132046
   31       -7.132046
   32       -7.132045
   33       -6.907306
   34       -6.907306
   35       -6.907303
   36       -6.907303
   37       -6.664831
   38       -6.664831
   39       -6.664831
   40       -6.664831
   41       -6.615233
   42       -6.615233
   43       -6.615232
   44       -6.615232
   45       -6.377730
   46       -6.377730
   47       -6.377729
   48       -6.377729
   49       -6.308907
   50       -6.308907
   51       -6.308905
   52       -6.308905
   53       -6.189969
   54       -6.189969
   55       -6.189968
   56       -6.189968
   57       -5.700884
   58       -5.700884
   59       -5.700884
   60       -5.700884
   61       -3.684390
   62       -3.684390
   63       -3.684389
   64       -3.684389
   65        1.546718
   66        1.546718
   67        1.546718
   68        1.546718
   69        2.809507
   70        2.809507
   71        2.809509
   72        2.809509
   73        3.199695
   74        3.199695
   75        3.199696
   76        3.199696
   77        3.816949
   78        3.816949
   79        3.816949
   80        3.816949
   81        4.388317
   82        4.388317
   83        4.388317
   84        4.388317
   85        4.778386
   86        4.778386
   87        4.778386
   88        4.778386
   89        5.398282
   90        5.398282
   91        5.398282
   92        5.398282
   93        5.802406
   94        5.802406
   95        5.802407
   96        5.802407
   97        5.974222
   98        5.974222
   99        5.974223
  100        5.974223
  101        6.470951
  102        6.470951
  103        6.470954
  104        6.470954
  105        6.605144
  106        6.605145
 
  0.0000000E+00  0.0000000E+00  0.2500000E+00  0.3125000E-01
    1      -16.066758
    2      -16.050569
    3      -16.035762
    4      -16.034077
    5      -14.338395
    6      -14.317450
    7      -14.252157
    8      -14.248459
    9      -14.206345
   10      -14.204070
   11      -14.140017
   12      -14.128850
   13      -11.514283
   14      -11.508105
   15      -11.425838
   16      -11.422260
   17       -9.210397
   18       -9.157672
   19       -8.955607
   20       -8.911862
   21       -8.512321
   22       -8.434536
   23       -8.317598
   24       -8.267018
   25       -7.399309
   26       -7.378470
   27       -7.299296
   28       -7.267628
   29       -7.261510
   30       -7.193777
   31       -7.184140
   32       -7.031694
   33       -6.985777
   34       -6.973008
   35       -6.947251
   36       -6.887613
   37       -6.868529
   38       -6.809474
   39       -6.806623
   40       -6.749557
   41       -6.733793
   42       -6.716525
   43       -6.555268
   44       -6.470315
   45       -6.423139
   46       -6.400461
   47       -6.399944
   48       -6.367212
   49       -6.300696
   50       -6.228395
   51       -6.191678
   52       -6.124175
   53       -6.106087
   54       -6.048263
   55       -6.042404
   56       -5.988437
   57       -5.828868
   58       -5.740906
   59       -5.559286
   60       -5.553875
   61       -3.802142
   62       -3.719775
   63       -3.702235
   64       -3.657818
   65        1.340329
   66        1.492224
   67        1.548727
   68        1.732957
   69        2.472801
   70        2.565788
   71        2.811439
   72        2.828811
   73        3.032602
   74        3.346283
   75        3.428640
   76        3.474697
   77        3.657236
   78        3.671503
   79        3.691549
   80        3.812675
   81        3.835619
   82        4.197457
   83        4.352259
   84        4.709675
   85        4.794455
   86        4.839999
   87        4.909599
   88        5.054621
   89        5.140783
   90        5.164477
   91        5.480674
   92        5.588818
   93        5.621160
   94        5.736777
   95        5.746105
   96        5.778379
   97        5.973789
   98        6.031288
   99        6.104803
  100        6.231822
  101        6.273163
  102        6.294074
  103        6.356421
  104        6.589547
  105        6.600757
  106        6.675370
 
  0.2500000E+00  0.0000000E+00  0.2500000E+00  0.6250000E-01
    1      -16.064376
    2      -16.052930
    3      -16.035456
    4      -16.034265
    5      -14.337221
    6      -14.322503
    7      -14.259311
    8      -14.257243
    9      -14.197570
   10      -14.196512
   11      -14.136253
   12      -14.128282
   13      -11.513392
   14      -11.509025
   15      -11.425345
   16      -11.422817
   17       -9.202888
   18       -9.165628
   19       -8.949315
   20       -8.918388
   21       -8.511025
   22       -8.457658
   23       -8.323060
   24       -8.288374
   25       -7.397741
   26       -7.383794
   27       -7.302736
   28       -7.280010
   29       -7.255809
   30       -7.204167
   31       -7.186402
   32       -7.103735
   33       -6.933101
   34       -6.894358
   35       -6.880592
   36       -6.869683
   37       -6.784607
   38       -6.754268
   39       -6.740684
   40       -6.737995
   41       -6.724379
   42       -6.676921
   43       -6.594457
   44       -6.496479
   45       -6.470111
   46       -6.440635
   47       -6.400463
   48       -6.395081
   49       -6.249634
   50       -6.214876
   51       -6.196872
   52       -6.190269
   53       -6.164648
   54       -6.119094
   55       -6.065331
   56       -6.011669
   57       -5.829768
   58       -5.772390
   59       -5.559628
   60       -5.556333
   61       -3.761169
   62       -3.699220
   63       -3.686447
   64       -3.660910
   65        1.366401
   66        1.512897
   67        1.521014
   68        1.689780
   69        2.486878
   70        2.550533
   71        2.809902
   72        2.822651
   73        3.098189
   74        3.344626
   75        3.404020
   76        3.548685
   77        3.570957
   78        3.696149
   79        3.812321
   80        3.818285
   81        3.889967
   82        4.117435
   83        4.255610
   84        4.526326
   85        4.781473
   86        4.867876
   87        4.924618
   88        5.153654
   89        5.190980
   90        5.244136
   91        5.303742
   92        5.467872
   93        5.603574
   94        5.784761
   95        5.808082
   96        5.848403
   97        5.922517
   98        5.971251
   99        5.997167
  100        6.029462
  101        6.156077
  102        6.438066
  103        6.533418
  104        6.631832
  105        6.654656
  106        6.705460
 
  0.5000000E+00  0.0000000E+00  0.2500000E+00  0.3125000E-01
    1      -16.058646
    2      -16.058646
    3      -16.034814
    4      -16.034813
    5      -14.331772
    6      -14.331769
    7      -14.264519
    8      -14.264517
    9      -14.190621
   10      -14.190618
   11      -14.130155
   12      -14.130152
   13      -11.511256
   14      -11.511256
   15      -11.424121
   16      -11.424121
   17       -9.184506
   18       -9.184506
   19       -8.933945
   20       -8.933945
   21       -8.494874
   22       -8.494873
   23       -8.318631
   24       -8.318630
   25       -7.392394
   26       -7.392394
   27       -7.297749
   28       -7.297749
   29       -7.236308
   30       -7.236307
   31       -7.159632
   32       -7.159631
   33       -6.911738
   34       -6.911735
   35       -6.747563
   36       -6.747560
   37       -6.723550
   38       -6.723550
   39       -6.665163
   40       -6.665163
   41       -6.654314
   42       -6.654314
   43       -6.631740
   44       -6.631739
   45       -6.466238
   46       -6.466236
   47       -6.407454
   48       -6.407451
   49       -6.309299
   50       -6.309298
   51       -6.246038
   52       -6.246037
   53       -6.127689
   54       -6.127687
   55       -6.076220
   56       -6.076218
   57       -5.815021
   58       -5.815021
   59       -5.559140
   60       -5.559140
   61       -3.692552
   62       -3.692552
   63       -3.675055
   64       -3.675055
   65        1.434859
   66        1.434859
   67        1.598338
   68        1.598339
   69        2.517261
   70        2.517263
   71        2.812250
   72        2.812250
   73        3.300489
   74        3.300489
   75        3.364593
   76        3.364595
   77        3.755051
   78        3.755052
   79        3.825847
   80        3.825849
   81        4.068057
   82        4.068058
   83        4.144521
   84        4.144521
   85        4.980764
   86        4.980765
   87        4.989816
   88        4.989816
   89        5.214514
   90        5.214514
   91        5.343940
   92        5.343941
   93        5.557127
   94        5.557128
   95        5.877949
   96        5.877950
   97        5.981007
   98        5.981007
   99        6.114924
  100        6.114925
  101        6.116780
  102        6.116780
  103        6.528554
  104        6.528555
  105        6.806464
  106        6.806466
 
  0.0000000E+00  0.2500000E+00  0.2500000E+00  0.6250000E-01
    1      -16.061644
    2      -16.048051
    3      -16.038524
    4      -16.037553
    5      -14.319716
    6      -14.302101
    7      -14.234674
    8      -14.233804
    9      -14.226386
   10      -14.222013
   11      -14.157186
   12      -14.147503
   13      -11.502283
   14      -11.496478
   15      -11.439808
   16      -11.435830
   17       -9.226183
   18       -9.195899
   19       -9.083652
   20       -9.059705
   21       -8.276105
   22       -8.180402
   23       -8.163051
   24       -8.086211
   25       -7.509992
   26       -7.477082
   27       -7.440425
   28       -7.387532
   29       -7.224580
   30       -7.193028
   31       -7.169132
   32       -7.107101
   33       -6.979483
   34       -6.939921
   35       -6.933996
   36       -6.840049
   37       -6.816668
   38       -6.804805
   39       -6.786182
   40       -6.758138
   41       -6.744089
   42       -6.732474
   43       -6.542263
   44       -6.466092
   45       -6.453433