16   
1    

1    
  0.0100000000000000   0.0000000000000000   0.0000000000000000
  -0.3733211400   -0.0030576700   -0.0021621000
   0.0574698700    0.0000225100    0.0000159200
   0.0010617600    0.0325137000   -0.0104730700
   0.0011065900   -0.0325892400    0.0103883500
   0.0010617600    0.0009638000    0.0341452400
   0.0011065900   -0.0010688400   -0.0341882100
  -0.0006781800   -0.0000395700   -0.0000279800
   0.0038699600    0.0000166300    0.0000117600
   0.0965375000    0.0166046900    0.0117412900
   0.0919517100   -0.0137405500   -0.0097160400
   0.0680137000    0.0002340900    0.0001553900
  -0.0060048900   -0.0000583000    0.0000199400
   0.0680137000    0.0002245300    0.0001689000
  -0.0060048900   -0.0000006300   -0.0000616100
  -0.0021030800   -0.0022737000   -0.0016077500
  -0.0020809600    0.0022485500    0.0015899700
