 running on    4 total cores
 distrk:  each k-point on    4 cores,    1 groups
 distr:  one band on    2 cores,    2 groups
 using from now: INCAR     
 vasp.5.3.5 31Mar14 (build Nov 02 2014 15:17:37) complex                        
  
 POSCAR found type information on POSCAR  H  C 
 POSCAR found :  2 types and      80 ions
 scaLAPACK will be used

 ----------------------------------------------------------------------------- 
|                                                                             |
|  ADVICE TO THIS USER RUNNING 'VASP/VAMP'   (HEAR YOUR MASTER'S VOICE ...):  |
|                                                                             |
|      You have a (more or less) 'large supercell' and for larger cells       |
|      it might be more efficient to use real space projection operators      |
|      So try LREAL= Auto  in the INCAR   file.                               |
|      Mind: If you want to do a very accurate calculations keep the          |
|      reciprocal projection scheme          (i.e. LREAL=.FALSE.)             |
|                                                                             |
 ----------------------------------------------------------------------------- 

 LDA part: xc-table for Pade appr. of Perdew
 POSCAR, INCAR and KPOINTS ok, starting setup
 WARNING: small aliasing (wrap around) errors must be expected
 FFT: planning ...
 WAVECAR not read
 WARNING: random wavefunctions but no delay for mixing, default for NELMDL
 entering main loop
       N       E                     dE             d eps       ncg     rms          rms(c)
DAV:   1     0.743165739374E+03    0.74317E+03   -0.57684E+04  5780   0.111E+03
DAV:   2    -0.196206059598E+03   -0.93937E+03   -0.91929E+03  6792   0.243E+02
DAV:   3    -0.299239114902E+03   -0.10303E+03   -0.10249E+03  7336   0.821E+01
DAV:   4    -0.301811632989E+03   -0.25725E+01   -0.25694E+01  7144   0.161E+01
DAV:   5    -0.301862097649E+03   -0.50465E-01   -0.50454E-01  7232   0.207E+00    0.563E+01
DAV:   6    -0.194786871550E+03    0.10708E+03   -0.20449E+02  6168   0.351E+01    0.218E+01
DAV:   7    -0.184193008755E+03    0.10594E+02   -0.37057E+01  6784   0.160E+01    0.995E+00
DAV:   8    -0.182756249767E+03    0.14368E+01   -0.33428E+00  7012   0.462E+00    0.140E+00
DAV:   9    -0.182695846959E+03    0.60403E-01   -0.21456E-01  6614   0.117E+00    0.518E-01
DAV:  10    -0.182716355978E+03   -0.20509E-01   -0.44272E-02  6278   0.530E-01    0.314E-01
DAV:  11    -0.182723211189E+03   -0.68552E-02   -0.93446E-03  6148   0.323E-01    0.111E-01
DAV:  12    -0.182723041635E+03    0.16955E-03   -0.12770E-03  7288   0.968E-02    0.394E-02
DAV:  13    -0.182723103872E+03   -0.62236E-04   -0.15330E-04  6286   0.392E-02    0.152E-02
DAV:  14    -0.182723108978E+03   -0.51059E-05   -0.57601E-05  6448   0.191E-02    0.550E-03
DAV:  15    -0.182723109567E+03   -0.58927E-06   -0.39030E-06  6248   0.584E-03
   1 F= -.18540578E+03 E0= -.18540578E+03  d E =-.185406E+03
 curvature:   0.00 expect dE= 0.000E+00 dE for cont linesearch  0.000E+00
 trial: gam= 0.00000 g(F)=  0.202E+05 g(S)=  0.000E+00 ort = 0.000E+00 (trialstep = 0.100E+01)
 search vector abs. value=  0.202E+05
 bond charge predicted
       N       E                     dE             d eps       ncg     rms          rms(c)
DAV:   1    -0.300661547394E+03   -0.11794E+03   -0.89967E+03  6638   0.244E+02    0.342E+01
DAV:   2    -0.335894288880E+03   -0.35233E+02   -0.73274E+02  7312   0.575E+01    0.221E+01
DAV:   3    -0.327926877368E+03    0.79674E+01   -0.42333E+01  6934   0.151E+01    0.118E+01
DAV:   4    -0.326627637620E+03    0.12992E+01   -0.44915E+00  6634   0.524E+00    0.606E+00
DAV:   5    -0.326686752436E+03   -0.59115E-01   -0.11655E+00  6934   0.296E+00    0.129E+00
DAV:   6    -0.326685819164E+03    0.93327E-03   -0.16797E-01  6580   0.107E+00    0.625E-01
DAV:   7    -0.326688403517E+03   -0.25844E-02   -0.44261E-02  6984   0.531E-01    0.182E-01
DAV:   8    -0.326688974249E+03   -0.57073E-03   -0.37665E-03  6532   0.164E-01    0.118E-01
DAV:   9    -0.326689068344E+03   -0.94096E-04   -0.15544E-03  7030   0.102E-01    0.245E-02
DAV:  10    -0.326689125111E+03   -0.56766E-04   -0.23617E-04  6678   0.398E-02    0.133E-02
DAV:  11    -0.326689147811E+03   -0.22701E-04   -0.33984E-05  6894   0.148E-02    0.655E-03
DAV:  12    -0.326689150085E+03   -0.22739E-05   -0.70054E-06  6760   0.624E-03    0.174E-03
DAV:  13    -0.326689150565E+03   -0.48008E-06   -0.82850E-07  4400   0.245E-03
   2 F= -.33027378E+03 E0= -.33027378E+03  d E =-.144868E+03
 trial-energy change: -144.867998  1 .order************************  118.448439
 step:   0.9942(harm=  0.9942)  dis= 7.03358  next Energy=-10226.184976 (dE=-0.100E+05)
 bond charge predicted
       N       E                     dE             d eps       ncg     rms          rms(c)
DAV:   1    -0.327412623354E+03   -0.72347E+00   -0.38545E+01  5750   0.156E+01    0.169E+00
DAV:   2    -0.327440380034E+03   -0.27757E-01   -0.75003E-01  6688   0.202E+00    0.877E-01
DAV:   3    -0.327434733132E+03    0.56469E-02   -0.28472E-02  6762   0.459E-01    0.402E-01
DAV:   4    -0.327435053003E+03   -0.31987E-03   -0.67923E-03  6834   0.202E-01    0.116E-01
DAV:   5    -0.327435164165E+03   -0.11116E-03   -0.11394E-03  6864   0.815E-02    0.498E-02
DAV:   6    -0.327435169317E+03   -0.51526E-05   -0.10879E-04  6660   0.281E-02    0.124E-02
DAV:   7    -0.327435170109E+03   -0.79194E-06   -0.11448E-05  6710   0.104E-02    0.520E-03
DAV:   8    -0.327435171401E+03   -0.12921E-05   -0.42694E-06  6140   0.583E-03    0.223E-03
DAV:   9    -0.327435171864E+03   -0.46276E-06   -0.89596E-07  4178   0.272E-03
   3 F= -.33102729E+03 E0= -.33102729E+03  d E =-.145622E+03
 curvature:  -0.50 expect dE=-0.758E+01 dE for cont linesearch -0.454E+00
 ZBRENT: interpolating
 opt :   0.9875  next Energy=  -331.477942 (dE=-0.146E+03)
 bond charge predicted
       N       E                     dE             d eps       ncg     rms          rms(c)
DAV:   1    -0.328272199082E+03   -0.83703E+00   -0.49790E+01  5728   0.178E+01    0.172E+00
DAV:   2    -0.328328236748E+03   -0.56038E-01   -0.10086E+00  6712   0.239E+00    0.958E-01
DAV:   3    -0.328322633027E+03    0.56037E-02   -0.36399E-02  6844   0.524E-01    0.469E-01
DAV:   4    -0.328322772491E+03   -0.13946E-03   -0.78374E-03  6784   0.235E-01    0.121E-01
DAV:   5    -0.328322935710E+03   -0.16322E-03   -0.19622E-03  6974   0.102E-01    0.543E-02
DAV:   6    -0.328322927426E+03    0.82838E-05   -0.12522E-04  6638   0.311E-02    0.212E-02
DAV:   7    -0.328322931460E+03   -0.40334E-05   -0.24600E-05  6516   0.142E-02    0.605E-03
DAV:   8    -0.328322932963E+03   -0.15034E-05   -0.48915E-06  6644   0.657E-03    0.262E-03
DAV:   9    -0.328322933575E+03   -0.61174E-06   -0.10992E-06  4202   0.320E-03
   4 F= -.33192294E+03 E0= -.33192294E+03  d E =-.146517E+03
 curvature:  -0.49 expect dE=-0.580E+01 dE for cont linesearch -0.419E+00
 ZBRENT: interpolating
 opt :   0.8099  next Energy=  -343.628173 (dE=-0.158E+03)
 bond charge predicted
       N       E                     dE             d eps       ncg     rms          rms(c)
DAV:   1     0.118052853014E+03    0.44638E+03   -0.60435E+03  7680   0.170E+02    0.415E+01
DAV:   2     0.466175564401E+02   -0.71435E+02   -0.11962E+03  6354   0.807E+01    0.264E+01
DAV:   3     0.447706453694E+02   -0.18469E+01   -0.59437E+01  6830   0.202E+01    0.209E+01
DAV:   4     0.509151014934E+02    0.61445E+01   -0.65084E+00  7072   0.810E+00    0.845E+00
DAV:   5     0.516187923880E+02    0.70369E+00   -0.36097E+00  6538   0.533E+00    0.148E+00
DAV:   6     0.515588877800E+02   -0.59905E-01   -0.29493E-01  6828   0.150E+00    0.108E+00
DAV:   7     0.515579810346E+02   -0.90675E-03   -0.85746E-02  6884   0.750E-01    0.492E-01
DAV:   8     0.515572069151E+02   -0.77412E-03   -0.11193E-02  6508   0.286E-01    0.200E-01
DAV:   9     0.515567287939E+02   -0.47812E-03   -0.56996E-03  6666   0.187E-01    0.127E-01
DAV:  10     0.515567943747E+02    0.65581E-04   -0.10491E-03  6508   0.855E-02    0.303E-02
DAV:  11     0.515567177107E+02   -0.76664E-04   -0.16331E-04  6752   0.332E-02    0.182E-02
DAV:  12     0.515566980384E+02   -0.19672E-04   -0.23432E-05  6720   0.127E-02    0.511E-03
DAV:  13     0.515566977561E+02   -0.28233E-06   -0.59102E-06  6498   0.661E-03
   5 F= 0.47532201E+02 E0= 0.47532201E+02  d E =0.232938E+03
 curvature: -13.79 expect dE=-0.773E+06 dE for cont linesearch -0.602E+06
 ZBRENT: bisectioning
 opt :   0.4049  next Energy= -3314.591179 (dE=-0.313E+04)
 bond charge predicted
       N       E                     dE             d eps       ncg     rms          rms(c)
DAV:   1    -0.154485937876E+03   -0.20604E+03   -0.10766E+04  8286   0.223E+02    0.327E+01
DAV:   2    -0.285900287617E+03   -0.13141E+03   -0.13735E+03  7438   0.852E+01    0.246E+01
DAV:   3    -0.280543919101E+03    0.53564E+01   -0.88251E+01  6824   0.222E+01    0.180E+01
DAV:   4    -0.274959418510E+03    0.55845E+01   -0.97540E+00  6938   0.772E+00    0.898E+00
DAV:   5    -0.274991100634E+03   -0.31682E-01   -0.27696E+00  6782   0.399E+00    0.358E+00
DAV:   6    -0.274925700860E+03    0.65400E-01   -0.54110E-01  6788   0.212E+00    0.112E+00
DAV:   7    -0.274997564272E+03   -0.71863E-01   -0.15160E-01  6456   0.110E+00    0.972E-01
DAV:   8    -0.274999167299E+03   -0.16030E-02   -0.32824E-02  6360   0.649E-01    0.225E-01
DAV:   9    -0.275013146303E+03   -0.13979E-01   -0.22055E-02  6152   0.369E-01    0.217E-01
DAV:  10    -0.275016391744E+03   -0.32454E-02   -0.28390E-03  6602   0.166E-01    0.633E-02
DAV:  11    -0.275017100070E+03   -0.70833E-03   -0.10225E-03  6096   0.995E-02    0.209E-02
DAV:  12    -0.275017215399E+03   -0.11533E-03   -0.50631E-05  6988   0.238E-02    0.126E-02
DAV:  13    -0.275017192824E+03    0.22575E-04   -0.22727E-05  6104   0.158E-02    0.619E-03
DAV:  14    -0.275017178918E+03    0.13906E-04   -0.48077E-06  6596   0.542E-03    0.163E-03
DAV:  15    -0.275017178231E+03    0.68753E-06   -0.76515E-07  4024   0.267E-03
   6 F= -.27866336E+03 E0= -.27866336E+03  d E =-.932576E+02
 curvature:  -0.07 expect dE=-0.113E+02 dE for cont linesearch -0.330E+01
 ZBRENT: interpolating
 opt :   0.3865  next Energy=  -287.560381 (dE=-0.102E+03)
 bond charge predicted
       N       E                     dE             d eps       ncg     rms          rms(c)
DAV:   1    -0.286783194567E+03   -0.11766E+02   -0.36712E+02  5726   0.484E+01    0.478E+00
DAV:   2    -0.288470924720E+03   -0.16877E+01   -0.18791E+01  6516   0.960E+00    0.320E+00
DAV:   3    -0.288426847566E+03    0.44077E-01   -0.26552E-01  6940   0.141E+00    0.159E+00
DAV:   4    -0.288424340368E+03    0.25072E-02   -0.71314E-02  6236   0.659E-01    0.392E-01
DAV:   5    -0.288427003468E+03   -0.26631E-02   -0.73322E-03  7034   0.231E-01    0.171E-01
DAV:   6    -0.288425996424E+03    0.10070E-02   -0.19329E-03  6588   0.131E-01    0.391E-02
DAV:   7    -0.288426162481E+03   -0.16606E-03   -0.60358E-04  6468   0.582E-02    0.243E-02
DAV:   8    -0.288426336389E+03   -0.17391E-03   -0.55606E-05  6024   0.223E-02    0.988E-03
DAV:   9    -0.288426313006E+03    0.23383E-04   -0.16333E-05  6328   0.121E-02    0.363E-03
DAV:  10    -0.288426337741E+03   -0.24735E-04   -0.37385E-06  5478   0.598E-03    0.122E-03
DAV:  11    -0.288426341231E+03   -0.34905E-05   -0.35642E-07  4376   0.189E-03    0.683E-04
DAV:  12    -0.288426343815E+03   -0.25836E-05   -0.73700E-08  3358   0.903E-04    0.203E-04
DAV:  13    -0.288426344382E+03   -0.56664E-06   -0.13033E-08  3116   0.374E-04
   7 F= -.29205823E+03 E0= -.29205823E+03  d E =-.106652E+03
 curvature:  -0.19 expect dE=-0.780E+01 dE for cont linesearch -0.228E+01
 ZBRENT: interpolating
 opt :   0.3680  next Energy=  -296.669102 (dE=-0.111E+03)
 bond charge predicted
       N       E                     dE             d eps       ncg     rms          rms(c)
DAV:   1    -0.291311537103E+03   -0.28852E+01   -0.34482E+02  5724   0.478E+01    0.374E+00
DAV:   2    -0.293126910216E+03   -0.18154E+01   -0.19259E+01  6668   0.102E+01    0.262E+00
DAV:   3    -0.293124441068E+03    0.24691E-02   -0.29560E-01  7012   0.130E+00    0.152E+00
DAV:   4    -0.293130468205E+03   -0.60271E-02   -0.43337E-02  6586   0.538E-01    0.479E-01
DAV:   5    -0.293133010238E+03   -0.25420E-02   -0.76143E-03  6992   0.215E-01    0.133E-01
DAV:   6    -0.293132724755E+03    0.28548E-03   -0.11505E-03  6486   0.972E-02    0.310E-02
DAV:   7    -0.293132790300E+03   -0.65544E-04   -0.34536E-04  6546   0.414E-02    0.189E-02
DAV:   8    -0.293132811650E+03   -0.21350E-04   -0.26751E-05  6182   0.152E-02    0.675E-03
DAV:   9    -0.293132815781E+03   -0.41311E-05   -0.61617E-06  6654   0.757E-03    0.248E-03
DAV:  10    -0.293132816710E+03   -0.92946E-06   -0.18551E-06  4752   0.419E-03
   8 F= -.29676105E+03 E0= -.29676105E+03  d E =-.111355E+03
 curvature:  -0.39 expect dE=-0.612E+01 dE for cont linesearch -0.351E-01
 ZBRENT: interpolating
 opt :   0.3663  next Energy=  -296.798641 (dE=-0.111E+03)
 bond charge predicted
       N       E                     dE             d eps       ncg     rms          rms(c)
DAV:   1    -0.293161824508E+03   -0.29009E-01   -0.31899E+00  5728   0.458E+00    0.314E-01
DAV:   2    -0.293172987240E+03   -0.11163E-01   -0.11895E-01  7030   0.761E-01    0.228E-01
DAV:   3    -0.293172959122E+03    0.28118E-04   -0.17785E-03  7128   0.102E-01    0.120E-01
DAV:   4    -0.293172970310E+03   -0.11188E-04   -0.24463E-04  6804   0.427E-02    0.205E-02
DAV:   5    -0.293172969631E+03    0.67924E-06   -0.43122E-05  6654   0.173E-02    0.100E-02
DAV:   6    -0.293172970268E+03   -0.63723E-06   -0.73342E-06  6688   0.760E-03
   9 F= -.29680434E+03 E0= -.29680434E+03  d E =-.111399E+03
 curvature:  -0.42 expect dE=-0.646E+01 dE for cont linesearch -0.113E-02
 ZBRENT: interpolating
 opt :   0.3659  next Energy=  -296.805698 (dE=-0.111E+03)
 bond charge predicted
       N       E                     dE             d eps       ncg     rms          rms(c)
DAV:   1    -0.293172968216E+03    0.14141E-05   -0.14067E-01  5728   0.960E-01    0.657E-02
DAV:   2    -0.293173461330E+03   -0.49311E-03   -0.53019E-03  7046   0.160E-01    0.479E-02
DAV:   3    -0.293173457038E+03    0.42913E-05   -0.79577E-05  7072   0.216E-02    0.261E-02
DAV:   4    -0.293173453976E+03    0.30625E-05   -0.12362E-05  6834   0.959E-03    0.433E-03
DAV:   5    -0.293173453824E+03    0.15177E-06   -0.22739E-06  5234   0.402E-03
  10 F= -.29680572E+03 E0= -.29680572E+03  d E =-.111400E+03
 curvature:  -0.50 expect dE=-0.770E+01 dE for cont linesearch -0.776E-06
 trial: gam= 0.00077 g(F)=  0.154E+02 g(S)=  0.000E+00 ort =-0.177E+00 (trialstep = 0.873E+00)
 search vector abs. value=  0.154E+02
 bond charge predicted
       N       E                     dE             d eps       ncg     rms          rms(c)
DAV:   1    -0.304130408182E+03   -0.10957E+02   -0.57188E+02  5724   0.612E+01    0.688E+00
DAV:   2    -0.303866523369E+03    0.26388E+00   -0.17960E+01  6888   0.113E+01    0.389E+00
DAV:   3    -0.303767943627E+03    0.98580E-01   -0.36488E+00  6888   0.481E+00    0.181E+00
DAV:   4    -0.303692389589E+03    0.75554E-01   -0.64015E-01  6648   0.227E+00    0.934E-01
DAV:   5    -0.303702557644E+03   -0.10168E-01   -0.75844E-02  6472   0.653E-01    0.327E-01
DAV:   6    -0.303701687811E+03    0.86983E-03   -0.73298E-03  7024   0.243E-01    0.896E-02
DAV:   7    -0.303701815544E+03   -0.12773E-03   -0.24181E-03  6904   0.130E-01    0.395E-02
DAV:   8    -0.303701805434E+03    0.10110E-04   -0.18461E-04  6624   0.337E-02    0.192E-02
DAV:   9    -0.303701807902E+03   -0.24684E-05   -0.40781E-05  6672   0.175E-02    0.522E-03
DAV:  10    -0.303701810725E+03   -0.28225E-05   -0.68489E-06  6550   0.706E-03    0.205E-03
DAV:  11    -0.303701812575E+03   -0.18504E-05   -0.93189E-07  4352   0.315E-03    0.150E-03
DAV:  12    -0.303701812680E+03   -0.10533E-06   -0.28577E-07  4276   0.176E-03
  11 F= -.30748421E+03 E0= -.30748421E+03  d E =-.106785E+02
 trial-energy change:  -10.678489  1 .order  -10.004391  -13.449444   -6.559338
 step:   1.3145(harm=  1.7044)  dis= 0.24860  next Energy=  -309.228737 (dE=-0.124E+02)
 bond charge predicted
       N       E                     dE             d eps       ncg     rms          rms(c)
DAV:   1    -0.305501380190E+03   -0.17996E+01   -0.16860E+02  5828   0.339E+01    0.373E+00
DAV:   2    -0.305291402334E+03    0.20998E+00   -0.41861E+00  6928   0.563E+00    0.209E+00
DAV:   3    -0.305256852554E+03    0.34550E-01   -0.95810E-01  6968   0.244E+00    0.901E-01
DAV:   4    -0.305243892900E+03    0.12960E-01   -0.17352E-01  6772   0.122E+00    0.546E-01
DAV:   5    -0.305241547044E+03    0.23459E-02   -0.15968E-02  6348   0.387E-01    0.106E-01
DAV:   6    -0.305241478643E+03    0.68401E-04   -0.36463E-03  6870   0.157E-01    0.600E-02
DAV:   7    -0.305241492341E+03   -0.13698E-04   -0.63366E-04  7332   0.671E-02    0.355E-02
DAV:   8    -0.305241447958E+03    0.44383E-04   -0.13262E-04  7044   0.332E-02    0.125E-02
DAV:   9    -0.305241450716E+03   -0.27577E-05   -0.51596E-05  6774   0.170E-02    0.360E-03
DAV:  10    -0.305241451243E+03   -0.52763E-06   -0.24171E-06  5544   0.450E-03
  12 F= -.30903485E+03 E0= -.30903485E+03  d E =-.122291E+02
 curvature:  -0.67 expect dE=-0.237E+02 dE for cont linesearch -0.653E-01
 trial: gam= 2.38437 g(F)=  0.357E+02 g(S)=  0.000E+00 ort =-0.123E+01 (trialstep = 0.126E+00)
 search vector abs. value=  0.117E+03
 bond charge predicted
       N       E                     dE             d eps       ncg     rms          rms(c)
DAV:   1    -0.309281361778E+03   -0.40399E+01   -0.48719E+01  5796   0.184E+01    0.155E+00
DAV:   2    -0.309309365995E+03   -0.28004E-01   -0.83525E-01  6968   0.237E+00    0.105E+00
DAV:   3    -0.309292895458E+03    0.16471E-01   -0.11583E-01  7004   0.900E-01    0.347E-01
DAV:   4    -0.309291561400E+03    0.13341E-02   -0.20492E-02  6820   0.413E-01    0.187E-01
DAV:   5    -0.309291810203E+03   -0.24880E-03   -0.25993E-03  6632   0.132E-01    0.449E-02
DAV:   6    -0.309291818672E+03   -0.84692E-05   -0.27694E-04  6982   0.469E-02    0.303E-02
DAV:   7    -0.309291824110E+03   -0.54375E-05   -0.56225E-05  6202   0.218E-02    0.126E-02
DAV:   8    -0.309291819769E+03    0.43405E-05   -0.23554E-05  6902   0.139E-02    0.302E-03
DAV:   9    -0.309291821018E+03   -0.12485E-05   -0.64301E-06  6462   0.707E-03    0.155E-03
DAV:  10    -0.309291821107E+03   -0.89576E-07   -0.16560E-07  3918   0.130E-03
  13 F= -.31308223E+03 E0= -.31308223E+03  d E =-.404738E+01
 ZBRENT: can't locate minimum, use default step
 trial-energy change:   -4.047376  1 .order   -4.023302   -4.133853   -3.912752
 step:   0.5047(harm=  2.3589)  dis= 0.25231  next Energy=  -347.679527 (dE=-0.386E+02)
 bond charge predicted
       N       E                     dE             d eps       ncg     rms          rms(c)
DAV:   1    -0.317207407523E+03   -0.79156E+01   -0.47028E+02  5822   0.569E+01    0.606E+00
DAV:   2    -0.317524898054E+03   -0.31749E+00   -0.10933E+01  7150   0.858E+00    0.443E+00
DAV:   3    -0.317099119617E+03    0.42578E+00   -0.17303E+00  7184   0.396E+00    0.108E+00
DAV:   4    -0.317085559029E+03    0.13561E-01   -0.36415E-01  6750   0.175E+00    0.561E-01
DAV:   5    -0.317084334408E+03    0.12246E-02   -0.59250E-02  7182   0.615E-01    0.215E-01
DAV:   6    -0.317085266666E+03   -0.93226E-03   -0.47228E-03  6844   0.201E-01    0.104E-01
DAV:   7    -0.317085536639E+03   -0.26997E-03   -0.53489E-04  6248   0.826E-02    0.158E-02
DAV:   8    -0.317085562481E+03   -0.25842E-04   -0.14331E-04  7392   0.308E-02    0.158E-02
DAV:   9    -0.317085569714E+03   -0.72330E-05   -0.45707E-05  6094   0.199E-02    0.687E-03
DAV:  10    -0.317085569255E+03    0.45913E-06   -0.70442E-06  7268   0.723E-03
  14 F= -.32075944E+03 E0= -.32075944E+03  d E =-.117246E+02
 curvature:  -1.31 expect dE=-0.144E+03 dE for cont linesearch -0.136E-01
 trial: gam= 1.90997 g(F)=  0.110E+03 g(S)=  0.000E+00 ort =-0.111E+01 (trialstep = 0.444E-01)
 search vector abs. value=  0.534E+03
 bond charge predicted
       N       E                     dE             d eps       ncg     rms          rms(c)
DAV:   1    -0.321376282203E+03   -0.42907E+01   -0.24537E+01  6026   0.128E+01    0.211E+00
DAV:   2    -0.321319815120E+03    0.56467E-01   -0.72902E-01  7048   0.240E+00    0.137E+00
DAV:   3    -0.321285625674E+03    0.34189E-01   -0.14788E-01  7162   0.113E+00    0.354E-01
DAV:   4    -0.321285708588E+03   -0.82914E-04   -0.40630E-02  6916   0.582E-01    0.174E-01
DAV:   5    -0.321285712841E+03   -0.42530E-05   -0.27748E-03  6612   0.175E-01    0.467E-02
DAV:   6    -0.321285781997E+03   -0.69156E-04   -0.70366E-04  6806   0.689E-02    0.317E-02
DAV:   7    -0.321285783181E+03   -0.11846E-05   -0.89066E-05  7044   0.338E-02    0.879E-03
DAV:   8    -0.321285790652E+03   -0.74705E-05   -0.31300E-05  6420   0.148E-02    0.364E-03
DAV:   9    -0.321285791330E+03   -0.67775E-06   -0.26566E-06  5380   0.559E-03
  15 F= -.32458276E+03 E0= -.32458276E+03  d E =-.382332E+01
 trial-energy change:   -3.823321  1 .order   -3.906428   -4.782464   -3.030392
 step:   0.1212(harm=  0.1212)  dis= 0.13289  next Energy=  -327.286551 (dE=-0.653E+01)
 bond charge predicted
       N       E                     dE             d eps       ncg     rms          rms(c)
DAV:   1    -0.322651238475E+03   -0.13654E+01   -0.81151E+01  6114   0.231E+01    0.452E+00
DAV:   2    -0.322435945512E+03    0.21529E+00   -0.26105E+00  7068   0.443E+00    0.299E+00
DAV:   3    -0.322281899335E+03    0.15405E+00   -0.58717E-01  7046   0.219E+00    0.590E-01
DAV:   4    -0.322283833141E+03   -0.19338E-02   -0.15692E-01  6686   0.111E+00    0.277E-01
DAV:   5    -0.322284264273E+03   -0.43113E-03   -0.87592E-03  6494   0.286E-01    0.832E-02
DAV:   6    -0.322284448537E+03   -0.18426E-03   -0.15262E-03  6988   0.103E-01    0.531E-02
DAV:   7    -0.322284475626E+03   -0.27089E-04   -0.26080E-04  7028   0.577E-02    0.194E-02
DAV:   8    -0.322284490626E+03   -0.14999E-04   -0.83312E-05  6440   0.250E-02    0.562E-03
DAV:   9    -0.322284493290E+03   -0.26642E-05   -0.82661E-06  6612   0.898E-03    0.216E-03
DAV:  10    -0.322284493611E+03   -0.32090E-06   -0.17407E-06  5722   0.411E-03
  16 F= -.32551820E+03 E0= -.32551820E+03  d E =-.475877E+01
 curvature:  -0.30 expect dE=-0.182E+02 dE for cont linesearch -0.271E+01
 ZBRENT: interpolating
 opt :   0.0825  next Energy=  -325.881650 (dE=-0.512E+01)
 bond charge predicted
       N       E                     dE             d eps       ncg     rms          rms(c)
DAV:   1    -0.323223722628E+03   -0.93923E+00   -0.22024E+01  6146   0.120E+01    0.251E+00
DAV:   2    -0.323150119341E+03    0.73603E-01   -0.66017E-01  7200   0.232E+00    0.158E+00
DAV:   3    -0.323113937774E+03    0.36182E-01   -0.18500E-01  6932   0.124E+00    0.323E-01
DAV:   4    -0.323112836583E+03    0.11012E-02   -0.48772E-02  6716   0.631E-01    0.149E-01
DAV:   5    -0.323113163571E+03   -0.32699E-03   -0.22467E-03  6492   0.148E-01    0.543E-02
DAV:   6    -0.323113188885E+03   -0.25313E-04   -0.29028E-04  6914   0.494E-02    0.281E-02
DAV:   7    -0.323113187029E+03    0.18553E-05   -0.87900E-05  7202   0.319E-02    0.943E-03
DAV:   8    -0.323113186898E+03    0.13125E-06   -0.27592E-05  6432   0.146E-02    0.306E-03
DAV:   9    -0.323113187853E+03   -0.95450E-06   -0.19513E-06  5388   0.477E-03
  17 F= -.32634896E+03 E0= -.32634896E+03  d E =-.558952E+01
 curvature:  -0.14 expect dE=-0.749E+01 dE for cont linesearch -0.955E-01
 ZBRENT: interpolating
 opt :   0.0939  next Energy=  -326.479274 (dE=-0.572E+01)
 bond charge predicted
       N       E                     dE             d eps       ncg     rms          rms(c)
DAV:   1    -0.323219799153E+03   -0.10661E+00   -0.18431E+00  6150   0.346E+00    0.692E-01
DAV:   2    -0.323214311800E+03    0.54874E-02   -0.55292E-02  7140   0.655E-01    0.443E-01
DAV:   3    -0.323211213360E+03    0.30984E-02   -0.13406E-02  6958   0.334E-01    0.896E-02
DAV:   4    -0.323211193584E+03    0.19776E-04   -0.36011E-03  6734   0.170E-01    0.412E-02
DAV:   5    -0.323211225456E+03   -0.31872E-04   -0.19203E-04  6448   0.428E-02    0.138E-02
DAV:   6    -0.323211228559E+03   -0.31025E-05   -0.27793E-05  6910   0.145E-02    0.806E-03
DAV:   7    -0.323211229388E+03   -0.82919E-06   -0.66524E-06  7098   0.906E-03
  18 F= -.32644499E+03 E0= -.32644499E+03  d E =-.568555E+01
 curvature:  -0.20 expect dE=-0.977E+01 dE for cont linesearch -0.244E-02
 trial: gam=-0.12458 g(F)=  0.498E+02 g(S)=  0.000E+00 ort =-0.258E+01 (trialstep = 0.543E-01)
 search vector abs. value=  0.587E+02
 bond charge predicted
       N       E                     dE             d eps       ncg     rms          rms(c)
DAV:   1    -0.325536981766E+03   -0.23258E+01   -0.15821E+01  5758   0.111E+01    0.146E+00
DAV:   2    -0.325516887282E+03    0.20094E-01   -0.46217E-01  7104   0.180E+00    0.923E-01
DAV:   3    -0.325498781126E+03    0.18106E-01   -0.10226E-01  7228   0.871E-01    0.241E-01
DAV:   4    -0.325497857518E+03    0.92361E-03   -0.19015E-02  7084   0.406E-01    0.130E-01
DAV:   5    -0.325497816430E+03    0.41087E-04   -0.15397E-03  6362   0.113E-01    0.350E-02
DAV:   6    -0.325497837494E+03   -0.21064E-04   -0.23102E-04  6998   0.407E-02    0.222E-02
DAV:   7    -0.325497834390E+03    0.31047E-05   -0.25069E-05  6784   0.157E-02    0.428E-03
DAV:   8    -0.325497834974E+03   -0.58409E-06   -0.90188E-06  7238   0.707E-03
  19 F= -.32873353E+03 E0= -.32873353E+03  d E =-.228854E+01
 trial-energy change:   -2.288543  1 .order   -2.302134   -2.719864   -1.884404
 step:   0.1767(harm=  0.1767)  dis= 0.05434  next Energy=  -330.872287 (dE=-0.443E+01)
 bond charge predicted
       N       E                     dE             d eps       ncg     rms          rms(c)
DAV:   1    -0.328160361721E+03   -0.26625E+01   -0.76229E+01  5742   0.239E+01    0.285E+00
DAV:   2    -0.328125447923E+03    0.34914E-01   -0.23353E+00  6968   0.393E+00    0.177E+00
DAV:   3    -0.328061601325E+03    0.63847E-01   -0.35976E-01  7152   0.159E+00    0.526E-01
DAV:   4    -0.328059059421E+03    0.25419E-02   -0.64605E-02  6948   0.726E-01    0.287E-01
DAV:   5    -0.328058567913E+03    0.49151E-03   -0.69960E-03  6452   0.232E-01    0.740E-02
DAV:   6    -0.328058598341E+03   -0.30428E-04   -0.12421E-03  6954   0.939E-02    0.460E-02
DAV:   7    -0.328058605169E+03   -0.68281E-05   -0.14875E-04  6658   0.352E-02    0.150E-02
DAV:   8    -0.328058601167E+03    0.40014E-05   -0.30675E-05  7150   0.152E-02    0.349E-03
DAV:   9    -0.328058602168E+03   -0.10008E-05   -0.63959E-06  6310   0.691E-03    0.146E-03
DAV:  10    -0.328058602124E+03    0.44620E-07   -0.18561E-07  3548   0.130E-03
  20 F= -.33131676E+03 E0= -.33131676E+03  d E =-.487177E+01
 curvature:  -0.10 expect dE=-0.918E+00 dE for cont linesearch -0.159E+00
 ZBRENT: extrapolating
 opt :   0.2228  next Energy=  -331.535101 (dE=-0.509E+01)
 bond charge predicted
       N       E                     dE             d eps       ncg     rms          rms(c)
DAV:   1    -0.328316597008E+03   -0.25799E+00   -0.10230E+01  5748   0.855E+00    0.933E-01
DAV:   2    -0.328316828393E+03   -0.23138E-03   -0.30019E-01  7126   0.138E+00    0.588E-01
DAV:   3    -0.328310038526E+03    0.67899E-02   -0.41854E-02  7132   0.544E-01    0.188E-01
DAV:   4    -0.328309694310E+03    0.34422E-03   -0.79621E-03  6958   0.257E-01    0.109E-01
DAV:   5    -0.328309601004E+03    0.93306E-04   -0.91740E-04  6488   0.848E-02    0.255E-02
DAV:   6    -0.328309602081E+03   -0.10774E-05   -0.17565E-04  6888   0.351E-02    0.156E-02
DAV:   7    -0.328309604579E+03   -0.24975E-05   -0.22717E-05  7008   0.132E-02    0.636E-03
DAV:   8    -0.328309603391E+03    0.11877E-05   -0.36331E-06  6160   0.592E-03    0.134E-03
DAV:   9    -0.328309603627E+03   -0.23616E-06   -0.13430E-06  3740   0.306E-03
  21 F= -.33159648E+03 E0= -.33159648E+03  d E =-.515149E+01
 curvature:  -0.14 expect dE=-0.115E+01 dE for cont linesearch -0.207E-01
 ZBRENT: extrapolating
 opt :   0.2451  next Energy=  -331.626056 (dE=-0.518E+01)
 bond charge predicted
       N       E                     dE             d eps       ncg     rms          rms(c)
DAV:   1    -0.328322589841E+03   -0.12986E-01   -0.23545E+00  5784   0.407E+00    0.430E-01
DAV:   2    -0.328323040639E+03   -0.45080E-03   -0.68262E-02  7142   0.656E-01    0.272E-01
DAV:   3    -0.328321618489E+03    0.14222E-02   -0.91082E-03  7084   0.254E-01    0.892E-02
DAV:   4    -0.328321542105E+03    0.76384E-04   -0.17505E-03  6956   0.121E-01    0.525E-02
DAV:   5    -0.328321521072E+03    0.21033E-04   -0.20793E-04  6486   0.403E-02    0.122E-02
DAV:   6    -0.328321521058E+03    0.13440E-07   -0.40037E-05  6932   0.168E-02    0.723E-03
DAV:   7    -0.328321521999E+03   -0.94127E-06   -0.58224E-06  6900   0.661E-03
  22 F= -.33163119E+03 E0= -.33163119E+03  d E =-.518620E+01
 curvature:  -0.20 expect dE=-0.167E+01 dE for cont linesearch -0.206E-03
 trial: gam= 0.08260 g(F)=  0.818E+01 g(S)=  0.000E+00 ort = 0.243E+00 (trialstep = 0.924E-01)
 search vector abs. value=  0.862E+01
 bond charge predicted
       N       E                     dE             d eps       ncg     rms          rms(c)
DAV:   1    -0.329094509468E+03   -0.77299E+00   -0.12084E+00  5754   0.326E+00    0.422E-01
DAV:   2    -0.329092283335E+03    0.22261E-02   -0.24756E-02  7062   0.461E-01    0.245E-01
DAV:   3    -0.329092046013E+03    0.23732E-03   -0.11805E-02  7082   0.264E-01    0.108E-01
DAV:   4    -0.329091676757E+03    0.36926E-03   -0.19451E-03  6758   0.117E-01    0.527E-02
DAV:   5    -0.329091720537E+03   -0.43780E-04   -0.53872E-04  7142   0.530E-02    0.149E-02
DAV:   6    -0.329091718259E+03    0.22777E-05   -0.23529E-05  6848   0.130E-02    0.745E-03
DAV:   7    -0.329091719638E+03   -0.13783E-05   -0.86039E-06  6988   0.695E-03    0.198E-03
DAV:   8    -0.329091720384E+03   -0.74615E-06   -0.31160E-07  3472   0.164E-03
  23 F= -.33236783E+03 E0= -.33236783E+03  d E =-.736648E+00
 ZBRENT: can't locate minimum, use default step
 trial-energy change:   -0.736648  1 .order   -0.736092   -0.758158   -0.714025
 step:   0.3698(harm=  1.5882)  dis= 0.05283  next Energy=  -338.143393 (dE=-0.651E+01)
 bond charge predicted
       N       E                     dE             d eps       ncg     rms          rms(c)
DAV:   1    -0.331119342842E+03   -0.20276E+01   -0.10906E+01  5772   0.983E+00    0.127E+00
DAV:   2    -0.331099495209E+03    0.19848E-01   -0.22466E-01  7006   0.139E+00    0.741E-01
DAV:   3    -0.331096900833E+03    0.25944E-02   -0.10810E-01  7074   0.792E-01    0.325E-01
DAV:   4    -0.331093551958E+03    0.33489E-02   -0.17265E-02  6780   0.347E-01    0.159E-01
DAV:   5    -0.331093807666E+03   -0.25571E-03   -0.50117E-03  7182   0.162E-01    0.469E-02
DAV:   6    -0.331093775022E+03    0.32644E-04   -0.23856E-04  6894   0.411E-02    0.226E-02
DAV:   7    -0.331093780715E+03   -0.56929E-05   -0.86828E-05  7072   0.221E-02    0.599E-03
DAV:   8    -0.331093783590E+03   -0.28754E-05   -0.33852E-06  6158   0.512E-03    0.329E-03
DAV:   9    -0.331093783763E+03   -0.17321E-06   -0.92204E-07  4484   0.276E-03
  24 F= -.33428482E+03 E0= -.33428482E+03  d E =-.265364E+01
 curvature:  -0.28 expect dE=-0.150E+01 dE for cont linesearch -0.118E+01
 ZBRENT: increasing intervall
 opt :   0.9245  next Energy=  -336.690241 (dE=-0.506E+01)
 bond charge predicted
       N       E                     dE             d eps       ncg     rms          rms(c)
DAV:   1    -0.333542989300E+03   -0.24492E+01   -0.43840E+01  5946   0.199E+01    0.257E+00
DAV:   2    -0.333465017140E+03    0.77972E-01   -0.93819E-01  6926   0.279E+00    0.152E+00
DAV:   3    -0.333453473706E+03    0.11543E-01   -0.44317E-01  7112   0.157E+00    0.646E-01
DAV:   4    -0.333440186272E+03    0.13287E-01   -0.66412E-02  6810   0.664E-01    0.315E-01
DAV:   5    -0.333441279321E+03   -0.10930E-02   -0.19564E-02  7182   0.327E-01    0.103E-01
DAV:   6    -0.333441052920E+03    0.22640E-03   -0.11574E-03  6750   0.896E-02    0.442E-02
DAV:   7    -0.333441071186E+03   -0.18266E-04   -0.44396E-04  7214   0.507E-02    0.133E-02
DAV:   8    -0.333441076734E+03   -0.55482E-05   -0.17734E-05  6474   0.119E-02    0.648E-03
DAV:   9    -0.333441078037E+03   -0.13030E-05   -0.54402E-06  6574   0.594E-03    0.191E-03
DAV:  10    -0.333441078149E+03   -0.11217E-06   -0.62939E-07  4036   0.233E-03
  25 F= -.33647647E+03 E0= -.33647647E+03  d E =-.484528E+01
 curvature:  -0.57 expect dE=-0.366E+01 dE for cont linesearch -0.188E+00
 ZBRENT: extrapolating
 opt :   1.1400  next Energy=  -336.658333 (dE=-0.503E+01)
 bond charge predicted
       N       E                     dE             d eps       ncg     rms          rms(c)
DAV:   1    -0.333648226427E+03   -0.20715E+00   -0.67139E+00  6370   0.787E+00    0.105E+00
DAV:   2    -0.333633774533E+03    0.14452E-01   -0.13966E-01  6774   0.106E+00    0.600E-01
DAV:   3    -0.333632303022E+03    0.14715E-02   -0.67254E-02  7064   0.600E-01    0.247E-01
DAV:   4    -0.333630450202E+03    0.18528E-02   -0.89539E-03  6748   0.236E-01    0.125E-01
DAV:   5    -0.333630648457E+03   -0.19826E-03   -0.26235E-03  7100   0.122E-01    0.368E-02
DAV:   6    -0.333630622373E+03    0.26084E-04   -0.13982E-04  6624   0.314E-02    0.175E-02
DAV:   7    -0.333630624607E+03   -0.22346E-05   -0.61315E-05  7236   0.189E-02    0.477E-03
DAV:   8    -0.333630625916E+03   -0.13088E-05   -0.28556E-06  5980   0.475E-03    0.240E-03
DAV:   9    -0.333630626249E+03   -0.33276E-06   -0.57800E-07  4174   0.209E-03
  26 F= -.33662717E+03 E0= -.33662717E+03  d E =-.499598E+01
 curvature:  -0.55 expect dE=-0.573E+01 dE for cont linesearch -0.722E-02
 trial: gam= 1.33020 g(F)=  0.104E+02 g(S)=  0.000E+00 ort =-0.336E+00 (trialstep = 0.105E+00)
 search vector abs. value=  0.248E+02
 bond charge predicted
       N       E                     dE             d eps       ncg     rms          rms(c)
DAV:   1    -0.334642238527E+03   -0.10116E+01   -0.54362E+00  5796   0.668E+00    0.655E-01
DAV:   2    -0.334647003759E+03   -0.47652E-02   -0.14898E-01  7068   0.101E+00    0.442E-01
DAV:   3    -0.334644923190E+03    0.20806E-02   -0.21530E-02  7116   0.434E-01    0.127E-01
DAV:   4    -0.334644727385E+03    0.19581E-03   -0.49523E-03  6586   0.190E-01    0.729E-02
DAV:   5    -0.334644778609E+03   -0.51224E-04   -0.53586E-04  7190   0.537E-02    0.173E-02
DAV:   6    -0.334644779574E+03   -0.96498E-06   -0.46232E-05  6648   0.180E-02    0.861E-03
DAV:   7    -0.334644780561E+03   -0.98673E-06   -0.77532E-06  6428   0.810E-03
  27 F= -.33761833E+03 E0= -.33761833E+03  d E =-.991164E+00
 ZBRENT: can't locate minimum, use default step
 trial-energy change:   -0.991164  1 .order   -0.988150   -1.046433   -0.929867
 step:   0.4206(harm=  0.9439)  dis= 0.11529  next Energy=  -339.893077 (dE=-0.327E+01)
 bond charge predicted
       N       E                     dE             d eps       ncg     rms          rms(c)
DAV:   1    -0.336700859868E+03   -0.20561E+01   -0.50330E+01  5810   0.204E+01    0.212E+00
DAV:   2    -0.336737156755E+03   -0.36297E-01   -0.15025E+00  6992   0.314E+00    0.151E+00
DAV:   3    -0.336707482139E+03    0.29675E-01   -0.29572E-01  7038   0.160E+00    0.454E-01
DAV:   4    -0.336703777601E+03    0.37045E-02   -0.69280E-02  6552   0.707E-01    0.251E-01
DAV:   5    -0.336703791914E+03   -0.14313E-04   -0.80584E-03  7002   0.209E-01    0.619E-02
DAV:   6    -0.336703842237E+03   -0.50323E-04   -0.79673E-04  6774   0.711E-02    0.299E-02
DAV:   7    -0.336703858085E+03   -0.15848E-04   -0.77443E-05  6464   0.262E-02    0.535E-03
DAV:   8    -0.336703860808E+03   -0.27234E-05   -0.13291E-05  7104   0.956E-03    0.323E-03
DAV:   9    -0.336703861607E+03   -0.79893E-06   -0.21926E-06  5432   0.437E-03
  28 F= -.33965880E+03 E0= -.33965880E+03  d E =-.303163E+01
 curvature:  -0.72 expect dE=-0.384E+01 dE for cont linesearch -0.378E+00
 ZBRENT: increasing intervall
 opt :   1.0514  next Energy=  -338.634968 (dE=-0.201E+01)
 bond charge predicted
       N       E                     dE             d eps       ncg     rms          rms(c)
DAV:   1    -0.333086054022E+03    0.36178E+01   -0.21772E+02  6024   0.417E+01    0.578E+00
DAV:   2    -0.332987523126E+03    0.98531E-01   -0.78268E+00  6884   0.655E+00    0.418E+00
DAV:   3    -0.332740871598E+03    0.24665E+00   -0.25986E+00  6884   0.436E+00    0.148E+00
DAV:   4    -0.332671091516E+03    0.69780E-01   -0.50814E-01  6580   0.193E+00    0.676E-01
DAV:   5    -0.332670555776E+03    0.53574E-03   -0.10395E-01  6932   0.702E-01    0.225E-01
DAV:   6    -0.332670301126E+03    0.25465E-03   -0.90657E-03  6742   0.232E-01    0.887E-02
DAV:   7    -0.332670402910E+03   -0.10178E-03   -0.71372E-04  6520   0.654E-02    0.147E-02
DAV:   8    -0.332670413254E+03   -0.10344E-04   -0.55262E-05  7252   0.199E-02    0.706E-03
DAV:   9    -0.332670414364E+03   -0.11095E-05   -0.87425E-06  6350   0.939E-03    0.315E-03
DAV:  10    -0.332670414021E+03    0.34294E-06   -0.10181E-06  5052   0.368E-03
  29 F= -.33563557E+03 E0= -.33563557E+03  d E =0.991599E+00
 curvature:   1.94 expect dE= 0.613E+02 dE for cont linesearch  0.341E+02
 ZBRENT: bracketing found
 ZBRENT: interpolating
 opt :   0.5137  next Energy=  -339.826958 (dE=-0.320E+01)
 bond charge predicted
       N       E                     dE             d eps       ncg     rms          rms(c)
DAV:   1    -0.337449332079E+03   -0.47789E+01   -0.16051E+02  6362   0.350E+01    0.556E+00
DAV:   2    -0.337102983071E+03    0.34635E+00   -0.52745E+00  6688   0.593E+00    0.339E+00
DAV:   3    -0.336948195008E+03    0.15479E+00   -0.12384E+00  6958   0.295E+00    0.888E-01
DAV:   4    -0.336941263209E+03    0.69318E-02   -0.23538E-01  6672   0.131E+00    0.491E-01
DAV:   5    -0.336943651616E+03   -0.23884E-02   -0.21501E-02  6676   0.346E-01    0.135E-01
DAV:   6    -0.336943319547E+03    0.33207E-03   -0.23139E-03  7062   0.135E-01    0.661E-02
DAV:   7    -0.336943359295E+03   -0.39748E-04   -0.58512E-04  6458   0.632E-02    0.303E-02
DAV:   8    -0.336943335337E+03    0.23958E-04   -0.99689E-05  7158   0.278E-02    0.763E-03
DAV:   9    -0.336943341283E+03   -0.59461E-05   -0.41327E-05  6426   0.160E-02    0.703E-03
DAV:  10    -0.336943340580E+03    0.70290E-06   -0.17737E-06  5706   0.405E-03
  30 F= -.33989733E+03 E0= -.33989733E+03  d E =-.327017E+01
 curvature:  -0.01 expect dE=-0.481E-01 dE for cont linesearch -0.816E-03
 trial: gam= 0.00592 g(F)=  0.502E+01 g(S)=  0.000E+00 ort = 0.145E+01 (trialstep = 0.187E+00)
 search vector abs. value=  0.504E+01
 bond charge predicted
       N       E                     dE             d eps       ncg     rms          rms(c)
DAV:   1    -0.337760636249E+03   -0.81729E+00   -0.57638E+00  5738   0.732E+00    0.103E+00
DAV:   2    -0.337736232791E+03    0.24403E-01   -0.13407E-01  7222   0.110E+00    0.570E-01
DAV:   3    -0.337733008531E+03    0.32243E-02   -0.89948E-02  7198   0.759E-01    0.274E-01
DAV:   4    -0.337730790528E+03    0.22180E-02   -0.15732E-02  6986   0.333E-01    0.115E-01
DAV:   5    -0.337730817663E+03   -0.27135E-04   -0.21233E-03  7088   0.109E-01    0.183E-02
DAV:   6    -0.337730819511E+03   -0.18478E-05   -0.73699E-05  7038   0.238E-02    0.157E-02
DAV:   7    -0.337730813481E+03    0.60295E-05   -0.10837E-05  6736   0.943E-03    0.576E-03
DAV:   8    -0.337730812359E+03    0.11225E-05   -0.77353E-06  6636   0.665E-03    0.221E-03
DAV:   9    -0.337730812223E+03    0.13629E-06   -0.74898E-07  3658   0.260E-03
  31 F= -.34068913E+03 E0= -.34068913E+03  d E =-.791800E+00
 trial-energy change:   -0.791800  1 .order   -0.793915   -0.939314   -0.648516
 step:   0.6827(harm=  0.6036)  dis= 0.04559  next Energy=  -341.509963 (dE=-0.161E+01)
 bond charge predicted
       N       E                     dE             d eps       ncg     rms          rms(c)
DAV:   1    -0.338693176784E+03   -0.96236E+00   -0.39641E+01  5732   0.193E+01    0.262E+00
DAV:   2    -0.338548632182E+03    0.14454E+00   -0.99184E-01  7134   0.293E+00    0.147E+00
DAV:   3    -0.338527273038E+03    0.21359E-01   -0.60088E-01  7100   0.188E+00    0.717E-01
DAV:   4    -0.338511669336E+03    0.15604E-01   -0.10412E-01  6970   0.828E-01    0.301E-01
DAV:   5    -0.338512200022E+03   -0.53069E-03   -0.13990E-02  6904   0.277E-01    0.553E-02
DAV:   6    -0.338512191078E+03    0.89447E-05   -0.44690E-04  7036   0.595E-02    0.414E-02
DAV:   7    -0.338512163076E+03    0.28001E-04   -0.15407E-04  6870   0.317E-02    0.920E-03
DAV:   8    -0.338512162783E+03    0.29367E-06   -0.19758E-05  6526   0.132E-02    0.487E-03
DAV:   9    -0.338512162688E+03    0.94929E-07   -0.45934E-06  7080   0.535E-03
  32 F= -.34148966E+03 E0= -.34148966E+03  d E =-.159233E+01
 curvature:  -0.29 expect dE=-0.444E+00 dE for cont linesearch -0.639E-03
 trial: gam= 0.32563 g(F)=  0.152E+01 g(S)=  0.000E+00 ort =-0.105E+00 (trialstep = 0.286E+00)
 search vector abs. value=  0.199E+01
 bond charge predicted
       N       E                     dE             d eps       ncg     rms          rms(c)
DAV:   1    -0.338859375671E+03   -0.34721E+00   -0.73388E+00  5974   0.797E+00    0.732E-01
DAV:   2    -0.338864628249E+03   -0.52526E-02   -0.15057E-01  7156   0.106E+00    0.520E-01
DAV:   3    -0.338860678503E+03    0.39497E-02   -0.21205E-02  7260   0.435E-01    0.114E-01
DAV:   4    -0.338860501331E+03    0.17717E-03   -0.45154E-03  6614   0.178E-01    0.600E-02
DAV:   5    -0.338860520301E+03   -0.18970E-04   -0.52933E-04  7258   0.532E-02    0.195E-02
DAV:   6    -0.338860514459E+03    0.58425E-05   -0.36646E-05  6730   0.148E-02    0.104E-02
DAV:   7    -0.338860515183E+03   -0.72407E-06   -0.11189E-05  6246   0.944E-03    0.375E-03
DAV:   8    -0.338860514969E+03    0.21412E-06   -0.16119E-06  5154   0.365E-03
  33 F= -.34183201E+03 E0= -.34183201E+03  d E =-.342353E+00
 trial-energy change:   -0.342353  1 .order   -0.342264   -0.426068   -0.258459
 step:   0.7271(harm=  0.7271)  dis= 0.04528  next Energy=  -342.031200 (dE=-0.542E+00)
 bond charge predicted
       N       E                     dE             d eps       ncg     rms          rms(c)
DAV:   1    -0.339063647685E+03   -0.20313E+00   -0.17526E+01  5984   0.123E+01    0.116E+00
DAV:   2    -0.339073620842E+03   -0.99732E-02   -0.35933E-01  7124   0.164E+00    0.811E-01
DAV:   3    -0.339063722243E+03    0.98986E-02   -0.50661E-02  7268   0.666E-01    0.180E-01
DAV:   4    -0.339063350823E+03    0.37142E-03   -0.10789E-02  6606   0.272E-01    0.961E-02
DAV:   5    -0.339063417453E+03   -0.66630E-04   -0.11732E-03  7226   0.811E-02    0.303E-02
DAV:   6    -0.339063403380E+03    0.14072E-04   -0.84930E-05  6674   0.232E-02    0.166E-02
DAV:   7    -0.339063406632E+03   -0.32519E-05   -0.32269E-05  6292   0.157E-02    0.687E-03
DAV:   8    -0.339063405698E+03    0.93397E-06   -0.48674E-06  6802   0.613E-03
  34 F= -.34203061E+03 E0= -.34203061E+03  d E =-.540954E+00
 curvature:  -0.49 expect dE=-0.103E+01 dE for cont linesearch -0.533E-05
 trial: gam= 1.43018 g(F)=  0.213E+01 g(S)=  0.000E+00 ort =-0.467E-02 (trialstep = 0.120E+00)
 search vector abs. value=  0.619E+01
 bond charge predicted
       N       E                     dE             d eps       ncg     rms          rms(c)
DAV:   1    -0.339312882794E+03   -0.24948E+00   -0.26917E+00  5752   0.481E+00    0.459E-01
DAV:   2    -0.339312752148E+03    0.13065E-03   -0.33761E-02  7084   0.501E-01    0.277E-01
DAV:   3    -0.339311887069E+03    0.86508E-03   -0.57319E-03  7300   0.199E-01    0.547E-02
DAV:   4    -0.339311885907E+03    0.11613E-05   -0.85113E-04  6596   0.753E-02    0.323E-02
DAV:   5    -0.339311889547E+03   -0.36392E-05   -0.10063E-04  7074   0.253E-02    0.848E-03
DAV:   6    -0.339311889813E+03   -0.26605E-06   -0.12758E-05  6578   0.939E-03    0.453E-03
DAV:   7    -0.339311890092E+03   -0.27968E-06   -0.18632E-06  5086   0.374E-03
  35 F= -.34227831E+03 E0= -.34227831E+03  d E =-.247700E+00
 ZBRENT: can't locate minimum, use default step
 trial-energy change:   -0.247700  1 .order   -0.248036   -0.255596   -0.240477
 step:   0.4814(harm=  2.0345)  dis= 0.05345  next Energy=  -344.191116 (dE=-0.216E+01)
 bond charge predicted
       N       E                     dE             d eps       ncg     rms          rms(c)
DAV:   1    -0.340008409469E+03   -0.69652E+00   -0.24063E+01  5724   0.144E+01    0.144E+00
DAV:   2    -0.340001294169E+03    0.71153E-02   -0.29510E-01  7034   0.150E+00    0.865E-01
DAV:   3    -0.339991344464E+03    0.99497E-02   -0.60914E-02  7282   0.680E-01    0.175E-01
DAV:   4    -0.339991435036E+03   -0.90572E-04   -0.10851E-02  6586   0.268E-01    0.112E-01
DAV:   5    -0.339991429997E+03    0.50383E-05   -0.99792E-04  6988   0.830E-02    0.275E-02
DAV:   6    -0.339991448887E+03   -0.18889E-04   -0.13373E-04  6576   0.305E-02    0.130E-02
DAV:   7    -0.339991453490E+03   -0.46036E-05   -0.16411E-05  6812   0.113E-02    0.412E-03
DAV:   8    -0.339991453695E+03   -0.20474E-06   -0.27108E-06  6182   0.454E-03
  36 F= -.34295567E+03 E0= -.34295567E+03  d E =-.925060E+00
 curvature:  -1.01 expect dE=-0.203E+01 dE for cont linesearch -0.526E+00
 ZBRENT: increasing intervall
 opt :   1.2035  next Energy=  -344.101354 (dE=-0.207E+01)
 bond charge predicted
       N       E                     dE             d eps       ncg     rms          rms(c)
DAV:   1    -0.341434667318E+03   -0.14432E+01   -0.95062E+01  5724   0.292E+01    0.322E+00
DAV:   2    -0.341348768390E+03    0.85899E-01   -0.12664E+00  7006   0.313E+00    0.190E+00
DAV:   3    -0.341288490156E+03    0.60278E-01   -0.29875E-01  7234   0.148E+00    0.412E-01
DAV:   4    -0.341288972300E+03   -0.48214E-03   -0.53128E-02  6646   0.574E-01    0.251E-01
DAV:   5    -0.341289254341E+03   -0.28204E-03   -0.29307E-03  6668   0.142E-01    0.617E-02
DAV:   6    -0.341289372736E+03   -0.11839E-03   -0.31109E-04  7056   0.435E-02    0.195E-02
DAV:   7    -0.341289392880E+03   -0.20144E-04   -0.30512E-05  6692   0.171E-02    0.675E-03
DAV:   8    -0.341289394678E+03   -0.17981E-05   -0.65279E-06  6700   0.710E-03    0.290E-03
DAV:   9    -0.341289395272E+03   -0.59413E-06   -0.12454E-06  4758   0.323E-03
  37 F= -.34424975E+03 E0= -.34424975E+03  d E =-.221914E+01
 curvature:  -2.21 expect dE=-0.261E+02 dE for cont linesearch -0.123E+01
 ZBRENT: increasing intervall
 opt :   2.6476  next Energy=  -347.024091 (dE=-0.499E+01)
 bond charge predicted
       N       E                     dE             d eps       ncg     rms          rms(c)
DAV:   1    -0.344513537747E+03   -0.32241E+01   -0.37367E+02  5724   0.566E+01    0.625E+00
DAV:   2    -0.344377339608E+03    0.13620E+00   -0.69463E+00  6998   0.694E+00    0.418E+00
DAV:   3    -0.344007997732E+03    0.36934E+00   -0.14148E+00  6878   0.329E+00    0.736E-01
DAV:   4    -0.344027017906E+03   -0.19020E-01   -0.27174E-01  6716   0.126E+00    0.503E-01
DAV:   5    -0.344027310295E+03   -0.29239E-03   -0.91448E-03  7080   0.275E-01    0.190E-01
DAV:   6    -0.344027931866E+03   -0.62157E-03   -0.17673E-03  6740   0.110E-01    0.391E-02
DAV:   7    -0.344028008953E+03   -0.77086E-04   -0.15332E-04  7214   0.376E-02    0.179E-02
DAV:   8    -0.344028024258E+03   -0.15305E-04   -0.27035E-05  6336   0.145E-02    0.742E-03
DAV:   9    -0.344028027854E+03   -0.35965E-05   -0.45898E-06  6316   0.637E-03    0.162E-03
DAV:  10    -0.344028028257E+03   -0.40293E-06   -0.33229E-07  5088   0.182E-03
  38 F= -.34698536E+03 E0= -.34698536E+03  d E =-.495475E+01
 curvature:  -4.98 expect dE=-0.388E+03 dE for cont linesearch -0.202E+01
 ZBRENT: increasing intervall
 opt :   5.5360  next Energy=  -350.779936 (dE=-0.875E+01)
 bond charge predicted
       N       E                     dE             d eps       ncg     rms          rms(c)
DAV:   1    -0.334293211316E+03    0.97348E+01   -0.13939E+03  5736   0.107E+02    0.874E+00
DAV:   2    -0.338625991630E+03   -0.43328E+01   -0.52795E+01  6960   0.184E+01    0.668E+00
DAV:   3    -0.338332948884E+03    0.29304E+00   -0.10459E+00  6864   0.286E+00    0.388E+00
DAV:   4    -0.338238785046E+03    0.94164E-01   -0.53109E-01  6698   0.203E+00    0.675E-01
DAV:   5    -0.338245453003E+03   -0.66680E-02   -0.75073E-02  6896   0.720E-01    0.339E-01
DAV:   6    -0.338243479331E+03    0.19737E-02   -0.11481E-02  6626   0.288E-01    0.124E-01
DAV:   7    -0.338243771136E+03   -0.29181E-03   -0.13588E-03  6472   0.108E-01    0.358E-02
DAV:   8    -0.338243861917E+03   -0.90782E-04   -0.22283E-04  6428   0.415E-02    0.139E-02
DAV:   9    -0.338243873283E+03   -0.11366E-04   -0.23484E-05  6840   0.133E-02    0.936E-03
DAV:  10    -0.338243874945E+03   -0.16620E-05   -0.62100E-06  6284   0.776E-03    0.174E-03
DAV:  11    -0.338243875105E+03   -0.15965E-06   -0.11097E-06  4784   0.303E-03
  39 F= -.34150472E+03 E0= -.34150472E+03  d E =0.525898E+00
 curvature:  -9.34 expect dE=-0.184E+04 dE for cont linesearch -0.656E+02
 ZBRENT: bracketing found
 ZBRENT: interpolating
 opt :   3.2075  next Energy=  -347.429139 (dE=-0.540E+01)
 bond charge predicted
       N       E                     dE             d eps       ncg     rms          rms(c)
DAV:   1    -0.342137358965E+03   -0.38935E+01   -0.90481E+02  5724   0.866E+01    0.723E+00
DAV:   2    -0.345097983256E+03   -0.29606E+01   -0.34413E+01  7064   0.143E+01    0.566E+00
DAV:   3    -0.344749314711E+03    0.34867E+00   -0.67994E-01  7030   0.244E+00    0.337E+00
DAV:   4    -0.344700937341E+03    0.48377E-01   -0.84377E-01  7096   0.230E+00    0.922E-01
DAV:   5    -0.344679743318E+03    0.21194E-01   -0.13323E-01  6822   0.990E-01    0.228E-01
DAV:   6    -0.344681752768E+03   -0.20095E-02   -0.23319E-02  7016   0.344E-01    0.105E-01
DAV:   7    -0.344681648859E+03    0.10391E-03   -0.15355E-03  6960   0.107E-01    0.515E-02
DAV:   8    -0.344681720707E+03   -0.71848E-04   -0.38175E-04  6318   0.556E-02    0.161E-02
DAV:   9    -0.344681729947E+03   -0.92399E-05   -0.44497E-05  7272   0.172E-02    0.823E-03
DAV:  10    -0.344681733087E+03   -0.31401E-05   -0.15456E-05  6784   0.110E-02    0.474E-03
DAV:  11    -0.344681732521E+03    0.56555E-06   -0.32880E-06  5958   0.502E-03
  40 F= -.34764370E+03 E0= -.34764370E+03  d E =-.561309E+01
 curvature:  -0.06 expect dE=-0.660E+01 dE for cont linesearch -0.463E-02
 ZBRENT: interpolating
 opt :   3.5829  next Energy=  -347.781830 (dE=-0.575E+01)
 bond charge predicted
       N       E                     dE             d eps       ncg     rms          rms(c)
DAV:   1    -0.344751087847E+03   -0.69355E-01   -0.26346E+01  5768   0.150E+01    0.129E+00
DAV:   2    -0.344771603432E+03   -0.20516E-01   -0.41402E-01  7016   0.168E+00    0.912E-01
DAV:   3    -0.344763043994E+03    0.85594E-02   -0.38462E-02  6880   0.574E-01    0.164E-01
DAV:   4    -0.344762901805E+03    0.14219E-03   -0.66012E-03  6582   0.218E-01    0.904E-02
DAV:   5    -0.344762931923E+03   -0.30118E-04   -0.10303E-03  7224   0.836E-02    0.294E-02
DAV:   6    -0.344762918324E+03    0.13599E-04   -0.11452E-04  6750   0.308E-02    0.163E-02
DAV:   7    -0.344762924149E+03   -0.58251E-05   -0.44232E-05  6288   0.174E-02    0.527E-03
DAV:   8    -0.344762923705E+03    0.44400E-06   -0.65001E-06  6480   0.731E-03
  41 F= -.34773557E+03 E0= -.34773557E+03  d E =-.570496E+01
 curvature:  -1.88 expect dE=-0.224E+03 dE for cont linesearch -0.140E-01
 trial: gam=57.64600 g(F)=  0.119E+03 g(S)=  0.000E+00 ort =-0.214E+00 (trialstep = 0.243E-03)
 search vector abs. value=  0.207E+05
 bond charge predicted
       N       E                     dE             d eps       ncg     rms          rms(c)
DAV:   1    -0.344788045834E+03   -0.25122E-01   -0.37859E-02  5818   0.569E-01    0.462E-02
DAV:   2    -0.344788075528E+03   -0.29694E-04   -0.53326E-04  6994   0.610E-02    0.319E-02
DAV:   3    -0.344788069865E+03    0.56625E-05   -0.55098E-05  6982   0.216E-02    0.780E-03
DAV:   4    -0.344788068703E+03    0.11624E-05   -0.10040E-05  6566   0.883E-03    0.422E-03
DAV:   5    -0.344788068864E+03   -0.16134E-06   -0.27985E-06  6104   0.433E-03
  42 F= -.34776129E+03 E0= -.34776129E+03  d E =-.257153E-01
 ZBRENT: can't locate minimum, use default step
 trial-energy change:   -0.025715  1 .order   -0.025710   -0.025934   -0.025485
 step:   0.0010(harm=  0.0141)  dis= 0.00632  next Energy=  -348.484369 (dE=-0.749E+00)
 bond charge predicted
       N       E                     dE             d eps       ncg     rms          rms(c)
DAV:   1    -0.344860446915E+03   -0.72378E-01   -0.34049E-01  5758   0.171E+00    0.136E-01
DAV:   2    -0.344860718112E+03   -0.27120E-03   -0.47539E-03  6992   0.182E-01    0.939E-02
DAV:   3    -0.344860656953E+03    0.61159E-04   -0.44115E-04  6968   0.616E-02    0.219E-02
DAV:   4    -0.344860649038E+03    0.79151E-05   -0.79408E-05  6600   0.249E-02    0.120E-02
DAV:   5    -0.344860649231E+03   -0.19364E-06   -0.22659E-05  7120   0.121E-02    0.323E-03
DAV:   6    -0.344860649163E+03    0.68643E-07   -0.27925E-06  5896   0.468E-03
  43 F= -.34783570E+03 E0= -.34783570E+03  d E =-.100130E+00
 curvature:  -0.14 expect dE=-0.167E+02 dE for cont linesearch -0.666E-01
 ZBRENT: increasing intervall
 opt :   0.0024  next Energy=  -347.972073 (dE=-0.237E+00)
 bond charge predicted
       N       E                     dE             d eps       ncg     rms          rms(c)
DAV:   1    -0.344991631151E+03   -0.13098E+00   -0.13636E+00  5756   0.341E+00    0.269E-01
DAV:   2    -0.344992746356E+03   -0.11152E-02   -0.19112E-02  6968   0.366E-01    0.186E-01
DAV:   3    -0.344992501997E+03    0.24436E-03   -0.16985E-03  7000   0.122E-01    0.434E-02
DAV:   4    -0.344992471509E+03    0.30488E-04   -0.30683E-04  6584   0.491E-02    0.237E-02
DAV:   5    -0.344992471975E+03   -0.46666E-06   -0.87271E-05  7120   0.238E-02    0.634E-03
DAV:   6    -0.344992471708E+03    0.26724E-06   -0.10750E-05  6616   0.917E-03    0.386E-03
DAV:   7    -0.344992472037E+03   -0.32842E-06   -0.20512E-06  5312   0.387E-03
  44 F= -.34797182E+03 E0= -.34797182E+03  d E =-.236244E+00
 curvature:  -0.29 expect dE=-0.341E+02 dE for cont linesearch -0.106E+00
 ZBRENT: increasing intervall
 opt :   0.0054  next Energy=  -348.192059 (dE=-0.456E+00)
 bond charge predicted
       N       E                     dE             d eps       ncg     rms          rms(c)
DAV:   1    -0.345195132541E+03   -0.20266E+00   -0.54638E+00  5736   0.683E+00    0.528E-01
DAV:   2    -0.345199857175E+03   -0.47246E-02   -0.77287E-02  6920   0.741E-01    0.365E-01
DAV:   3    -0.345198970721E+03    0.88645E-03   -0.62653E-03  7070   0.237E-01    0.854E-02
DAV:   4    -0.345198867324E+03    0.10340E-03   -0.11297E-03  6600   0.952E-02    0.467E-02
DAV:   5    -0.345198874149E+03   -0.68249E-05   -0.31900E-04  7126   0.456E-02    0.123E-02
DAV:   6    -0.345198872890E+03    0.12591E-05   -0.38511E-05  6648   0.174E-02    0.732E-03
DAV:   7    -0.345198873801E+03   -0.91098E-06   -0.79237E-06  6472   0.748E-03
  45 F= -.34818995E+03 E0= -.34818995E+03  d E =-.454375E+00
 curvature:  -0.60 expect dE=-0.707E+02 dE for cont linesearch -0.110E+00
 ZBRENT: increasing intervall
 opt :   0.0112  next Energy=  -348.401975 (dE=-0.666E+00)
 bond charge predicted
       N       E                     dE             d eps       ncg     rms          rms(c)
DAV:   1    -0.345338344589E+03   -0.13947E+00   -0.21935E+01  5728   0.137E+01    0.104E+00
DAV:   2    -0.345358989413E+03   -0.20645E-01   -0.32195E-01  6838   0.153E+00    0.713E-01
DAV:   3    -0.345356051482E+03    0.29379E-02   -0.22959E-02  7078   0.455E-01    0.180E-01
DAV:   4    -0.345355732801E+03    0.31868E-03   -0.39705E-03  6728   0.181E-01    0.968E-02
DAV:   5    -0.345355801713E+03   -0.68912E-04   -0.10909E-03  7088   0.836E-02    0.233E-02
DAV:   6    -0.345355795831E+03    0.58814E-05   -0.12097E-04  6688   0.311E-02    0.133E-02
DAV:   7    -0.345355799278E+03   -0.34469E-05   -0.26740E-05  6408   0.138E-02    0.326E-03
DAV:   8    -0.345355799779E+03   -0.50134E-06   -0.25283E-06  5200   0.450E-03
  46 F= -.34838866E+03 E0= -.34838866E+03  d E =-.653086E+00
 curvature:  -1.15 expect dE=-0.132E+03 dE for cont linesearch -0.144E-02
 trial: gam=-0.00293 g(F)=  0.115E+03 g(S)=  0.000E+00 ort = 0.509E+01 (trialstep = 0.243E-02)
 search vector abs. value=  0.115E+03
 bond charge predicted
       N       E                     dE             d eps       ncg     rms          rms(c)
DAV:   1    -0.345636008810E+03   -0.28021E+00   -0.58299E-02  5768   0.666E-01    0.892E-02
DAV:   2    -0.345635963723E+03    0.45087E-04   -0.18242E-03  6856   0.105E-01    0.645E-02
DAV:   3    -0.345635874621E+03    0.89102E-04   -0.33530E-04  6896   0.515E-02    0.129E-02
DAV:   4    -0.345635875671E+03   -0.10499E-05   -0.73904E-05  6686   0.222E-02    0.766E-03
DAV:   5    -0.345635873691E+03    0.19797E-05   -0.45617E-06  6232   0.652E-03    0.191E-03
DAV:   6    -0.345635873655E+03    0.35667E-07   -0.94446E-07  3572   0.275E-03
  47 F= -.34866645E+03 E0= -.34866645E+03  d E =-.277788E+00
 ZBRENT: can't locate minimum, use default step
 trial-energy change:   -0.277788  1 .order   -0.277807   -0.280587   -0.275027
 step:   0.0097(harm=  0.1229)  dis= 0.00488  next Energy=  -355.468584 (dE=-0.708E+01)
 bond charge predicted
       N       E                     dE             d eps       ncg     rms          rms(c)
DAV:   1    -0.346443996844E+03   -0.80812E+00   -0.52310E-01  5748   0.199E+00    0.264E-01
DAV:   2    -0.346443681053E+03    0.31579E-03   -0.16337E-02  6834   0.312E-01    0.192E-01
DAV:   3    -0.346442940384E+03    0.74067E-03   -0.29178E-03  6890   0.152E-01    0.380E-02
DAV:   4    -0.346442950007E+03   -0.96225E-05   -0.64370E-04  6714   0.651E-02    0.224E-02
DAV:   5    -0.346442942851E+03    0.71559E-05   -0.39226E-05  6456   0.190E-02    0.566E-03
DAV:   6    -0.346442943010E+03   -0.15881E-06   -0.85674E-06  6502   0.801E-03
  48 F= -.34946694E+03 E0= -.34946694E+03  d E =-.107828E+01
 curvature:  -0.01 expect dE=-0.710E+00 dE for cont linesearch -0.708E+00
 ZBRENT: increasing intervall
 opt :   0.0243  next Energy=  -350.921804 (dE=-0.253E+01)
 bond charge predicted
       N       E                     dE             d eps       ncg     rms          rms(c)
DAV:   1    -0.347917669663E+03   -0.14747E+01   -0.20813E+00  5742   0.396E+00    0.515E-01
DAV:   2    -0.347916741103E+03    0.92856E-03   -0.64682E-02  6832   0.617E-01    0.375E-01
DAV:   3    -0.347913929594E+03    0.28115E-02   -0.11028E-02  6898   0.294E-01    0.747E-02
DAV:   4    -0.347913975162E+03   -0.45567E-04   -0.24411E-03  6730   0.126E-01    0.439E-02
DAV:   5    -0.347913957669E+03    0.17492E-04   -0.14976E-04  6448   0.368E-02    0.111E-02
DAV:   6    -0.347913958596E+03   -0.92628E-06   -0.32552E-05  6646   0.156E-02    0.670E-03
DAV:   7    -0.347913957462E+03    0.11335E-05   -0.38030E-06  5984   0.561E-03    0.267E-03
DAV:   8    -0.347913956988E+03    0.47461E-06   -0.82274E-07  3502   0.247E-03
  49 F= -.35092609E+03 E0= -.35092609E+03  d E =-.253743E+01
 curvature:  -0.01 expect dE=-0.114E+01 dE for cont linesearch -0.113E+01
 ZBRENT: increasing intervall
 opt :   0.0536  next Energy=  -353.293730 (dE=-0.491E+01)
 bond charge predicted
       N       E                     dE             d eps       ncg     rms          rms(c)
DAV:   1    -0.350342512115E+03   -0.24286E+01   -0.82280E+00  5750   0.784E+00    0.981E-01
DAV:   2    -0.350340836465E+03    0.16756E-02   -0.25364E-01  6834   0.121E+00    0.720E-01
DAV:   3    -0.350330455335E+03    0.10381E-01   -0.39572E-02  6906   0.554E-01    0.147E-01
DAV:   4    -0.350330687516E+03   -0.23218E-03   -0.87873E-03  6818   0.234E-01    0.845E-02
DAV:   5    -0.350330641759E+03    0.45757E-04   -0.55597E-04  6444   0.698E-02    0.214E-02
DAV:   6    -0.350330644728E+03   -0.29691E-05   -0.11809E-04  6542   0.295E-02    0.125E-02
DAV:   7    -0.350330643133E+03    0.15947E-05   -0.14447E-05  6576   0.108E-02    0.545E-03
DAV:   8    -0.350330641804E+03    0.13294E-05   -0.31705E-06  6112   0.482E-03    0.206E-03
DAV:   9    -0.350330642069E+03   -0.26512E-06   -0.80596E-07  3436   0.246E-03
  50 F= -.35332404E+03 E0= -.35332404E+03  d E =-.493539E+01
 curvature:  -0.03 expect dE=-0.142E+01 dE for cont linesearch -0.136E+01
 ZBRENT: increasing intervall
 opt :   0.1120  next Energy=  -356.155500 (dE=-0.777E+01)
 bond charge predicted
       N       E                     dE             d eps       ncg     rms          rms(c)
DAV:   1    -0.353419407665E+03   -0.30888E+01   -0.32201E+01  5924   0.153E+01    0.181E+00
DAV:   2    -0.353419568707E+03   -0.16104E-03   -0.92191E-01  6836   0.233E+00    0.132E+00
DAV:   3    -0.353384471353E+03    0.35097E-01   -0.12831E-01  6800   0.993E-01    0.280E-01
DAV:   4    -0.353385601755E+03   -0.11304E-02   -0.29220E-02  6806   0.413E-01    0.146E-01
DAV:   5    -0.353385549639E+03    0.52116E-04   -0.18757E-03  6548   0.124E-01    0.396E-02
DAV:   6    -0.353385549657E+03   -0.18594E-07   -0.34546E-04  6488   0.496E-02    0.233E-02
DAV:   7    -0.353385549911E+03   -0.25343E-06   -0.59122E-05  6968   0.219E-02    0.104E-02
DAV:   8    -0.353385545839E+03    0.40722E-05   -0.14798E-05  6910   0.106E-02    0.318E-03
DAV:   9    -0.353385546330E+03   -0.49104E-06   -0.28470E-06  5440   0.425E-03
  51 F= -.35635795E+03 E0= -.35635795E+03  d E =-.796930E+01
 curvature:  -0.06 expect dE=-0.104E+01 dE for cont linesearch -0.668E+00
 ZBRENT: increasing intervall
 opt :   0.2289  next Energy=  -356.119259 (dE=-0.773E+01)
 bond charge predicted
       N       E                     dE             d eps       ncg     rms          rms(c)
DAV:   1    -0.354319223784E+03   -0.93368E+00   -0.12268E+02  6004   0.293E+01    0.306E+00
DAV:   2    -0.354395530508E+03   -0.76307E-01   -0.33944E+00  6862   0.449E+00    0.228E+00
DAV:   3    -0.354291168775E+03    0.10436E+00   -0.33171E-01  7126   0.157E+00    0.618E-01
DAV:   4    -0.354293962321E+03   -0.27935E-02   -0.77213E-02  6894   0.645E-01    0.238E-01
DAV:   5    -0.354294090698E+03   -0.12838E-03   -0.52339E-03  6470   0.199E-01    0.660E-02
DAV:   6    -0.354294096083E+03   -0.53859E-05   -0.79925E-04  6808   0.732E-02    0.391E-02
DAV:   7    -0.354294097160E+03   -0.10763E-05   -0.20536E-04  7086   0.406E-02    0.162E-02
DAV:   8    -0.354294089610E+03    0.75497E-05   -0.57486E-05  6894   0.206E-02    0.448E-03
DAV:   9    -0.354294090552E+03   -0.94216E-06   -0.66250E-06  6240   0.670E-03
  52 F= -.35728083E+03 E0= -.35728083E+03  d E =-.889217E+01
 curvature:   0.02 expect dE= 0.364E+00 dE for cont linesearch  0.402E-01
 ZBRENT: bracketing found
 ZBRENT: interpolating
 opt :   0.1949  next Energy=  -357.521854 (dE=-0.913E+01)
 bond charge predicted
       N       E                     dE             d eps       ncg     rms          rms(c)
DAV:   1    -0.354607237999E+03   -0.31315E+00   -0.10170E+01  6024   0.822E+00    0.831E-01
DAV:   2    -0.354610705195E+03   -0.34672E-02   -0.22977E-01  6830   0.119E+00    0.623E-01
DAV:   3    -0.354602863179E+03    0.78420E-02   -0.30887E-02  7038   0.486E-01    0.128E-01
DAV:   4    -0.354603130177E+03   -0.26700E-03   -0.73068E-03  6692   0.208E-01    0.736E-02
DAV:   5    -0.354603138032E+03   -0.78552E-05   -0.47125E-04  6702   0.615E-02    0.181E-02
DAV:   6    -0.354603136298E+03    0.17343E-05   -0.84770E-05  6674   0.246E-02    0.107E-02
DAV:   7    -0.354603138477E+03   -0.21795E-05   -0.20226E-05  7032   0.121E-02    0.628E-03
DAV:   8    -0.354603137448E+03    0.10288E-05   -0.57193E-06  6420   0.650E-03    0.158E-03
DAV:   9    -0.354603137419E+03    0.28978E-07   -0.92648E-07  3770   0.241E-03
  53 F= -.35757437E+03 E0= -.35757437E+03  d E =-.918571E+01
 curvature:  -0.14 expect dE=-0.163E+01 dE for cont linesearch -0.896E-02
 ZBRENT: interpolating
 opt :   0.1873  next Energy=  -357.585403 (dE=-0.920E+01)
 bond charge predicted
       N       E                     dE             d eps       ncg     rms          rms(c)
DAV:   1    -0.354614998684E+03   -0.11861E-01   -0.50439E-01  6034   0.185E+00    0.190E-01
DAV:   2    -0.354615152797E+03   -0.15411E-03   -0.11738E-02  6838   0.267E-01    0.142E-01
DAV:   3    -0.354614753478E+03    0.39932E-03   -0.15642E-03  7000   0.109E-01    0.298E-02
DAV:   4    -0.354614768548E+03   -0.15071E-04   -0.36981E-04  6720   0.462E-02    0.165E-02
DAV:   5    -0.354614770670E+03   -0.21216E-05   -0.24102E-05  6636   0.138E-02    0.420E-03
DAV:   6    -0.354614770517E+03    0.15276E-06   -0.42941E-06  5850   0.551E-03
  54 F= -.35758443E+03 E0= -.35758443E+03  d E =-.919577E+01
 curvature:  -0.17 expect dE=-0.191E+01 dE for cont linesearch -0.110E-04
 trial: gam= 0.09747 g(F)=  0.112E+02 g(S)=  0.000E+00 ort = 0.861E-01 (trialstep = 0.394E-01)
 search vector abs. value=  0.123E+02
 bond charge predicted
       N       E                     dE             d eps       ncg     rms          rms(c)
DAV:   1    -0.355048467669E+03   -0.43370E+00   -0.28111E-01  5968   0.156E+00    0.190E-01
DAV:   2    -0.355048896986E+03   -0.42932E-03   -0.90238E-03  6652   0.232E-01    0.144E-01
DAV:   3    -0.355048717195E+03    0.17979E-03   -0.80530E-04  7390   0.852E-02    0.326E-02
DAV:   4    -0.355048716365E+03    0.82961E-06   -0.16597E-04  6358   0.320E-02    0.140E-02
DAV:   5    -0.355048715837E+03    0.52879E-06   -0.20079E-05  7180   0.110E-02    0.407E-03
DAV:   6    -0.355048715656E+03    0.18008E-06   -0.23467E-06  4878   0.421E-03
  55 F= -.35801814E+03 E0= -.35801814E+03  d E =-.433708E+00
 ZBRENT: can't locate minimum, use default step
 trial-energy change:   -0.433708  1 .order   -0.433720   -0.441093   -0.426347
 step:   0.1577(harm=  1.1789)  dis= 0.03488  next Energy=  -364.181312 (dE=-0.660E+01)
 bond charge predicted
       N       E                     dE             d eps       ncg     rms          rms(c)
DAV:   1    -0.356258688506E+03   -0.12100E+01   -0.25305E+00  5986   0.468E+00    0.569E-01
DAV:   2    -0.356262809990E+03   -0.41215E-02   -0.83502E-02  6676   0.700E-01    0.432E-01
DAV:   3    -0.356261235883E+03    0.15741E-02   -0.73059E-03  7368   0.257E-01    0.104E-01
DAV:   4    -0.356261239590E+03   -0.37073E-05   -0.15449E-03  6318   0.974E-02    0.431E-02
DAV:   5    -0.356261237857E+03    0.17332E-05   -0.18823E-04  7204   0.338E-02    0.121E-02
DAV:   6    -0.356261237190E+03    0.66764E-06   -0.23061E-05  6862   0.128E-02    0.564E-03
DAV:   7    -0.356261237651E+03   -0.46172E-06   -0.42023E-06  6224   0.617E-03
  56 F= -.35923086E+03 E0= -.35923086E+03  d E =-.164643E+01
 curvature:  -0.13 expect dE=-0.115E+01 dE for cont linesearch -0.974E+00
 ZBRENT: increasing intervall
 opt :   0.3941  next Energy=  -361.258127 (dE=-0.367E+01)
 bond charge predicted
       N       E                     dE             d eps       ncg     rms          rms(c)
DAV:   1    -0.358270745714E+03   -0.20095E+01   -0.10142E+01  5980   0.937E+00    0.113E+00
DAV:   2    -0.358288677526E+03   -0.17932E-01   -0.35272E-01  6676   0.142E+00    0.870E-01
DAV:   3    -0.358282170042E+03    0.65075E-02   -0.30407E-02  7334   0.522E-01    0.234E-01
DAV:   4    -0.358282246397E+03   -0.76356E-04   -0.66118E-03  6382   0.200E-01    0.915E-02
DAV:   5    -0.358282237805E+03    0.85926E-05   -0.80265E-04  7156   0.697E-02    0.239E-02
DAV:   6    -0.358282236735E+03    0.10699E-05   -0.94634E-05  6798   0.260E-02    0.110E-02
DAV:   7    -0.358282239128E+03   -0.23933E-05   -0.14973E-05  6254   0.115E-02    0.287E-03
DAV:   8    -0.358282239354E+03   -0.22578E-06   -0.26578E-06  5740   0.441E-03
  57 F= -.36125577E+03 E0= -.36125577E+03  d E =-.367134E+01
 curvature:  -0.27 expect dE=-0.211E+01 dE for cont linesearch -0.119E+01
 ZBRENT: increasing intervall
 opt :   0.8671  next Energy=  -363.690986 (dE=-0.611E+01)
 bond charge predicted
       N       E                     dE             d eps       ncg     rms          rms(c)
DAV:   1    -0.360600748652E+03   -0.23185E+01   -0.40987E+01  5842   0.188E+01    0.228E+00
DAV:   2    -0.360678151967E+03   -0.77403E-01   -0.15402E+00  6796   0.288E+00    0.179E+00
DAV:   3    -0.360648599103E+03    0.29553E-01   -0.14723E-01  7338   0.111E+00    0.548E-01
DAV:   4    -0.360649091395E+03   -0.49229E-03   -0.31587E-02  6524   0.435E-01    0.214E-01
DAV:   5    -0.360649102089E+03   -0.10694E-04   -0.38824E-03  7174   0.148E-01    0.492E-02
DAV:   6    -0.360649095676E+03    0.64123E-05   -0.44171E-04  6894   0.547E-02    0.228E-02
DAV:   7    -0.360649106001E+03   -0.10325E-04   -0.56561E-05  6354   0.223E-02    0.638E-03
DAV:   8    -0.360649107214E+03   -0.12133E-05   -0.12003E-05  7056   0.890E-03    0.293E-03
DAV:   9    -0.360649107626E+03   -0.41185E-06   -0.13213E-06  4566   0.363E-03
  58 F= -.36364443E+03 E0= -.36364443E+03  d E =-.606000E+01
 curvature:  -0.54 expect dE=-0.649E+01 dE for cont linesearch -0.298E+00
 ZBRENT: increasing intervall
 opt :   1.8131  next Energy=  -361.538963 (dE=-0.395E+01)
 bond charge predicted
       N       E                     dE             d eps       ncg     rms          rms(c)
DAV:   1    -0.357507770444E+03    0.31413E+01   -0.17083E+02  5850   0.374E+01    0.498E+00
DAV:   2    -0.357804872157E+03   -0.29710E+00   -0.73451E+00  6708   0.605E+00    0.401E+00
DAV:   3    -0.357629521630E+03    0.17535E+00   -0.10409E+00  7200   0.271E+00    0.129E+00
DAV:   4    -0.357630842297E+03   -0.13207E-02   -0.19452E-01  6598   0.109E+00    0.625E-01
DAV:   5    -0.357631950423E+03   -0.11081E-02   -0.24692E-02  7110   0.362E-01    0.126E-01
DAV:   6    -0.357631714356E+03    0.23607E-03   -0.34979E-03  7200   0.149E-01    0.597E-02
DAV:   7    -0.357631755695E+03   -0.41338E-04   -0.44468E-04  6454   0.581E-02    0.291E-02
DAV:   8    -0.357631744390E+03    0.11305E-04   -0.12156E-04  7072   0.291E-02    0.557E-03
DAV:   9    -0.357631747800E+03   -0.34106E-05   -0.22935E-05  6248   0.125E-02    0.283E-03
DAV:  10    -0.357631748025E+03   -0.22518E-06   -0.88260E-07  4812   0.314E-03
  59 F= -.36076000E+03 E0= -.36076000E+03  d E =-.317557E+01
 curvature:   3.84 expect dE= 0.226E+03 dE for cont linesearch  0.272E+02
 ZBRENT: bracketing found
 ZBRENT: interpolating
 opt :   1.0730  next Energy=  -363.911932 (dE=-0.633E+01)
 bond charge predicted
       N       E                     dE             d eps       ncg     rms          rms(c)
DAV:   1    -0.361001409346E+03   -0.33697E+01   -0.10695E+02  6482   0.285E+01    0.453E+00
DAV:   2    -0.361003915831E+03   -0.25065E-02   -0.41026E+00  6792   0.489E+00    0.302E+00
DAV:   3    -0.360942189467E+03    0.61726E-01   -0.83877E-01  7256   0.235E+00    0.865E-01
DAV:   4    -0.360932475707E+03    0.97138E-02   -0.17374E-01  6868   0.105E+00    0.494E-01
DAV:   5    -0.360934369792E+03   -0.18941E-02   -0.20344E-02  6648   0.340E-01    0.133E-01
DAV:   6    -0.360933895782E+03    0.47401E-03   -0.33045E-03  7032   0.153E-01    0.542E-02
DAV:   7    -0.360933966529E+03   -0.70748E-04   -0.73994E-04  6574   0.715E-02    0.340E-02
DAV:   8    -0.360933938999E+03    0.27530E-04   -0.10003E-04  7176   0.271E-02    0.103E-02
DAV:   9    -0.360933942207E+03   -0.32085E-05   -0.54590E-05  7036   0.183E-02    0.638E-03
DAV:  10    -0.360933941293E+03    0.91457E-06   -0.55671E-06  6414   0.581E-03
  60 F= -.36394620E+03 E0= -.36394620E+03  d E =-.636177E+01
 curvature:  -0.04 expect dE=-0.615E+00 dE for cont linesearch -0.293E-03
 trial: gam= 1.33074 g(F)=  0.163E+02 g(S)=  0.000E+00 ort = 0.309E+00 (trialstep = 0.778E-01)
 search vector abs. value=  0.389E+02
 bond charge predicted
       N       E                     dE             d eps       ncg     rms          rms(c)
DAV:   1    -0.362154317154E+03   -0.12204E+01   -0.97346E+00  5770   0.855E+00    0.638E-01
DAV:   2    -0.362159058376E+03   -0.47412E-02   -0.12689E-01  6902   0.928E-01    0.458E-01
DAV:   3    -0.362157063539E+03    0.19948E-02   -0.24044E-02  7240   0.390E-01    0.142E-01
DAV:   4    -0.362156930157E+03    0.13338E-03   -0.38475E-03  6728   0.158E-01    0.853E-02
DAV:   5    -0.362156979059E+03   -0.48902E-04   -0.73412E-04  7078   0.643E-02    0.170E-02
DAV:   6    -0.362156976497E+03    0.25621E-05   -0.85096E-05  6886   0.236E-02    0.764E-03
DAV:   7    -0.362156977711E+03   -0.12138E-05   -0.10637E-05  6956   0.831E-03    0.407E-03
DAV:   8    -0.362156977409E+03    0.30154E-06   -0.22176E-06  5428   0.419E-03
  61 F= -.36515766E+03 E0= -.36515766E+03  d E =-.121145E+01
 ZBRENT: can't locate minimum, use default step
 trial-energy change:   -1.211454  1 .order   -1.210444   -1.299809   -1.121078
 step:   0.3113(harm=  0.5660)  dis= 0.10248  next Energy=  -368.672586 (dE=-0.473E+01)
 bond charge predicted
       N       E                     dE             d eps       ncg     rms          rms(c)
DAV:   1    -0.364624403047E+03   -0.24674E+01   -0.85969E+01  5748   0.256E+01    0.177E+00
DAV:   2    -0.364702659697E+03   -0.78257E-01   -0.12245E+00  6690   0.290E+00    0.138E+00
DAV:   3    -0.364676672621E+03    0.25987E-01   -0.15357E-01  7190   0.104E+00    0.452E-01
DAV:   4    -0.364679521038E+03   -0.28484E-02   -0.27867E-02  6716   0.442E-01    0.224E-01
DAV:   5    -0.364678935906E+03    0.58513E-03   -0.36950E-03  7206   0.170E-01    0.462E-02
DAV:   6    -0.364678971704E+03   -0.35798E-04   -0.92932E-04  6552   0.773E-02    0.202E-02
DAV:   7    -0.364678976745E+03   -0.50403E-05   -0.34575E-05  6806   0.172E-02    0.950E-03
DAV:   8    -0.364678978368E+03   -0.16229E-05   -0.11822E-05  6172   0.972E-03    0.269E-03
DAV:   9    -0.364678978882E+03   -0.51435E-06   -0.20914E-06  5488   0.392E-03
  62 F= -.36765621E+03 E0= -.36765621E+03  d E =-.371000E+01
 curvature:  -0.48 expect dE=-0.231E+01 dE for cont linesearch -0.579E+00
 ZBRENT: increasing intervall
 opt :   0.7783  next Energy=  -367.331209 (dE=-0.339E+01)
 bond charge predicted
       N       E                     dE             d eps       ncg     rms          rms(c)
DAV:   1    -0.363510871788E+03    0.11681E+01   -0.33027E+02  5726   0.511E+01    0.321E+00
DAV:   2    -0.364144275537E+03   -0.63340E+00   -0.68361E+00  6616   0.662E+00    0.269E+00
DAV:   3    -0.364071334651E+03    0.72941E-01   -0.15587E-01  7120   0.119E+00    0.169E+00
DAV:   4    -0.364062743406E+03    0.85912E-02   -0.29714E-01  7058   0.142E+00    0.439E-01
DAV:   5    -0.364059079098E+03    0.36643E-02   -0.44002E-02  6520   0.547E-01    0.244E-01
DAV:   6    -0.364057822112E+03    0.12570E-02   -0.14538E-02  6990   0.288E-01    0.577E-02
DAV:   7    -0.364057950476E+03   -0.12836E-03   -0.15374E-03  6704   0.102E-01    0.287E-02
DAV:   8    -0.364057967811E+03   -0.17334E-04   -0.90581E-05  6628   0.289E-02    0.839E-03
DAV:   9    -0.364057971376E+03   -0.35653E-05   -0.15749E-05  6818   0.110E-02    0.405E-03
DAV:  10    -0.364057971997E+03   -0.62085E-06   -0.20095E-06  5406   0.473E-03
  63 F= -.36701544E+03 E0= -.36701544E+03  d E =-.306923E+01
 curvature:   0.27 expect dE= 0.331E+01 dE for cont linesearch  0.668E+00
 ZBRENT: bracketing found
 ZBRENT: interpolating
 opt :   0.5032  next Energy=  -368.313878 (dE=-0.437E+01)
 bond charge predicted
       N       E                     dE             d eps       ncg     rms          rms(c)
DAV:   1    -0.365246733977E+03   -0.11888E+01   -0.11986E+02  5724   0.307E+01    0.207E+00
DAV:   2    -0.365374848278E+03   -0.12811E+00   -0.17203E+00  6766   0.351E+00    0.140E+00
DAV:   3    -0.365367396169E+03    0.74521E-02   -0.78820E-02  7288   0.781E-01    0.558E-01
DAV:   4    -0.365368273398E+03   -0.87723E-03   -0.11368E-02  6692   0.314E-01    0.153E-01
DAV:   5    -0.365368665143E+03   -0.39174E-03   -0.21965E-03  7182   0.128E-01    0.462E-02
DAV:   6    -0.365368641114E+03    0.24029E-04   -0.15770E-04  7046   0.384E-02    0.199E-02
DAV:   7    -0.365368651339E+03   -0.10225E-04   -0.79812E-05  6398   0.247E-02    0.711E-03
DAV:   8    -0.365368650986E+03    0.35290E-06   -0.11069E-05  7038   0.961E-03    0.297E-03
DAV:   9    -0.365368651779E+03   -0.79279E-06   -0.20864E-06  5362   0.405E-03
  64 F= -.36833496E+03 E0= -.36833496E+03  d E =-.438876E+01
 curvature:  -0.26 expect dE=-0.109E+01 dE for cont linesearch -0.186E-03
 trial: gam= 0.20605 g(F)=  0.412E+01 g(S)=  0.000E+00 ort = 0.165E+00 (trialstep = 0.163E+00)
 search vector abs. value=  0.584E+01
 bond charge predicted
       N       E                     dE             d eps       ncg     rms          rms(c)
DAV:   1    -0.365803361732E+03   -0.43471E+00   -0.89260E+00  5896   0.829E+00    0.774E-01
DAV:   2    -0.365814597472E+03   -0.11236E-01   -0.26349E-01  6832   0.118E+00    0.637E-01
DAV:   3    -0.365806894688E+03    0.77028E-02   -0.34031E-02  7160   0.526E-01    0.196E-01
DAV:   4    -0.365807152517E+03   -0.25783E-03   -0.80051E-03  6632   0.215E-01    0.113E-01
DAV:   5    -0.365807105247E+03    0.47271E-04   -0.68161E-04  7086   0.709E-02    0.233E-02
DAV:   6    -0.365807095095E+03    0.10152E-04   -0.10565E-04  6708   0.255E-02    0.116E-02
DAV:   7    -0.365807097135E+03   -0.20404E-05   -0.19668E-05  7234   0.123E-02    0.842E-03
DAV:   8    -0.365807093926E+03    0.32092E-05   -0.10575E-05  6988   0.902E-03    0.139E-03
DAV:   9    -0.365807094200E+03   -0.27354E-06   -0.25383E-06  4930   0.402E-03
  65 F= -.36876771E+03 E0= -.36876771E+03  d E =-.432748E+00
 trial-energy change:   -0.432748  1 .order   -0.436218   -0.676298   -0.196139
 step:   0.2339(harm=  0.2295)  dis= 0.01855  next Energy=  -368.810140 (dE=-0.475E+00)
 bond charge predicted
       N       E                     dE             d eps       ncg     rms          rms(c)
DAV:   1    -0.365850833299E+03   -0.43739E-01   -0.16716E+00  5994   0.359E+00    0.330E-01
DAV:   2    -0.365852880048E+03   -0.20467E-02   -0.46377E-02  6768   0.493E-01    0.269E-01
DAV:   3    -0.365851562060E+03    0.13180E-02   -0.60663E-03  7150   0.223E-01    0.809E-02
DAV:   4    -0.365851607289E+03   -0.45229E-04   -0.14147E-03  6622   0.911E-02    0.452E-02
DAV:   5    -0.365851611358E+03   -0.40685E-05   -0.12044E-04  7212   0.287E-02    0.956E-03
DAV:   6    -0.365851608645E+03    0.27124E-05   -0.14479E-05  6880   0.995E-03    0.446E-03
DAV:   7    -0.365851609252E+03   -0.60699E-06   -0.26026E-06  6104   0.460E-03
  66 F= -.36881029E+03 E0= -.36881029E+03  d E =-.475325E+00
 curvature:  -0.16 expect dE=-0.435E+00 dE for cont linesearch -0.628E-09
 trial: gam= 0.62736 g(F)=  0.271E+01 g(S)=  0.000E+00 ort = 0.151E-03 (trialstep = 0.177E+00)
 search vector abs. value=  0.501E+01
 bond charge predicted
       N       E                     dE             d eps       ncg     rms          rms(c)
DAV:   1    -0.366277883522E+03   -0.42627E+00   -0.39924E+00  5840   0.544E+00    0.657E-01
DAV:   2    -0.366278108760E+03   -0.22524E-03   -0.67593E-02  6442   0.691E-01    0.419E-01
DAV:   3    -0.366276860474E+03    0.12483E-02   -0.13862E-02  7110   0.315E-01    0.121E-01
DAV:   4    -0.366276666228E+03    0.19425E-03   -0.23377E-03  6698   0.123E-01    0.596E-02
DAV:   5    -0.366276709579E+03   -0.43351E-04   -0.25086E-04  6908   0.404E-02    0.119E-02
DAV:   6    -0.366276705699E+03    0.38801E-05   -0.14801E-05  6662   0.111E-02    0.630E-03
DAV:   7    -0.366276706111E+03   -0.41279E-06   -0.66875E-06  6584   0.689E-03
  67 F= -.36923212E+03 E0= -.36923212E+03  d E =-.421833E+00
 ZBRENT: can't locate minimum, use default step
 trial-energy change:   -0.421833  1 .order   -0.421507   -0.479816   -0.363199
 step:   0.7084(harm=  0.7287)  dis= 0.05680  next Energy=  -369.797376 (dE=-0.987E+00)
 bond charge predicted
       N       E                     dE             d eps       ncg     rms          rms(c)
DAV:   1    -0.366850436709E+03   -0.57373E+00   -0.36247E+01  5870   0.164E+01    0.202E+00
DAV:   2    -0.366852059891E+03   -0.16232E-02   -0.62172E-01  6490   0.210E+00    0.130E+00
DAV:   3    -0.366839047960E+03    0.13012E-01   -0.13578E-01  7108   0.993E-01    0.367E-01
DAV:   4    -0.366836948163E+03    0.20998E-02   -0.23361E-02  6640   0.391E-01    0.179E-01
DAV:   5    -0.366837196269E+03   -0.24811E-03   -0.24959E-03  7004   0.125E-01    0.359E-02
DAV:   6    -0.366837172539E+03    0.23730E-04   -0.11240E-04  6664   0.307E-02    0.198E-02
DAV:   7    -0.366837171246E+03    0.12931E-05   -0.61008E-05  6632   0.210E-02    0.494E-03
DAV:   8    -0.366837172317E+03   -0.10712E-05   -0.14181E-05  7162   0.948E-03    0.352E-03
DAV:   9    -0.366837172016E+03    0.30070E-06   -0.90869E-07  4490   0.283E-03
  68 F= -.36978556E+03 E0= -.36978556E+03  d E =-.975276E+00
 curvature:  -0.67 expect dE=-0.189E+01 dE for cont linesearch -0.363E-04
 trial: gam= 0.94671 g(F)=  0.281E+01 g(S)=  0.000E+00 ort = 0.164E-01 (trialstep = 0.194E+00)
 search vector abs. value=  0.732E+01
 bond charge predicted
       N       E                     dE             d eps       ncg     rms          rms(c)
DAV:   1    -0.367268092126E+03   -0.43092E+00   -0.67644E+00  5770   0.660E+00    0.902E-01
DAV:   2    -0.367270700922E+03   -0.26088E-02   -0.11717E-01  6504   0.859E-01    0.585E-01
DAV:   3    -0.367267662523E+03    0.30384E-02   -0.19727E-02  7160   0.388E-01    0.916E-02
DAV:   4    -0.367267532379E+03    0.13014E-03   -0.31790E-03  6576   0.145E-01    0.553E-02
DAV:   5    -0.367267471718E+03    0.60661E-04   -0.49736E-04  7090   0.585E-02    0.154E-02
DAV:   6    -0.367267475988E+03   -0.42693E-05   -0.66050E-05  6562   0.197E-02    0.834E-03
DAV:   7    -0.367267475946E+03    0.41773E-07   -0.74367E-06  7154   0.830E-03
  69 F= -.37021731E+03 E0= -.37021731E+03  d E =-.431753E+00
 trial-energy change:   -0.431753  1 .order   -0.433153   -0.546544   -0.319762
 step:   0.4954(harm=  0.4668)  dis= 0.05344  next Energy=  -370.461047 (dE=-0.675E+00)
 bond charge predicted
       N       E                     dE             d eps       ncg     rms          rms(c)
DAV:   1    -0.367503682708E+03   -0.23621E+00   -0.16047E+01  5778   0.102E+01    0.135E+00
DAV:   2    -0.367510982768E+03   -0.73001E-02   -0.27839E-01  6508   0.133E+00    0.877E-01
DAV:   3    -0.367504235430E+03    0.67473E-02   -0.46657E-02  7174   0.597E-01    0.143E-01
DAV:   4    -0.367503917625E+03    0.31781E-03   -0.76600E-03  6634   0.224E-01    0.874E-02
DAV:   5    -0.367503760355E+03    0.15727E-03   -0.12362E-03  7108   0.915E-02    0.240E-02
DAV:   6    -0.367503770648E+03   -0.10293E-04   -0.16136E-04  6584   0.308E-02    0.130E-02
DAV:   7    -0.367503770974E+03   -0.32593E-06   -0.18342E-05  7136   0.128E-02    0.372E-03
DAV:   8    -0.367503770900E+03    0.74610E-07   -0.31951E-06  5400   0.482E-03
  70 F= -.37045854E+03 E0= -.37045854E+03  d E =-.672978E+00
 curvature:  -0.60 expect dE=-0.104E+01 dE for cont linesearch -0.351E-04
 trial: gam= 0.63033 g(F)=  0.173E+01 g(S)=  0.000E+00 ort =-0.207E-01 (trialstep = 0.254E+00)
 search vector abs. value=  0.462E+01
 bond charge predicted
       N       E                     dE             d eps       ncg     rms          rms(c)
DAV:   1    -0.367740980437E+03   -0.23721E+00   -0.10710E+01  6030   0.909E+00    0.909E-01
DAV:   2    -0.367749795293E+03   -0.88149E-02   -0.24090E-01  6654   0.119E+00    0.641E-01
DAV:   3    -0.367744139501E+03    0.56558E-02   -0.30754E-02  7168   0.462E-01    0.174E-01
DAV:   4    -0.367744022062E+03    0.11744E-03   -0.48856E-03  6584   0.159E-01    0.865E-02
DAV:   5    -0.367744030042E+03   -0.79799E-05   -0.51147E-04  6982   0.574E-02    0.199E-02
DAV:   6    -0.367744023799E+03    0.62430E-05   -0.42060E-05  6620   0.172E-02    0.108E-02
DAV:   7    -0.367744021571E+03    0.22282E-05   -0.93459E-06  6826   0.912E-03    0.296E-03
DAV:   8    -0.367744021720E+03   -0.14967E-06   -0.30544E-06  5258   0.448E-03
  71 F= -.37070290E+03 E0= -.37070290E+03  d E =-.244359E+00
 trial-energy change:   -0.244359  1 .order   -0.247954   -0.436728   -0.059180
 step:   0.2967(harm=  0.2938)  dis= 0.02681  next Energy=  -370.707852 (dE=-0.249E+00)
 bond charge predicted
       N       E                     dE             d eps       ncg     rms          rms(c)
DAV:   1    -0.367748092910E+03   -0.40713E-02   -0.29938E-01  6066   0.151E+00    0.150E-01
DAV:   2    -0.367748316851E+03   -0.22394E-03   -0.63875E-03  6626   0.195E-01    0.105E-01
DAV:   3    -0.367748157568E+03    0.15928E-03   -0.84548E-04  7210   0.764E-02    0.283E-02
DAV:   4    -0.367748153183E+03    0.43850E-05   -0.13103E-04  6608   0.263E-02    0.141E-02
DAV:   5    -0.367748151891E+03    0.12924E-05   -0.14254E-05  6994   0.959E-03    0.320E-03
DAV:   6    -0.367748151783E+03    0.10841E-06   -0.10979E-06  4196   0.285E-03
  72 F= -.37070781E+03 E0= -.37070781E+03  d E =-.249271E+00
 curvature:  -0.39 expect dE=-0.451E+00 dE for cont linesearch -0.146E-06
 trial: gam= 0.66769 g(F)=  0.115E+01 g(S)=  0.000E+00 ort =-0.131E-02 (trialstep = 0.263E+00)
 search vector abs. value=  0.321E+01
 bond charge predicted
       N       E                     dE             d eps       ncg     rms          rms(c)
DAV:   1    -0.367986477565E+03   -0.23833E+00   -0.60655E+00  5738   0.680E+00    0.835E-01
DAV:   2    -0.367982209528E+03    0.42680E-02   -0.96295E-02  6558   0.890E-01    0.512E-01
DAV:   3    -0.367980148327E+03    0.20612E-02   -0.31919E-02  7326   0.448E-01    0.179E-01
DAV:   4    -0.367979354907E+03    0.79342E-03   -0.48353E-03  6512   0.179E-01    0.924E-02
DAV:   5    -0.367979370023E+03   -0.15116E-04   -0.10019E-03  7008   0.782E-02    0.164E-02
DAV:   6    -0.367979368037E+03    0.19862E-05   -0.60692E-05  6592   0.210E-02    0.952E-03
DAV:   7    -0.367979367608E+03    0.42912E-06   -0.11161E-05  6924   0.960E-03    0.328E-03
DAV:   8    -0.367979367607E+03    0.16676E-08   -0.24894E-06  5474   0.440E-03
  73 F= -.37093756E+03 E0= -.37093756E+03  d E =-.229746E+00
 trial-energy change:   -0.229746  1 .order   -0.230115   -0.301806   -0.158425
 step:   0.5527(harm=  0.5527)  dis= 0.04365  next Energy=  -371.025449 (dE=-0.318E+00)
 bond charge predicted
       N       E                     dE             d eps       ncg     rms          rms(c)
DAV:   1    -0.368077980923E+03   -0.98613E-01   -0.74210E+00  5738   0.751E+00    0.925E-01
DAV:   2    -0.368073008390E+03    0.49725E-02   -0.11713E-01  6570   0.982E-01    0.569E-01
DAV:   3    -0.368070491157E+03    0.25172E-02   -0.38348E-02  7318   0.494E-01    0.197E-01
DAV:   4    -0.368069529471E+03    0.96169E-03   -0.58541E-03  6524   0.197E-01    0.102E-01
DAV:   5    -0.368069546519E+03   -0.17048E-04   -0.12444E-03  7064   0.867E-02    0.182E-02
DAV:   6    -0.368069544384E+03    0.21352E-05   -0.75165E-05  6592   0.234E-02    0.105E-02
DAV:   7    -0.368069543984E+03    0.39990E-06   -0.12753E-05  6974   0.104E-02    0.347E-03
DAV:   8    -0.368069544054E+03   -0.69263E-07   -0.29156E-06  5702   0.473E-03
  74 F= -.37102684E+03 E0= -.37102684E+03  d E =-.319028E+00
 curvature:  -0.77 expect dE=-0.427E+00 dE for cont linesearch -0.548E-04
 trial: gam= 0.47194 g(F)=  0.554E+00 g(S)=  0.000E+00 ort = 0.151E-01 (trialstep = 0.321E+00)
 search vector abs. value=  0.128E+01
 bond charge predicted
       N       E                     dE             d eps       ncg     rms          rms(c)
DAV:   1    -0.368191206155E+03   -0.12166E+00   -0.46371E+00  5736   0.580E+00    0.590E-01
DAV:   2    -0.368194928744E+03   -0.37226E-02   -0.77488E-02  6546   0.729E-01    0.409E-01
DAV:   3    -0.368193032860E+03    0.18959E-02   -0.88140E-03  7118   0.260E-01    0.833E-02
DAV:   4    -0.368193037909E+03   -0.50491E-05   -0.13663E-03  6688   0.955E-02    0.391E-02
DAV:   5    -0.368193015015E+03    0.22894E-04   -0.33682E-04  7118   0.468E-02    0.114E-02
DAV:   6    -0.368193014861E+03    0.15419E-06   -0.40121E-05  6580   0.170E-02    0.616E-03
DAV:   7    -0.368193014576E+03    0.28460E-06   -0.32202E-06  6088   0.526E-03
  75 F= -.37114914E+03 E0= -.37114914E+03  d E =-.122297E+00
 trial-energy change:   -0.122297  1 .order   -0.122420   -0.180018   -0.064821
 step:   0.5010(harm=  0.5010)  dis= 0.02566  next Energy=  -371.167495 (dE=-0.141E+00)
 bond charge predicted
       N       E                     dE             d eps       ncg     rms          rms(c)
DAV:   1    -0.368211503256E+03   -0.18488E-01   -0.14693E+00  5744   0.327E+00    0.334E-01
DAV:   2    -0.368212662707E+03   -0.11595E-02   -0.24314E-02  6556   0.410E-01    0.231E-01
DAV:   3    -0.368212068562E+03    0.59415E-03   -0.27861E-03  7174   0.146E-01    0.463E-02
DAV:   4    -0.368212070165E+03   -0.16028E-05   -0.42951E-04  6688   0.537E-02    0.221E-02
DAV:   5    -0.368212062715E+03    0.74494E-05   -0.10879E-04  7150   0.266E-02    0.639E-03
DAV:   6    -0.368212062649E+03    0.66024E-07   -0.13195E-05  6652   0.978E-03    0.340E-03
DAV:   7    -0.368212062567E+03    0.82337E-07   -0.92098E-07  3964   0.299E-03
  76 F= -.37116762E+03 E0= -.37116762E+03  d E =-.140779E+00
 curvature:  -0.57 expect dE=-0.479E+00 dE for cont linesearch -0.338E-05
 trial: gam= 1.51426 g(F)=  0.837E+00 g(S)=  0.000E+00 ort = 0.275E-02 (trialstep = 0.121E+00)
 search vector abs. value=  0.379E+01
 bond charge predicted
       N       E                     dE             d eps       ncg     rms          rms(c)
DAV:   1    -0.368306745871E+03   -0.94683E-01   -0.15054E+00  5736   0.325E+00    0.378E-01
DAV:   2    -0.368307054705E+03   -0.30883E-03   -0.16561E-02  6444   0.351E-01    0.237E-01
DAV:   3    -0.368306550374E+03    0.50433E-03   -0.26587E-03  6916   0.147E-01    0.340E-02
DAV:   4    -0.368306546092E+03    0.42823E-05   -0.43400E-04  6692   0.528E-02    0.236E-02
DAV:   5    -0.368306530923E+03    0.15169E-04   -0.11941E-04  7166   0.286E-02    0.507E-03
DAV:   6    -0.368306531526E+03   -0.60262E-06   -0.16289E-05  6512   0.110E-02    0.264E-03
DAV:   7    -0.368306531474E+03    0.52023E-07   -0.11375E-06  4278   0.328E-03
  77 F= -.37126183E+03 E0= -.37126183E+03  d E =-.942153E-01
 ZBRENT: can't locate minimum, use default step
 trial-energy change:   -0.094215  1 .order   -0.094196   -0.101622   -0.086769
 step:   0.4833(harm=  0.8266)  dis= 0.04307  next Energy=  -371.515251 (dE=-0.348E+00)
 bond charge predicted
       N       E                     dE             d eps       ncg     rms          rms(c)
DAV:   1    -0.368503415180E+03   -0.19688E+00   -0.13532E+01  5728   0.973E+00    0.113E+00
DAV:   2    -0.368506393455E+03   -0.29783E-02   -0.15164E-01  6444   0.106E+00    0.711E-01
DAV:   3    -0.368501737068E+03    0.46564E-02   -0.23317E-02  6878   0.435E-01    0.100E-01
DAV:   4    -0.368501709532E+03    0.27536E-04   -0.38019E-03  6690   0.156E-01    0.685E-02
DAV:   5    -0.368501585997E+03    0.12353E-03   -0.10026E-03  7166   0.831E-02    0.154E-02
DAV:   6    -0.368501590338E+03   -0.43407E-05   -0.13723E-04  6534   0.321E-02    0.774E-03
DAV:   7    -0.368501589617E+03    0.72144E-06   -0.11535E-05  7158   0.977E-03    0.162E-03
DAV:   8    -0.368501589756E+03   -0.13881E-06   -0.15050E-06  4016   0.331E-03
  78 F= -.37145618E+03 E0= -.37145618E+03  d E =-.288564E+00
 curvature:  -1.42 expect dE=-0.160E+01 dE for cont linesearch -0.473E-01
 ZBRENT: increasing intervall
 opt :   1.2082  next Energy=  -371.450650 (dE=-0.283E+00)
 bond charge predicted
       N       E                     dE             d eps       ncg     rms          rms(c)
DAV:   1    -0.368509178859E+03   -0.75892E-02   -0.53932E+01  5728   0.194E+01    0.225E+00
DAV:   2    -0.368524107132E+03   -0.14928E-01   -0.64115E-01  6382   0.215E+00    0.142E+00
DAV:   3    -0.368505140662E+03    0.18966E-01   -0.88510E-02  6830   0.849E-01    0.201E-01
DAV:   4    -0.368505235683E+03   -0.95021E-04   -0.14394E-02  6726   0.302E-01    0.130E-01
DAV:   5    -0.368504824676E+03    0.41101E-03   -0.34329E-03  7152   0.155E-01    0.308E-02
DAV:   6    -0.368504839803E+03   -0.15127E-04   -0.48602E-04  6630   0.608E-02    0.151E-02
DAV:   7    -0.368504837023E+03    0.27796E-05   -0.41927E-05  7156   0.188E-02    0.318E-03
DAV:   8    -0.368504837418E+03   -0.39495E-06   -0.50832E-06  5964   0.587E-03
  79 F= -.37145823E+03 E0= -.37145823E+03  d E =-.290611E+00
 curvature:   0.17 expect dE= 0.980E+00 dE for cont linesearch  0.522E-02
 ZBRENT: bracketing found
 ZBRENT: interpolating
 opt :   0.8511  next Energy=  -371.519833 (dE=-0.352E+00)
 bond charge predicted
       N       E                     dE             d eps       ncg     rms          rms(c)
DAV:   1    -0.368568670591E+03   -0.63834E-01   -0.13141E+01  5728   0.958E+00    0.112E+00
DAV:   2    -0.368571497073E+03   -0.28265E-02   -0.14784E-01  6432   0.105E+00    0.698E-01
DAV:   3    -0.368566822562E+03    0.46745E-02   -0.21761E-02  6822   0.419E-01    0.966E-02
DAV:   4    -0.368566846566E+03   -0.24004E-04   -0.34046E-03  6692   0.148E-01    0.656E-02
DAV:   5    -0.368566722775E+03    0.12379E-03   -0.88469E-04  7124   0.799E-02    0.143E-02
DAV:   6    -0.368566727922E+03   -0.51463E-05   -0.13006E-04  6490   0.314E-02    0.755E-03
DAV:   7    -0.368566726664E+03    0.12580E-05   -0.10761E-05  7070   0.938E-03    0.159E-03
DAV:   8    -0.368566726766E+03   -0.10210E-06   -0.14710E-06  3928   0.332E-03
