 running on    4 total cores
 distrk:  each k-point on    4 cores,    1 groups
 distr:  one band on    2 cores,    2 groups
 using from now: INCAR     
 vasp.5.3.5 31Mar14 (build Nov 02 2014 15:17:37) complex                        
  
 POSCAR found type information on POSCAR  H  C 
 POSCAR found :  2 types and      72 ions
 scaLAPACK will be used

 ----------------------------------------------------------------------------- 
|                                                                             |
|  ADVICE TO THIS USER RUNNING 'VASP/VAMP'   (HEAR YOUR MASTER'S VOICE ...):  |
|                                                                             |
|      You have a (more or less) 'large supercell' and for larger cells       |
|      it might be more efficient to use real space projection operators      |
|      So try LREAL= Auto  in the INCAR   file.                               |
|      Mind: If you want to do a very accurate calculations keep the          |
|      reciprocal projection scheme          (i.e. LREAL=.FALSE.)             |
|                                                                             |
 ----------------------------------------------------------------------------- 

 LDA part: xc-table for Pade appr. of Perdew
 POSCAR, INCAR and KPOINTS ok, starting setup
 WARNING: small aliasing (wrap around) errors must be expected
 FFT: planning ...
 WAVECAR not read
 WARNING: random wavefunctions but no delay for mixing, default for NELMDL
 entering main loop
       N       E                     dE             d eps       ncg     rms          rms(c)
DAV:   1     0.467447718137E+03    0.46745E+03   -0.52231E+04  5308   0.111E+03
DAV:   2    -0.294279542630E+03   -0.76173E+03   -0.74113E+03  6484   0.223E+02
DAV:   3    -0.378831580481E+03   -0.84552E+02   -0.83857E+02  6656   0.719E+01
DAV:   4    -0.381178222200E+03   -0.23466E+01   -0.23427E+01  6592   0.143E+01
DAV:   5    -0.381234182296E+03   -0.55960E-01   -0.55935E-01  6776   0.206E+00    0.355E+01
DAV:   6    -0.335532562326E+03    0.45702E+02   -0.82582E+01  5594   0.207E+01    0.154E+01
DAV:   7    -0.329054724289E+03    0.64778E+01   -0.14628E+01  6272   0.938E+00    0.721E+00
DAV:   8    -0.328140625006E+03    0.91410E+00   -0.19646E+00  6520   0.382E+00    0.103E+00
DAV:   9    -0.328127197633E+03    0.13427E-01   -0.12726E-01  6476   0.904E-01    0.468E-01
DAV:  10    -0.328143451287E+03   -0.16254E-01   -0.41019E-02  5848   0.525E-01    0.175E-01
DAV:  11    -0.328144548436E+03   -0.10971E-02   -0.17810E-03  6598   0.120E-01    0.108E-01
DAV:  12    -0.328145229373E+03   -0.68094E-03   -0.19873E-03  6248   0.136E-01    0.460E-02
DAV:  13    -0.328145295249E+03   -0.65876E-04   -0.34615E-04  6368   0.487E-02    0.127E-02
DAV:  14    -0.328145314745E+03   -0.19495E-04   -0.39660E-05  5840   0.190E-02    0.392E-03
DAV:  15    -0.328145316235E+03   -0.14899E-05   -0.35484E-06  5936   0.588E-03    0.395E-03
DAV:  16    -0.328145316635E+03   -0.40018E-06   -0.24284E-06  4816   0.485E-03
   1 F= -.33057167E+03 E0= -.33057167E+03  d E =-.330572E+03
 curvature:   0.00 expect dE= 0.000E+00 dE for cont linesearch  0.000E+00
 trial: gam= 0.00000 g(F)=  0.172E+02 g(S)=  0.000E+00 ort = 0.000E+00 (trialstep = 0.100E+01)
 search vector abs. value=  0.172E+02
 bond charge predicted
       N       E                     dE             d eps       ncg     rms          rms(c)
DAV:   1    -0.334484656101E+03   -0.63393E+01   -0.30944E+02  5642   0.559E+01    0.107E+01
DAV:   2    -0.331020838567E+03    0.34638E+01   -0.87057E+00  6136   0.777E+00    0.434E+00
DAV:   3    -0.330907747488E+03    0.11309E+00   -0.47251E+00  6424   0.476E+00    0.185E+00
DAV:   4    -0.330832900206E+03    0.74847E-01   -0.26121E-01  6240   0.118E+00    0.115E+00
DAV:   5    -0.330827510740E+03    0.53895E-02   -0.82625E-02  6728   0.709E-01    0.236E-01
DAV:   6    -0.330826580074E+03    0.93067E-03   -0.23983E-02  6154   0.341E-01    0.217E-01
DAV:   7    -0.330825543994E+03    0.10361E-02   -0.31698E-03  6240   0.132E-01    0.394E-02
DAV:   8    -0.330825588215E+03   -0.44221E-04   -0.43551E-04  6500   0.580E-02    0.129E-02
DAV:   9    -0.330825608400E+03   -0.20185E-04   -0.33039E-05  6608   0.154E-02    0.191E-02
DAV:  10    -0.330825605846E+03    0.25541E-05   -0.42647E-05  5854   0.153E-02    0.283E-03
DAV:  11    -0.330825605611E+03    0.23462E-06   -0.41361E-06  6152   0.584E-03
   2 F= -.33329775E+03 E0= -.33329775E+03  d E =-.272608E+01
 trial-energy change:   -2.726084  1 .order   -4.042399  -17.176046    9.091249
 step:   0.5807(harm=  0.6539)  dis= 0.06950  next Energy=  -335.300851 (dE=-0.473E+01)
 bond charge predicted
       N       E                     dE             d eps       ncg     rms          rms(c)
DAV:   1    -0.333277772233E+03   -0.24522E+01   -0.52559E+01  5446   0.234E+01    0.366E+00
DAV:   2    -0.332905237708E+03    0.37253E+00   -0.10927E+00  6310   0.312E+00    0.193E+00
DAV:   3    -0.332866207083E+03    0.39031E-01   -0.10604E+00  6262   0.221E+00    0.101E+00
DAV:   4    -0.332835996066E+03    0.30211E-01   -0.77265E-02  5968   0.656E-01    0.561E-01
DAV:   5    -0.332831411241E+03    0.45848E-02   -0.31905E-02  6486   0.413E-01    0.160E-01
DAV:   6    -0.332830576891E+03    0.83435E-03   -0.38702E-03  6392   0.152E-01    0.873E-02
DAV:   7    -0.332830459262E+03    0.11763E-03   -0.29124E-04  6848   0.489E-02    0.428E-02
DAV:   8    -0.332830449613E+03    0.96493E-05   -0.45564E-05  6418   0.185E-02    0.286E-02
DAV:   9    -0.332830434358E+03    0.15255E-04   -0.56175E-05  5868   0.174E-02    0.601E-03
DAV:  10    -0.332830435027E+03   -0.66928E-06   -0.82794E-06  6352   0.734E-03
   3 F= -.33528168E+03 E0= -.33528168E+03  d E =-.471001E+01
 curvature:  -0.31 expect dE=-0.660E+00 dE for cont linesearch -0.227E-04
 trial: gam= 0.12092 g(F)=  0.211E+01 g(S)=  0.000E+00 ort = 0.353E-01 (trialstep = 0.916E+00)
 search vector abs. value=  0.237E+01
 bond charge predicted
       N       E                     dE             d eps       ncg     rms          rms(c)
DAV:   1    -0.334104323463E+03   -0.12739E+01   -0.12872E+02  5292   0.297E+01    0.177E+00
DAV:   2    -0.334220038473E+03   -0.11572E+00   -0.13413E+00  6576   0.265E+00    0.119E+00
DAV:   3    -0.334213354233E+03    0.66842E-02   -0.29724E-02  6652   0.570E-01    0.513E-01
DAV:   4    -0.334216420043E+03   -0.30658E-02   -0.19083E-02  6582   0.372E-01    0.158E-01
DAV:   5    -0.334216199290E+03    0.22075E-03   -0.39308E-03  6488   0.168E-01    0.337E-02
DAV:   6    -0.334216210134E+03   -0.10844E-04   -0.34650E-04  6094   0.520E-02    0.242E-02
DAV:   7    -0.334216213165E+03   -0.30307E-05   -0.16446E-04  6588   0.369E-02    0.136E-02
DAV:   8    -0.334216210718E+03    0.24472E-05   -0.27222E-05  6096   0.150E-02    0.863E-03
DAV:   9    -0.334216211729E+03   -0.10119E-05   -0.12935E-05  5886   0.897E-03    0.165E-03
DAV:  10    -0.334216212295E+03   -0.56534E-06   -0.10684E-06  4818   0.308E-03
   4 F= -.33666916E+03 E0= -.33666916E+03  d E =-.138748E+01
 trial-energy change:   -1.387480  1 .order   -1.425969   -1.939093   -0.912845
 step:   1.7310(harm=  1.7310)  dis= 0.17066  next Energy=  -337.113633 (dE=-0.183E+01)
 bond charge predicted
       N       E                     dE             d eps       ncg     rms          rms(c)
DAV:   1    -0.334660858160E+03   -0.44465E+00   -0.10432E+02  5292   0.256E+01    0.162E+00
DAV:   2    -0.334733986724E+03   -0.73129E-01   -0.99779E-01  6538   0.218E+00    0.103E+00
DAV:   3    -0.334730236397E+03    0.37503E-02   -0.25633E-02  6662   0.458E-01    0.425E-01
DAV:   4    -0.334732247676E+03   -0.20113E-02   -0.10327E-02  6604   0.241E-01    0.112E-01
DAV:   5    -0.334732383399E+03   -0.13572E-03   -0.97309E-04  6130   0.835E-02    0.240E-02
DAV:   6    -0.334732399759E+03   -0.16360E-04   -0.90950E-05  6536   0.242E-02    0.114E-02
DAV:   7    -0.334732405530E+03   -0.57708E-05   -0.29756E-05  6514   0.158E-02    0.563E-03
DAV:   8    -0.334732405743E+03   -0.21300E-06   -0.46544E-06  5984   0.620E-03
   5 F= -.33718802E+03 E0= -.33718802E+03  d E =-.190634E+01
 curvature:  -0.97 expect dE=-0.425E+00 dE for cont linesearch -0.370E-01
 ZBRENT: extrapolating
 opt :   2.0834  next Energy=  -337.241005 (dE=-0.196E+01)
 bond charge predicted
       N       E                     dE             d eps       ncg     rms          rms(c)
DAV:   1    -0.334781011289E+03   -0.48606E-01   -0.20115E+01  5292   0.110E+01    0.697E-01
DAV:   2    -0.334787230487E+03   -0.62192E-02   -0.11924E-01  6642   0.830E-01    0.460E-01
DAV:   3    -0.334786270036E+03    0.96045E-03   -0.87352E-03  6644   0.251E-01    0.998E-02
DAV:   4    -0.334786455487E+03   -0.18545E-03   -0.18934E-03  6302   0.862E-02    0.504E-02
DAV:   5    -0.334786502771E+03   -0.47284E-04   -0.16734E-04  6494   0.330E-02    0.144E-02
DAV:   6    -0.334786504619E+03   -0.18481E-05   -0.19662E-05  6158   0.103E-02    0.846E-03
DAV:   7    -0.334786505032E+03   -0.41344E-06   -0.50908E-06  4926   0.604E-03
   6 F= -.33724360E+03 E0= -.33724360E+03  d E =-.196192E+01
 curvature:  -1.39 expect dE=-0.707E+00 dE for cont linesearch -0.943E-04
 trial: gam= 0.08881 g(F)=  0.509E+00 g(S)=  0.000E+00 ort = 0.127E-01 (trialstep = 0.115E+01)
 search vector abs. value=  0.530E+00
 bond charge predicted
       N       E                     dE             d eps       ncg     rms          rms(c)
DAV:   1    -0.335027815320E+03   -0.24131E+00   -0.18947E+01  5300   0.135E+01    0.195E+00
DAV:   2    -0.334919724807E+03    0.10809E+00   -0.30264E-01  6512   0.167E+00    0.995E-01
DAV:   3    -0.334911345406E+03    0.83794E-02   -0.30560E-01  6388   0.115E+00    0.531E-01
DAV:   4    -0.334903587285E+03    0.77581E-02   -0.23581E-02  5954   0.374E-01    0.306E-01
DAV:   5    -0.334902362763E+03    0.12245E-02   -0.78559E-03  6564   0.193E-01    0.914E-02
DAV:   6    -0.334902045870E+03    0.31689E-03   -0.15104E-03  6274   0.891E-02    0.498E-02
DAV:   7    -0.334902010931E+03    0.34939E-04   -0.12043E-04  6308   0.283E-02    0.306E-02
DAV:   8    -0.334902004413E+03    0.65183E-05   -0.61026E-06  6362   0.673E-03    0.240E-02
DAV:   9    -0.334901994453E+03    0.99602E-05   -0.44767E-05  5848   0.143E-02    0.238E-03
DAV:  10    -0.334901994740E+03   -0.28681E-06   -0.26256E-06  5474   0.428E-03
   7 F= -.33735151E+03 E0= -.33735151E+03  d E =-.107916E+00
 trial-energy change:   -0.107916  1 .order   -0.095306   -0.586333    0.395720
 step:   0.7073(harm=  0.6864)  dis= 0.01274  next Energy=  -337.426916 (dE=-0.183E+00)
 bond charge predicted
       N       E                     dE             d eps       ncg     rms          rms(c)
DAV:   1    -0.334995672127E+03   -0.93678E-01   -0.28418E+00  5328   0.520E+00    0.796E-01
DAV:   2    -0.334976746084E+03    0.18926E-01   -0.46541E-02  6528   0.627E-01    0.374E-01
DAV:   3    -0.334975434795E+03    0.13113E-02   -0.40501E-02  6442   0.417E-01    0.181E-01
DAV:   4    -0.334974635458E+03    0.79934E-03   -0.28213E-03  5996   0.130E-01    0.111E-01
DAV:   5    -0.334974451124E+03    0.18433E-03   -0.90464E-04  6526   0.664E-02    0.301E-02
DAV:   6    -0.334974419959E+03    0.31165E-04   -0.19704E-04  6284   0.319E-02    0.177E-02
DAV:   7    -0.334974416679E+03    0.32806E-05   -0.14354E-05  6254   0.100E-02    0.941E-03
DAV:   8    -0.334974416180E+03    0.49849E-06   -0.75462E-07  3900   0.248E-03
   8 F= -.33742678E+03 E0= -.33742678E+03  d E =-.183178E+00
 curvature:  -0.36 expect dE=-0.350E-02 dE for cont linesearch -0.139E-05
 trial: gam= 0.04020 g(F)=  0.983E-02 g(S)=  0.000E+00 ort =-0.144E-02 (trialstep = 0.106E+01)
 search vector abs. value=  0.106E-01
 bond charge predicted
       N       E                     dE             d eps       ncg     rms          rms(c)
DAV:   1    -0.334974893001E+03   -0.47632E-03   -0.87104E-01  5296   0.256E+00    0.179E-01
DAV:   2    -0.334975718475E+03   -0.82547E-03   -0.12522E-02  6684   0.297E-01    0.148E-01
DAV:   3    -0.334975447415E+03    0.27106E-03   -0.99163E-04  6764   0.107E-01    0.228E-02
DAV:   4    -0.334975465088E+03   -0.17673E-04   -0.25004E-04  6126   0.403E-02    0.127E-02
DAV:   5    -0.334975465863E+03   -0.77425E-06   -0.10096E-05  6584   0.959E-03    0.235E-03
DAV:   6    -0.334975465922E+03   -0.59026E-07   -0.98567E-07  3764   0.261E-03
   9 F= -.33742784E+03 E0= -.33742784E+03  d E =-.106082E-02
 trial-energy change:   -0.001061  1 .order   -0.001024   -0.010366    0.008319
 step:   0.5918(harm=  0.5887)  dis= 0.00322  next Energy=  -337.429673 (dE=-0.290E-02)
 bond charge predicted
       N       E                     dE             d eps       ncg     rms          rms(c)
DAV:   1    -0.334977200389E+03   -0.17345E-02   -0.17036E-01  5296   0.113E+00    0.794E-02
DAV:   2    -0.334977359895E+03   -0.15951E-03   -0.24652E-03  6676   0.132E-01    0.654E-02
DAV:   3    -0.334977304068E+03    0.55827E-04   -0.18479E-04  6566   0.462E-02    0.107E-02
DAV:   4    -0.334977307789E+03   -0.37214E-05   -0.48024E-05  6142   0.175E-02    0.565E-03
DAV:   5    -0.334977307703E+03    0.85981E-07   -0.14512E-06  4488   0.393E-03
  10 F= -.33742967E+03 E0= -.33742967E+03  d E =-.289596E-02
 curvature:  -0.32 expect dE=-0.374E-02 dE for cont linesearch -0.549E-10
 trial: gam= 1.19223 g(F)=  0.117E-01 g(S)=  0.000E+00 ort = 0.135E-05 (trialstep = 0.382E+00)
 search vector abs. value=  0.268E-01
 bond charge predicted
       N       E                     dE             d eps       ncg     rms          rms(c)
DAV:   1    -0.334981018948E+03   -0.37112E-02   -0.31894E-01  5296   0.141E+00    0.931E-02
DAV:   2    -0.334981098270E+03   -0.79323E-04   -0.17710E-03  6520   0.113E-01    0.636E-02
DAV:   3    -0.334981069830E+03    0.28440E-04   -0.28340E-04  7188   0.483E-02    0.172E-02
DAV:   4    -0.334981063014E+03    0.68168E-05   -0.64226E-05  6182   0.208E-02    0.738E-03
DAV:   5    -0.334981062645E+03    0.36872E-06   -0.73004E-06  6576   0.737E-03
  11 F= -.33743352E+03 E0= -.33743352E+03  d E =-.384727E-02
 ZBRENT: can't locate minimum, use default step
 trial-energy change:   -0.003847  1 .order   -0.003859   -0.004483   -0.003235
 step:   1.5279(harm=  1.3723)  dis= 0.01702  next Energy=  -337.438684 (dE=-0.901E-02)
 bond charge predicted
       N       E                     dE             d eps       ncg     rms          rms(c)
DAV:   1    -0.334984332714E+03   -0.32697E-02   -0.28692E+00  5296   0.423E+00    0.279E-01
DAV:   2    -0.334985108204E+03   -0.77549E-03   -0.16299E-02  6544   0.340E-01    0.190E-01
DAV:   3    -0.334984857322E+03    0.25088E-03   -0.23536E-03  7188   0.140E-01    0.460E-02
DAV:   4    -0.334984816097E+03    0.41225E-04   -0.53180E-04  6184   0.590E-02    0.218E-02
DAV:   5    -0.334984814584E+03    0.15129E-05   -0.60054E-05  6568   0.211E-02    0.597E-03
DAV:   6    -0.334984814686E+03   -0.10152E-06   -0.36849E-06  5380   0.499E-03
  12 F= -.33743756E+03 E0= -.33743756E+03  d E =-.789195E-02
 curvature:  -1.53 expect dE=-0.682E-02 dE for cont linesearch -0.104E-03
 trial: gam= 0.53511 g(F)=  0.447E-02 g(S)=  0.000E+00 ort =-0.135E-02 (trialstep = 0.611E+00)
 search vector abs. value=  0.107E-01
 bond charge predicted
       N       E                     dE             d eps       ncg     rms          rms(c)
DAV:   1    -0.334985309050E+03   -0.49447E-03   -0.30874E-01  5304   0.157E+00    0.108E-01
DAV:   2    -0.334985445006E+03   -0.13596E-03   -0.32462E-03  6716   0.167E-01    0.805E-02
DAV:   3    -0.334985383653E+03    0.61353E-04   -0.55670E-04  6588   0.745E-02    0.211E-02
DAV:   4    -0.334985370333E+03    0.13320E-04   -0.13130E-04  6138   0.325E-02    0.100E-02
DAV:   5    -0.334985371979E+03   -0.16459E-05   -0.18236E-05  6656   0.116E-02    0.388E-03
DAV:   6    -0.334985371575E+03    0.40448E-06   -0.11502E-06  3634   0.302E-03
  13 F= -.33743808E+03 E0= -.33743808E+03  d E =-.513390E-03
 trial-energy change:   -0.000513  1 .order   -0.000500   -0.002292    0.001292
 step:   0.3940(harm=  0.3908)  dis= 0.00239  next Energy=  -337.438306 (dE=-0.742E-03)
 bond charge predicted
       N       E                     dE             d eps       ncg     rms          rms(c)
DAV:   1    -0.334985582369E+03   -0.21039E-03   -0.38882E-02  5312   0.557E-01    0.386E-02
DAV:   2    -0.334985596845E+03   -0.14475E-04   -0.40396E-04  6712   0.589E-02    0.287E-02
DAV:   3    -0.334985587636E+03    0.92089E-05   -0.75297E-05  6598   0.272E-02    0.802E-03
DAV:   4    -0.334985585844E+03    0.17920E-05   -0.17812E-05  6132   0.120E-02    0.365E-03
DAV:   5    -0.334985585828E+03    0.15812E-07   -0.24081E-06  4840   0.432E-03
  14 F= -.33743831E+03 E0= -.33743831E+03  d E =-.742752E-03
 curvature:  -0.56 expect dE=-0.875E-03 dE for cont linesearch -0.109E-07
 trial: gam= 0.17500 g(F)=  0.157E-02 g(S)=  0.000E+00 ort =-0.145E-04 (trialstep = 0.568E+00)
 search vector abs. value=  0.189E-02
 reached required accuracy - stopping structural energy minimisation
