 running on    4 total cores
 distrk:  each k-point on    4 cores,    1 groups
 distr:  one band on    2 cores,    2 groups
 using from now: INCAR     
 vasp.5.3.5 31Mar14 (build Nov 02 2014 15:17:37) complex                        
  
 POSCAR found type information on POSCAR  H  C 
 POSCAR found :  2 types and      80 ions
 scaLAPACK will be used

 ----------------------------------------------------------------------------- 
|                                                                             |
|  ADVICE TO THIS USER RUNNING 'VASP/VAMP'   (HEAR YOUR MASTER'S VOICE ...):  |
|                                                                             |
|      You have a (more or less) 'large supercell' and for larger cells       |
|      it might be more efficient to use real space projection operators      |
|      So try LREAL= Auto  in the INCAR   file.                               |
|      Mind: If you want to do a very accurate calculations keep the          |
|      reciprocal projection scheme          (i.e. LREAL=.FALSE.)             |
|                                                                             |
 ----------------------------------------------------------------------------- 

 LDA part: xc-table for Pade appr. of Perdew
 POSCAR, INCAR and KPOINTS ok, starting setup
 WARNING: small aliasing (wrap around) errors must be expected
 FFT: planning ...
 WAVECAR not read
 WARNING: random wavefunctions but no delay for mixing, default for NELMDL
 entering main loop
       N       E                     dE             d eps       ncg     rms          rms(c)
DAV:   1     0.743165739374E+03    0.74317E+03   -0.57684E+04  5780   0.111E+03
DAV:   2    -0.196206059598E+03   -0.93937E+03   -0.91929E+03  6792   0.243E+02
DAV:   3    -0.299239114902E+03   -0.10303E+03   -0.10249E+03  7336   0.821E+01
DAV:   4    -0.301811632989E+03   -0.25725E+01   -0.25694E+01  7144   0.161E+01
DAV:   5    -0.301862097649E+03   -0.50465E-01   -0.50454E-01  7232   0.207E+00    0.563E+01
DAV:   6    -0.194786871550E+03    0.10708E+03   -0.20449E+02  6168   0.351E+01    0.218E+01
DAV:   7    -0.184193008754E+03    0.10594E+02   -0.37057E+01  6784   0.160E+01    0.995E+00
DAV:   8    -0.182756249767E+03    0.14368E+01   -0.33428E+00  7012   0.462E+00    0.140E+00
DAV:   9    -0.182695846959E+03    0.60403E-01   -0.21456E-01  6614   0.117E+00    0.518E-01
DAV:  10    -0.182716355979E+03   -0.20509E-01   -0.44272E-02  6278   0.530E-01    0.314E-01
DAV:  11    -0.182723211189E+03   -0.68552E-02   -0.93446E-03  6148   0.323E-01    0.111E-01
DAV:  12    -0.182723041635E+03    0.16955E-03   -0.12770E-03  7288   0.968E-02    0.394E-02
DAV:  13    -0.182723103872E+03   -0.62236E-04   -0.15330E-04  6286   0.392E-02    0.152E-02
DAV:  14    -0.182723108978E+03   -0.51061E-05   -0.57601E-05  6448   0.191E-02    0.550E-03
DAV:  15    -0.182723109567E+03   -0.58927E-06   -0.39030E-06  6248   0.584E-03
   1 F= -.18540578E+03 E0= -.18540578E+03  d E =-.185406E+03
 curvature:   0.00 expect dE= 0.000E+00 dE for cont linesearch  0.000E+00
 trial: gam= 0.00000 g(F)=  0.202E+05 g(S)=  0.000E+00 ort = 0.000E+00 (trialstep = 0.100E+01)
 search vector abs. value=  0.202E+05
 bond charge predicted
       N       E                     dE             d eps       ncg     rms          rms(c)
DAV:   1    -0.300661547392E+03   -0.11794E+03   -0.89967E+03  6638   0.244E+02    0.342E+01
DAV:   2    -0.335894288880E+03   -0.35233E+02   -0.73274E+02  7312   0.575E+01    0.221E+01
DAV:   3    -0.327926877367E+03    0.79674E+01   -0.42333E+01  6934   0.151E+01    0.118E+01
DAV:   4    -0.326627637620E+03    0.12992E+01   -0.44915E+00  6634   0.524E+00    0.606E+00
DAV:   5    -0.326686752436E+03   -0.59115E-01   -0.11655E+00  6934   0.296E+00    0.129E+00
DAV:   6    -0.326685819164E+03    0.93327E-03   -0.16797E-01  6580   0.107E+00    0.625E-01
DAV:   7    -0.326688403517E+03   -0.25844E-02   -0.44261E-02  6984   0.531E-01    0.182E-01
DAV:   8    -0.326688974248E+03   -0.57073E-03   -0.37665E-03  6532   0.164E-01    0.118E-01
DAV:   9    -0.326689068344E+03   -0.94095E-04   -0.15544E-03  7030   0.102E-01    0.245E-02
DAV:  10    -0.326689125110E+03   -0.56767E-04   -0.23617E-04  6678   0.398E-02    0.133E-02
DAV:  11    -0.326689147811E+03   -0.22701E-04   -0.33984E-05  6894   0.148E-02    0.655E-03
DAV:  12    -0.326689150085E+03   -0.22738E-05   -0.70054E-06  6760   0.624E-03    0.174E-03
DAV:  13    -0.326689150565E+03   -0.48012E-06   -0.82850E-07  4400   0.245E-03
   2 F= -.33027378E+03 E0= -.33027378E+03  d E =-.144868E+03
 trial-energy change: -144.867998  1 .order************************  118.448439
 step:   0.9942(harm=  0.9942)  dis= 7.03358  next Energy=-10226.184976 (dE=-0.100E+05)
 bond charge predicted
       N       E                     dE             d eps       ncg     rms          rms(c)
DAV:   1    -0.327412623355E+03   -0.72347E+00   -0.38545E+01  5750   0.156E+01    0.169E+00
DAV:   2    -0.327440380035E+03   -0.27757E-01   -0.75003E-01  6688   0.202E+00    0.877E-01
DAV:   3    -0.327434733133E+03    0.56469E-02   -0.28472E-02  6762   0.459E-01    0.402E-01
DAV:   4    -0.327435053003E+03   -0.31987E-03   -0.67923E-03  6834   0.202E-01    0.116E-01
DAV:   5    -0.327435164165E+03   -0.11116E-03   -0.11394E-03  6864   0.815E-02    0.498E-02
DAV:   6    -0.327435169318E+03   -0.51527E-05   -0.10879E-04  6660   0.281E-02    0.124E-02
DAV:   7    -0.327435170110E+03   -0.79200E-06   -0.11448E-05  6710   0.104E-02    0.520E-03
DAV:   8    -0.327435171402E+03   -0.12920E-05   -0.42694E-06  6140   0.583E-03    0.223E-03
DAV:   9    -0.327435171864E+03   -0.46263E-06   -0.89596E-07  4178   0.272E-03
   3 F= -.33102729E+03 E0= -.33102729E+03  d E =-.145622E+03
 curvature:  -0.50 expect dE=-0.758E+01 dE for cont linesearch -0.454E+00
 ZBRENT: interpolating
 opt :   0.9875  next Energy=  -331.477942 (dE=-0.146E+03)
 bond charge predicted
       N       E                     dE             d eps       ncg     rms          rms(c)
DAV:   1    -0.328272199083E+03   -0.83703E+00   -0.49790E+01  5728   0.178E+01    0.172E+00
DAV:   2    -0.328328236749E+03   -0.56038E-01   -0.10086E+00  6712   0.239E+00    0.958E-01
DAV:   3    -0.328322633027E+03    0.56037E-02   -0.36399E-02  6844   0.524E-01    0.469E-01
DAV:   4    -0.328322772492E+03   -0.13946E-03   -0.78374E-03  6784   0.235E-01    0.121E-01
DAV:   5    -0.328322935711E+03   -0.16322E-03   -0.19622E-03  6974   0.102E-01    0.543E-02
DAV:   6    -0.328322927427E+03    0.82837E-05   -0.12522E-04  6638   0.311E-02    0.212E-02
DAV:   7    -0.328322931460E+03   -0.40334E-05   -0.24600E-05  6516   0.142E-02    0.605E-03
DAV:   8    -0.328322932964E+03   -0.15034E-05   -0.48915E-06  6644   0.657E-03    0.262E-03
DAV:   9    -0.328322933576E+03   -0.61188E-06   -0.10992E-06  4202   0.320E-03
   4 F= -.33192294E+03 E0= -.33192294E+03  d E =-.146517E+03
 curvature:  -0.49 expect dE=-0.580E+01 dE for cont linesearch -0.419E+00
 ZBRENT: interpolating
 opt :   0.8099  next Energy=  -343.628173 (dE=-0.158E+03)
 bond charge predicted
       N       E                     dE             d eps       ncg     rms          rms(c)
DAV:   1     0.118052876744E+03    0.44638E+03   -0.60435E+03  7680   0.170E+02    0.415E+01
DAV:   2     0.466175809430E+02   -0.71435E+02   -0.11962E+03  6354   0.807E+01    0.264E+01
DAV:   3     0.447706699140E+02   -0.18469E+01   -0.59437E+01  6830   0.202E+01    0.209E+01
DAV:   4     0.509151261590E+02    0.61445E+01   -0.65084E+00  7072   0.810E+00    0.845E+00
DAV:   5     0.516188170537E+02    0.70369E+00   -0.36097E+00  6538   0.533E+00    0.148E+00
DAV:   6     0.515589124446E+02   -0.59905E-01   -0.29493E-01  6828   0.150E+00    0.108E+00
DAV:   7     0.515580057003E+02   -0.90674E-03   -0.85746E-02  6884   0.750E-01    0.492E-01
DAV:   8     0.515572315806E+02   -0.77412E-03   -0.11193E-02  6508   0.286E-01    0.200E-01
DAV:   9     0.515567534590E+02   -0.47812E-03   -0.56996E-03  6666   0.187E-01    0.127E-01
DAV:  10     0.515568190401E+02    0.65581E-04   -0.10491E-03  6508   0.855E-02    0.303E-02
DAV:  11     0.515567423762E+02   -0.76664E-04   -0.16331E-04  6752   0.332E-02    0.182E-02
DAV:  12     0.515567227039E+02   -0.19672E-04   -0.23432E-05  6720   0.127E-02    0.511E-03
DAV:  13     0.515567224210E+02   -0.28289E-06   -0.59102E-06  6498   0.661E-03
   5 F= 0.47532225E+02 E0= 0.47532225E+02  d E =0.232938E+03
 curvature: -13.79 expect dE=-0.773E+06 dE for cont linesearch -0.602E+06
 ZBRENT: bisectioning
 opt :   0.4049  next Energy= -3314.590971 (dE=-0.313E+04)
 bond charge predicted
       N       E                     dE             d eps       ncg     rms          rms(c)
DAV:   1    -0.154485936898E+03   -0.20604E+03   -0.10766E+04  8286   0.223E+02    0.327E+01
DAV:   2    -0.285900287279E+03   -0.13141E+03   -0.13735E+03  7438   0.852E+01    0.246E+01
DAV:   3    -0.280543918736E+03    0.53564E+01   -0.88251E+01  6824   0.222E+01    0.180E+01
DAV:   4    -0.274959418140E+03    0.55845E+01   -0.97540E+00  6938   0.772E+00    0.898E+00
DAV:   5    -0.274991100230E+03   -0.31682E-01   -0.27696E+00  6782   0.399E+00    0.358E+00
DAV:   6    -0.274925700458E+03    0.65400E-01   -0.54110E-01  6788   0.212E+00    0.112E+00
DAV:   7    -0.274997563871E+03   -0.71863E-01   -0.15160E-01  6456   0.110E+00    0.972E-01
DAV:   8    -0.274999166900E+03   -0.16030E-02   -0.32824E-02  6360   0.649E-01    0.225E-01
DAV:   9    -0.275013145903E+03   -0.13979E-01   -0.22055E-02  6152   0.369E-01    0.217E-01
DAV:  10    -0.275016391345E+03   -0.32454E-02   -0.28390E-03  6602   0.166E-01    0.633E-02
DAV:  11    -0.275017099671E+03   -0.70833E-03   -0.10225E-03  6096   0.995E-02    0.209E-02
DAV:  12    -0.275017214999E+03   -0.11533E-03   -0.50631E-05  6988   0.238E-02    0.126E-02
DAV:  13    -0.275017192425E+03    0.22574E-04   -0.22727E-05  6104   0.158E-02    0.619E-03
DAV:  14    -0.275017178519E+03    0.13906E-04   -0.48077E-06  6596   0.542E-03    0.163E-03
DAV:  15    -0.275017177831E+03    0.68725E-06   -0.76514E-07  4024   0.267E-03
   6 F= -.27866336E+03 E0= -.27866336E+03  d E =-.932576E+02
 curvature:  -0.07 expect dE=-0.113E+02 dE for cont linesearch -0.330E+01
 ZBRENT: interpolating
 opt :   0.3865  next Energy=  -287.560381 (dE=-0.102E+03)
 bond charge predicted
       N       E                     dE             d eps       ncg     rms          rms(c)
DAV:   1    -0.286783194429E+03   -0.11766E+02   -0.36712E+02  5726   0.484E+01    0.478E+00
DAV:   2    -0.288470924625E+03   -0.16877E+01   -0.18791E+01  6516   0.960E+00    0.320E+00
DAV:   3    -0.288426847469E+03    0.44077E-01   -0.26552E-01  6940   0.141E+00    0.159E+00
DAV:   4    -0.288424340271E+03    0.25072E-02   -0.71314E-02  6236   0.659E-01    0.392E-01
DAV:   5    -0.288427003370E+03   -0.26631E-02   -0.73322E-03  7034   0.231E-01    0.171E-01
DAV:   6    -0.288425996326E+03    0.10070E-02   -0.19329E-03  6588   0.131E-01    0.391E-02
DAV:   7    -0.288426162383E+03   -0.16606E-03   -0.60358E-04  6468   0.582E-02    0.243E-02
DAV:   8    -0.288426336291E+03   -0.17391E-03   -0.55606E-05  6024   0.223E-02    0.988E-03
DAV:   9    -0.288426312909E+03    0.23383E-04   -0.16333E-05  6328   0.121E-02    0.363E-03
DAV:  10    -0.288426337644E+03   -0.24735E-04   -0.37385E-06  5478   0.598E-03    0.122E-03
DAV:  11    -0.288426341134E+03   -0.34903E-05   -0.35642E-07  4376   0.189E-03    0.683E-04
DAV:  12    -0.288426343718E+03   -0.25837E-05   -0.73699E-08  3358   0.903E-04    0.203E-04
DAV:  13    -0.288426344284E+03   -0.56638E-06   -0.13029E-08  3116   0.374E-04
   7 F= -.29205823E+03 E0= -.29205823E+03  d E =-.106652E+03
 curvature:  -0.19 expect dE=-0.780E+01 dE for cont linesearch -0.228E+01
 ZBRENT: interpolating
 opt :   0.3680  next Energy=  -296.669102 (dE=-0.111E+03)
 bond charge predicted
       N       E                     dE             d eps       ncg     rms          rms(c)
DAV:   1    -0.291311535862E+03   -0.28852E+01   -0.34482E+02  5724   0.478E+01    0.374E+00
DAV:   2    -0.293126911906E+03   -0.18154E+01   -0.19259E+01  6670   0.102E+01    0.262E+00
DAV:   3    -0.293124443941E+03    0.24680E-02   -0.29563E-01  7010   0.130E+00    0.152E+00
DAV:   4    -0.293130467683E+03   -0.60237E-02   -0.43293E-02  6588   0.538E-01    0.479E-01
DAV:   5    -0.293133010280E+03   -0.25426E-02   -0.76166E-03  6992   0.215E-01    0.133E-01
DAV:   6    -0.293132724768E+03    0.28551E-03   -0.11513E-03  6488   0.972E-02    0.310E-02
DAV:   7    -0.293132790284E+03   -0.65516E-04   -0.34532E-04  6552   0.414E-02    0.189E-02
DAV:   8    -0.293132811650E+03   -0.21366E-04   -0.26762E-05  6184   0.152E-02    0.676E-03
DAV:   9    -0.293132815780E+03   -0.41302E-05   -0.61592E-06  6650   0.757E-03    0.248E-03
DAV:  10    -0.293132816711E+03   -0.93039E-06   -0.18561E-06  4754   0.419E-03
   8 F= -.29676105E+03 E0= -.29676105E+03  d E =-.111355E+03
 curvature:  -0.39 expect dE=-0.612E+01 dE for cont linesearch -0.351E-01
 ZBRENT: interpolating
 opt :   0.3663  next Energy=  -296.798641 (dE=-0.111E+03)
 bond charge predicted
       N       E                     dE             d eps       ncg     rms          rms(c)
DAV:   1    -0.293161824506E+03   -0.29009E-01   -0.31899E+00  5728   0.458E+00    0.314E-01
DAV:   2    -0.293172987240E+03   -0.11163E-01   -0.11895E-01  7030   0.761E-01    0.228E-01
DAV:   3    -0.293172959124E+03    0.28116E-04   -0.17785E-03  7128   0.102E-01    0.120E-01
DAV:   4    -0.293172970312E+03   -0.11188E-04   -0.24462E-04  6804   0.427E-02    0.205E-02
DAV:   5    -0.293172969633E+03    0.67929E-06   -0.43121E-05  6654   0.173E-02    0.100E-02
DAV:   6    -0.293172970270E+03   -0.63745E-06   -0.73341E-06  6688   0.760E-03
   9 F= -.29680434E+03 E0= -.29680434E+03  d E =-.111399E+03
 curvature:  -0.42 expect dE=-0.646E+01 dE for cont linesearch -0.113E-02
 ZBRENT: interpolating
 opt :   0.3659  next Energy=  -296.805698 (dE=-0.111E+03)
 bond charge predicted
       N       E                     dE             d eps       ncg     rms          rms(c)
DAV:   1    -0.293172968218E+03    0.14147E-05   -0.14067E-01  5728   0.960E-01    0.657E-02
DAV:   2    -0.293173461330E+03   -0.49311E-03   -0.53018E-03  7046   0.160E-01    0.479E-02
DAV:   3    -0.293173457039E+03    0.42917E-05   -0.79577E-05  7072   0.216E-02    0.261E-02
DAV:   4    -0.293173453976E+03    0.30624E-05   -0.12362E-05  6834   0.959E-03    0.433E-03
DAV:   5    -0.293173453825E+03    0.15184E-06   -0.22739E-06  5234   0.402E-03
  10 F= -.29680572E+03 E0= -.29680572E+03  d E =-.111400E+03
 curvature:  -0.50 expect dE=-0.770E+01 dE for cont linesearch -0.776E-06
 trial: gam= 0.00077 g(F)=  0.154E+02 g(S)=  0.000E+00 ort =-0.177E+00 (trialstep = 0.873E+00)
 search vector abs. value=  0.154E+02
 bond charge predicted
       N       E                     dE             d eps       ncg     rms          rms(c)
DAV:   1    -0.304130408169E+03   -0.10957E+02   -0.57188E+02  5724   0.612E+01    0.688E+00
DAV:   2    -0.303866523353E+03    0.26388E+00   -0.17960E+01  6888   0.113E+01    0.389E+00
DAV:   3    -0.303767943611E+03    0.98580E-01   -0.36488E+00  6888   0.481E+00    0.181E+00
DAV:   4    -0.303692389574E+03    0.75554E-01   -0.64015E-01  6648   0.227E+00    0.934E-01
DAV:   5    -0.303702557628E+03   -0.10168E-01   -0.75844E-02  6472   0.653E-01    0.327E-01
DAV:   6    -0.303701687795E+03    0.86983E-03   -0.73298E-03  7024   0.243E-01    0.896E-02
DAV:   7    -0.303701815528E+03   -0.12773E-03   -0.24181E-03  6904   0.130E-01    0.395E-02
DAV:   8    -0.303701805418E+03    0.10110E-04   -0.18461E-04  6624   0.337E-02    0.192E-02
DAV:   9    -0.303701807886E+03   -0.24684E-05   -0.40781E-05  6672   0.175E-02    0.522E-03
DAV:  10    -0.303701810709E+03   -0.28223E-05   -0.68489E-06  6550   0.706E-03    0.205E-03
DAV:  11    -0.303701812559E+03   -0.18505E-05   -0.93188E-07  4352   0.315E-03    0.150E-03
DAV:  12    -0.303701812665E+03   -0.10531E-06   -0.28576E-07  4276   0.176E-03
  11 F= -.30748421E+03 E0= -.30748421E+03  d E =-.106785E+02
 trial-energy change:  -10.678489  1 .order  -10.004391  -13.449444   -6.559338
 step:   1.3145(harm=  1.7044)  dis= 0.24860  next Energy=  -309.228737 (dE=-0.124E+02)
 bond charge predicted
       N       E                     dE             d eps       ncg     rms          rms(c)
DAV:   1    -0.305501380165E+03   -0.17996E+01   -0.16860E+02  5828   0.339E+01    0.373E+00
DAV:   2    -0.305291402305E+03    0.20998E+00   -0.41861E+00  6928   0.563E+00    0.209E+00
DAV:   3    -0.305256852520E+03    0.34550E-01   -0.95810E-01  6968   0.244E+00    0.901E-01
DAV:   4    -0.305243892868E+03    0.12960E-01   -0.17352E-01  6772   0.122E+00    0.546E-01
DAV:   5    -0.305241547013E+03    0.23459E-02   -0.15968E-02  6348   0.387E-01    0.106E-01
DAV:   6    -0.305241478612E+03    0.68401E-04   -0.36463E-03  6870   0.157E-01    0.600E-02
DAV:   7    -0.305241492310E+03   -0.13698E-04   -0.63366E-04  7332   0.671E-02    0.355E-02
DAV:   8    -0.305241447927E+03    0.44383E-04   -0.13262E-04  7044   0.332E-02    0.125E-02
DAV:   9    -0.305241450684E+03   -0.27577E-05   -0.51596E-05  6774   0.170E-02    0.360E-03
DAV:  10    -0.305241451212E+03   -0.52769E-06   -0.24171E-06  5544   0.450E-03
  12 F= -.30903485E+03 E0= -.30903485E+03  d E =-.122291E+02
 curvature:  -0.67 expect dE=-0.237E+02 dE for cont linesearch -0.653E-01
 trial: gam= 2.38437 g(F)=  0.357E+02 g(S)=  0.000E+00 ort =-0.123E+01 (trialstep = 0.126E+00)
 search vector abs. value=  0.117E+03
 bond charge predicted
       N       E                     dE             d eps       ncg     rms          rms(c)
DAV:   1    -0.309281361757E+03   -0.40399E+01   -0.48719E+01  5796   0.184E+01    0.155E+00
DAV:   2    -0.309309365974E+03   -0.28004E-01   -0.83525E-01  6968   0.237E+00    0.105E+00
DAV:   3    -0.309292895437E+03    0.16471E-01   -0.11583E-01  7004   0.900E-01    0.347E-01
DAV:   4    -0.309291561379E+03    0.13341E-02   -0.20492E-02  6820   0.413E-01    0.187E-01
DAV:   5    -0.309291810182E+03   -0.24880E-03   -0.25993E-03  6632   0.132E-01    0.449E-02
DAV:   6    -0.309291818651E+03   -0.84691E-05   -0.27694E-04  6982   0.469E-02    0.303E-02
DAV:   7    -0.309291824089E+03   -0.54374E-05   -0.56225E-05  6202   0.218E-02    0.126E-02
DAV:   8    -0.309291819749E+03    0.43403E-05   -0.23554E-05  6902   0.139E-02    0.302E-03
DAV:   9    -0.309291820997E+03   -0.12482E-05   -0.64301E-06  6462   0.707E-03    0.155E-03
DAV:  10    -0.309291821087E+03   -0.89892E-07   -0.16559E-07  3918   0.130E-03
  13 F= -.31308223E+03 E0= -.31308223E+03  d E =-.404738E+01
 ZBRENT: can't locate minimum, use default step
 trial-energy change:   -4.047376  1 .order   -4.023303   -4.133853   -3.912752
 step:   0.5047(harm=  2.3589)  dis= 0.25231  next Energy=  -347.679527 (dE=-0.386E+02)
 bond charge predicted
       N       E                     dE             d eps       ncg     rms          rms(c)
DAV:   1    -0.317207407539E+03   -0.79156E+01   -0.47028E+02  5822   0.569E+01    0.606E+00
DAV:   2    -0.317524898043E+03   -0.31749E+00   -0.10933E+01  7150   0.858E+00    0.443E+00
DAV:   3    -0.317099119605E+03    0.42578E+00   -0.17303E+00  7184   0.396E+00    0.108E+00
DAV:   4    -0.317085559014E+03    0.13561E-01   -0.36415E-01  6750   0.175E+00    0.561E-01
DAV:   5    -0.317084334394E+03    0.12246E-02   -0.59250E-02  7182   0.615E-01    0.215E-01
DAV:   6    -0.317085266652E+03   -0.93226E-03   -0.47228E-03  6844   0.201E-01    0.104E-01
DAV:   7    -0.317085536624E+03   -0.26997E-03   -0.53489E-04  6248   0.826E-02    0.158E-02
DAV:   8    -0.317085562467E+03   -0.25842E-04   -0.14331E-04  7392   0.308E-02    0.158E-02
DAV:   9    -0.317085569700E+03   -0.72331E-05   -0.45707E-05  6094   0.199E-02    0.687E-03
DAV:  10    -0.317085569240E+03    0.45929E-06   -0.70442E-06  7268   0.723E-03
  14 F= -.32075944E+03 E0= -.32075944E+03  d E =-.117246E+02
 curvature:  -1.31 expect dE=-0.144E+03 dE for cont linesearch -0.136E-01
 trial: gam= 1.90997 g(F)=  0.110E+03 g(S)=  0.000E+00 ort =-0.111E+01 (trialstep = 0.444E-01)
 search vector abs. value=  0.534E+03
 bond charge predicted
       N       E                     dE             d eps       ncg     rms          rms(c)
DAV:   1    -0.321376282174E+03   -0.42907E+01   -0.24537E+01  6026   0.128E+01    0.211E+00
DAV:   2    -0.321319815091E+03    0.56467E-01   -0.72902E-01  7048   0.240E+00    0.137E+00
DAV:   3    -0.321285625645E+03    0.34189E-01   -0.14788E-01  7162   0.113E+00    0.354E-01
DAV:   4    -0.321285708558E+03   -0.82914E-04   -0.40630E-02  6916   0.582E-01    0.174E-01
DAV:   5    -0.321285712812E+03   -0.42531E-05   -0.27748E-03  6612   0.175E-01    0.467E-02
DAV:   6    -0.321285781968E+03   -0.69157E-04   -0.70366E-04  6806   0.689E-02    0.317E-02
DAV:   7    -0.321285783150E+03   -0.11817E-05   -0.89048E-05  7046   0.338E-02    0.879E-03
DAV:   8    -0.321285790624E+03   -0.74737E-05   -0.31302E-05  6436   0.148E-02    0.364E-03
DAV:   9    -0.321285791300E+03   -0.67611E-06   -0.26588E-06  5378   0.559E-03
  15 F= -.32458276E+03 E0= -.32458276E+03  d E =-.382332E+01
 trial-energy change:   -3.823321  1 .order   -3.906428   -4.782464   -3.030392
 step:   0.1212(harm=  0.1212)  dis= 0.13289  next Energy=  -327.286551 (dE=-0.653E+01)
 bond charge predicted
       N       E                     dE             d eps       ncg     rms          rms(c)
DAV:   1    -0.322651238145E+03   -0.13654E+01   -0.81151E+01  6114   0.231E+01    0.452E+00
DAV:   2    -0.322435945420E+03    0.21529E+00   -0.26105E+00  7068   0.443E+00    0.299E+00
DAV:   3    -0.322281898965E+03    0.15405E+00   -0.58717E-01  7046   0.219E+00    0.590E-01
DAV:   4    -0.322283832787E+03   -0.19338E-02   -0.15692E-01  6686   0.111E+00    0.277E-01
DAV:   5    -0.322284263914E+03   -0.43113E-03   -0.87592E-03  6494   0.286E-01    0.832E-02
DAV:   6    -0.322284448178E+03   -0.18426E-03   -0.15263E-03  6988   0.103E-01    0.531E-02
DAV:   7    -0.322284475267E+03   -0.27089E-04   -0.26080E-04  7028   0.577E-02    0.194E-02
DAV:   8    -0.322284490267E+03   -0.15000E-04   -0.83312E-05  6440   0.250E-02    0.562E-03
DAV:   9    -0.322284492931E+03   -0.26643E-05   -0.82661E-06  6612   0.898E-03    0.216E-03
DAV:  10    -0.322284493252E+03   -0.32079E-06   -0.17407E-06  5730   0.411E-03
  16 F= -.32551820E+03 E0= -.32551820E+03  d E =-.475877E+01
 curvature:  -0.30 expect dE=-0.182E+02 dE for cont linesearch -0.271E+01
 ZBRENT: interpolating
 opt :   0.0825  next Energy=  -325.881650 (dE=-0.512E+01)
 bond charge predicted
       N       E                     dE             d eps       ncg     rms          rms(c)
DAV:   1    -0.323223722611E+03   -0.93923E+00   -0.22024E+01  6146   0.120E+01    0.251E+00
DAV:   2    -0.323150119296E+03    0.73603E-01   -0.66017E-01  7200   0.232E+00    0.158E+00
DAV:   3    -0.323113937719E+03    0.36182E-01   -0.18500E-01  6932   0.124E+00    0.323E-01
DAV:   4    -0.323112836530E+03    0.11012E-02   -0.48772E-02  6716   0.631E-01    0.149E-01
DAV:   5    -0.323113163518E+03   -0.32699E-03   -0.22467E-03  6492   0.148E-01    0.543E-02
DAV:   6    -0.323113188831E+03   -0.25313E-04   -0.29028E-04  6914   0.494E-02    0.281E-02
DAV:   7    -0.323113186976E+03    0.18553E-05   -0.87900E-05  7202   0.319E-02    0.943E-03
DAV:   8    -0.323113186845E+03    0.13136E-06   -0.27592E-05  6432   0.146E-02    0.306E-03
DAV:   9    -0.323113187799E+03   -0.95450E-06   -0.19514E-06  5388   0.477E-03
  17 F= -.32634896E+03 E0= -.32634896E+03  d E =-.558952E+01
 curvature:  -0.14 expect dE=-0.749E+01 dE for cont linesearch -0.955E-01
 ZBRENT: interpolating
 opt :   0.0939  next Energy=  -326.479274 (dE=-0.572E+01)
 bond charge predicted
       N       E                     dE             d eps       ncg     rms          rms(c)
DAV:   1    -0.323219799122E+03   -0.10661E+00   -0.18431E+00  6150   0.346E+00    0.692E-01
DAV:   2    -0.323214311768E+03    0.54874E-02   -0.55292E-02  7140   0.655E-01    0.443E-01
DAV:   3    -0.323211213327E+03    0.30984E-02   -0.13406E-02  6958   0.334E-01    0.896E-02
DAV:   4    -0.323211193551E+03    0.19776E-04   -0.36011E-03  6734   0.170E-01    0.412E-02
DAV:   5    -0.323211225423E+03   -0.31872E-04   -0.19203E-04  6448   0.428E-02    0.138E-02
DAV:   6    -0.323211228526E+03   -0.31024E-05   -0.27793E-05  6910   0.145E-02    0.806E-03
DAV:   7    -0.323211229355E+03   -0.82940E-06   -0.66524E-06  7098   0.906E-03
  18 F= -.32644499E+03 E0= -.32644499E+03  d E =-.568555E+01
 curvature:  -0.20 expect dE=-0.977E+01 dE for cont linesearch -0.244E-02
 trial: gam=-0.12458 g(F)=  0.498E+02 g(S)=  0.000E+00 ort =-0.258E+01 (trialstep = 0.543E-01)
 search vector abs. value=  0.587E+02
 bond charge predicted
       N       E                     dE             d eps       ncg     rms          rms(c)
DAV:   1    -0.325536981741E+03   -0.23258E+01   -0.15821E+01  5758   0.111E+01    0.146E+00
DAV:   2    -0.325516887256E+03    0.20094E-01   -0.46217E-01  7104   0.180E+00    0.923E-01
DAV:   3    -0.325498781100E+03    0.18106E-01   -0.10226E-01  7228   0.871E-01    0.241E-01
DAV:   4    -0.325497857492E+03    0.92361E-03   -0.19015E-02  7084   0.406E-01    0.130E-01
DAV:   5    -0.325497816404E+03    0.41087E-04   -0.15397E-03  6362   0.113E-01    0.350E-02
DAV:   6    -0.325497837468E+03   -0.21064E-04   -0.23102E-04  6998   0.407E-02    0.222E-02
DAV:   7    -0.325497834364E+03    0.31047E-05   -0.25069E-05  6784   0.157E-02    0.428E-03
DAV:   8    -0.325497834948E+03   -0.58433E-06   -0.90188E-06  7238   0.707E-03
  19 F= -.32873353E+03 E0= -.32873353E+03  d E =-.228854E+01
 trial-energy change:   -2.288543  1 .order   -2.302134   -2.719864   -1.884404
 step:   0.1767(harm=  0.1767)  dis= 0.05434  next Energy=  -330.872287 (dE=-0.443E+01)
 bond charge predicted
       N       E                     dE             d eps       ncg     rms          rms(c)
DAV:   1    -0.328160361678E+03   -0.26625E+01   -0.76229E+01  5742   0.239E+01    0.285E+00
DAV:   2    -0.328125447901E+03    0.34914E-01   -0.23353E+00  6968   0.393E+00    0.177E+00
DAV:   3    -0.328061601300E+03    0.63847E-01   -0.35976E-01  7152   0.159E+00    0.526E-01
DAV:   4    -0.328059059396E+03    0.25419E-02   -0.64605E-02  6948   0.726E-01    0.287E-01
DAV:   5    -0.328058567888E+03    0.49151E-03   -0.69960E-03  6452   0.232E-01    0.740E-02
DAV:   6    -0.328058598316E+03   -0.30428E-04   -0.12421E-03  6954   0.939E-02    0.460E-02
DAV:   7    -0.328058605144E+03   -0.68280E-05   -0.14875E-04  6658   0.352E-02    0.150E-02
DAV:   8    -0.328058601142E+03    0.40015E-05   -0.30675E-05  7150   0.152E-02    0.349E-03
DAV:   9    -0.328058602143E+03   -0.10010E-05   -0.63959E-06  6310   0.691E-03    0.146E-03
DAV:  10    -0.328058602099E+03    0.44665E-07   -0.18561E-07  3548   0.130E-03
  20 F= -.33131676E+03 E0= -.33131676E+03  d E =-.487177E+01
 curvature:  -0.10 expect dE=-0.918E+00 dE for cont linesearch -0.159E+00
 ZBRENT: extrapolating
 opt :   0.2228  next Energy=  -331.535100 (dE=-0.509E+01)
 bond charge predicted
       N       E                     dE             d eps       ncg     rms          rms(c)
DAV:   1    -0.328316596984E+03   -0.25799E+00   -0.10230E+01  5748   0.855E+00    0.933E-01
DAV:   2    -0.328316828369E+03   -0.23138E-03   -0.30019E-01  7126   0.138E+00    0.588E-01
DAV:   3    -0.328310038502E+03    0.67899E-02   -0.41854E-02  7132   0.544E-01    0.188E-01
DAV:   4    -0.328309694286E+03    0.34422E-03   -0.79621E-03  6958   0.257E-01    0.109E-01
DAV:   5    -0.328309600980E+03    0.93307E-04   -0.91740E-04  6488   0.848E-02    0.255E-02
DAV:   6    -0.328309602057E+03   -0.10775E-05   -0.17565E-04  6888   0.351E-02    0.156E-02
DAV:   7    -0.328309604555E+03   -0.24975E-05   -0.22717E-05  7008   0.132E-02    0.636E-03
DAV:   8    -0.328309603367E+03    0.11878E-05   -0.36331E-06  6160   0.592E-03    0.134E-03
DAV:   9    -0.328309603603E+03   -0.23614E-06   -0.13430E-06  3740   0.306E-03
  21 F= -.33159648E+03 E0= -.33159648E+03  d E =-.515149E+01
 curvature:  -0.14 expect dE=-0.115E+01 dE for cont linesearch -0.207E-01
 ZBRENT: extrapolating
 opt :   0.2451  next Energy=  -331.626056 (dE=-0.518E+01)
 bond charge predicted
       N       E                     dE             d eps       ncg     rms          rms(c)
DAV:   1    -0.328322589796E+03   -0.12986E-01   -0.23545E+00  5784   0.407E+00    0.430E-01
DAV:   2    -0.328323040632E+03   -0.45084E-03   -0.68262E-02  7142   0.656E-01    0.272E-01
DAV:   3    -0.328321618468E+03    0.14222E-02   -0.91083E-03  7084   0.254E-01    0.892E-02
DAV:   4    -0.328321542078E+03    0.76390E-04   -0.17505E-03  6956   0.121E-01    0.525E-02
DAV:   5    -0.328321521050E+03    0.21028E-04   -0.20794E-04  6486   0.403E-02    0.122E-02
DAV:   6    -0.328321521035E+03    0.15371E-07   -0.40042E-05  6940   0.168E-02    0.723E-03
DAV:   7    -0.328321521976E+03   -0.94136E-06   -0.58251E-06  6900   0.662E-03
  22 F= -.33163119E+03 E0= -.33163119E+03  d E =-.518620E+01
 curvature:  -0.20 expect dE=-0.167E+01 dE for cont linesearch -0.206E-03
 trial: gam= 0.08260 g(F)=  0.818E+01 g(S)=  0.000E+00 ort = 0.243E+00 (trialstep = 0.924E-01)
 search vector abs. value=  0.862E+01
 bond charge predicted
       N       E                     dE             d eps       ncg     rms          rms(c)
DAV:   1    -0.329094509084E+03   -0.77299E+00   -0.12083E+00  5742   0.326E+00    0.422E-01
DAV:   2    -0.329092283336E+03    0.22257E-02   -0.24757E-02  7062   0.461E-01    0.245E-01
DAV:   3    -0.329092046073E+03    0.23726E-03   -0.11805E-02  7090   0.264E-01    0.108E-01
DAV:   4    -0.329091676740E+03    0.36933E-03   -0.19452E-03  6758   0.117E-01    0.527E-02
DAV:   5    -0.329091720518E+03   -0.43778E-04   -0.53891E-04  7142   0.530E-02    0.149E-02
DAV:   6    -0.329091718237E+03    0.22816E-05   -0.23539E-05  6848   0.130E-02    0.745E-03
DAV:   7    -0.329091719614E+03   -0.13779E-05   -0.86073E-06  6988   0.695E-03    0.198E-03
DAV:   8    -0.329091720361E+03   -0.74623E-06   -0.31161E-07  3472   0.164E-03
  23 F= -.33236783E+03 E0= -.33236783E+03  d E =-.736648E+00
 ZBRENT: can't locate minimum, use default step
 trial-energy change:   -0.736648  1 .order   -0.736092   -0.758158   -0.714025
 step:   0.3698(harm=  1.5882)  dis= 0.05283  next Energy=  -338.143393 (dE=-0.651E+01)
 bond charge predicted
       N       E                     dE             d eps       ncg     rms          rms(c)
DAV:   1    -0.331119342820E+03   -0.20276E+01   -0.10906E+01  5772   0.983E+00    0.127E+00
DAV:   2    -0.331099495225E+03    0.19848E-01   -0.22466E-01  7006   0.139E+00    0.741E-01
DAV:   3    -0.331096900862E+03    0.25944E-02   -0.10810E-01  7074   0.792E-01    0.325E-01
DAV:   4    -0.331093551972E+03    0.33489E-02   -0.17265E-02  6780   0.347E-01    0.159E-01
DAV:   5    -0.331093807679E+03   -0.25571E-03   -0.50118E-03  7182   0.162E-01    0.469E-02
DAV:   6    -0.331093775034E+03    0.32645E-04   -0.23857E-04  6894   0.411E-02    0.226E-02
DAV:   7    -0.331093780727E+03   -0.56927E-05   -0.86829E-05  7072   0.221E-02    0.599E-03
DAV:   8    -0.331093783602E+03   -0.28755E-05   -0.33852E-06  6158   0.512E-03    0.329E-03
DAV:   9    -0.331093783776E+03   -0.17328E-06   -0.92200E-07  4484   0.276E-03
  24 F= -.33428482E+03 E0= -.33428482E+03  d E =-.265364E+01
 curvature:  -0.28 expect dE=-0.150E+01 dE for cont linesearch -0.118E+01
 ZBRENT: increasing intervall
 opt :   0.9245  next Energy=  -336.690242 (dE=-0.506E+01)
 bond charge predicted
       N       E                     dE             d eps       ncg     rms          rms(c)
DAV:   1    -0.333542989565E+03   -0.24492E+01   -0.43840E+01  5946   0.199E+01    0.257E+00
DAV:   2    -0.333465017409E+03    0.77972E-01   -0.93819E-01  6926   0.279E+00    0.152E+00
DAV:   3    -0.333453473978E+03    0.11543E-01   -0.44317E-01  7112   0.157E+00    0.646E-01
DAV:   4    -0.333440186543E+03    0.13287E-01   -0.66412E-02  6810   0.664E-01    0.315E-01
DAV:   5    -0.333441279591E+03   -0.10930E-02   -0.19564E-02  7182   0.327E-01    0.103E-01
DAV:   6    -0.333441053190E+03    0.22640E-03   -0.11574E-03  6750   0.896E-02    0.442E-02
DAV:   7    -0.333441071456E+03   -0.18266E-04   -0.44396E-04  7214   0.507E-02    0.133E-02
DAV:   8    -0.333441077005E+03   -0.55482E-05   -0.17734E-05  6474   0.119E-02    0.648E-03
DAV:   9    -0.333441078308E+03   -0.13031E-05   -0.54402E-06  6574   0.594E-03    0.191E-03
DAV:  10    -0.333441078420E+03   -0.11199E-06   -0.62940E-07  4036   0.233E-03
  25 F= -.33647647E+03 E0= -.33647647E+03  d E =-.484528E+01
 curvature:  -0.57 expect dE=-0.366E+01 dE for cont linesearch -0.188E+00
 ZBRENT: extrapolating
 opt :   1.1400  next Energy=  -336.658334 (dE=-0.503E+01)
 bond charge predicted
       N       E                     dE             d eps       ncg     rms          rms(c)
DAV:   1    -0.333648226880E+03   -0.20715E+00   -0.67139E+00  6370   0.787E+00    0.105E+00
DAV:   2    -0.333633774970E+03    0.14452E-01   -0.13966E-01  6774   0.106E+00    0.600E-01
DAV:   3    -0.333632303457E+03    0.14715E-02   -0.67254E-02  7064   0.600E-01    0.247E-01
DAV:   4    -0.333630450635E+03    0.18528E-02   -0.89539E-03  6748   0.236E-01    0.125E-01
DAV:   5    -0.333630648890E+03   -0.19826E-03   -0.26235E-03  7100   0.122E-01    0.368E-02
DAV:   6    -0.333630622806E+03    0.26084E-04   -0.13982E-04  6624   0.314E-02    0.175E-02
DAV:   7    -0.333630625040E+03   -0.22346E-05   -0.61316E-05  7236   0.189E-02    0.477E-03
DAV:   8    -0.333630626349E+03   -0.13089E-05   -0.28556E-06  5980   0.475E-03    0.240E-03
DAV:   9    -0.333630626682E+03   -0.33279E-06   -0.57800E-07  4174   0.209E-03
  26 F= -.33662717E+03 E0= -.33662717E+03  d E =-.499598E+01
 curvature:  -0.55 expect dE=-0.573E+01 dE for cont linesearch -0.722E-02
 trial: gam= 1.33020 g(F)=  0.104E+02 g(S)=  0.000E+00 ort =-0.336E+00 (trialstep = 0.105E+00)
 search vector abs. value=  0.248E+02
 bond charge predicted
       N       E                     dE             d eps       ncg     rms          rms(c)
DAV:   1    -0.334642239011E+03   -0.10116E+01   -0.54362E+00  5796   0.668E+00    0.655E-01
DAV:   2    -0.334647004245E+03   -0.47652E-02   -0.14898E-01  7068   0.101E+00    0.442E-01
DAV:   3    -0.334644923675E+03    0.20806E-02   -0.21530E-02  7116   0.434E-01    0.127E-01
DAV:   4    -0.334644727870E+03    0.19581E-03   -0.49523E-03  6586   0.190E-01    0.729E-02
DAV:   5    -0.334644779094E+03   -0.51225E-04   -0.53586E-04  7190   0.537E-02    0.173E-02
DAV:   6    -0.334644780059E+03   -0.96476E-06   -0.46232E-05  6648   0.180E-02    0.861E-03
DAV:   7    -0.334644781046E+03   -0.98720E-06   -0.77532E-06  6428   0.810E-03
  27 F= -.33761833E+03 E0= -.33761833E+03  d E =-.991164E+00
 ZBRENT: can't locate minimum, use default step
 trial-energy change:   -0.991164  1 .order   -0.988150   -1.046433   -0.929867
 step:   0.4206(harm=  0.9439)  dis= 0.11529  next Energy=  -339.893077 (dE=-0.327E+01)
 bond charge predicted
       N       E                     dE             d eps       ncg     rms          rms(c)
DAV:   1    -0.336700860193E+03   -0.20561E+01   -0.50330E+01  5810   0.204E+01    0.212E+00
DAV:   2    -0.336737157093E+03   -0.36297E-01   -0.15025E+00  6992   0.314E+00    0.151E+00
DAV:   3    -0.336707482464E+03    0.29675E-01   -0.29572E-01  7038   0.160E+00    0.454E-01
DAV:   4    -0.336703777925E+03    0.37045E-02   -0.69280E-02  6552   0.707E-01    0.251E-01
DAV:   5    -0.336703792236E+03   -0.14312E-04   -0.80584E-03  7002   0.209E-01    0.619E-02
DAV:   6    -0.336703842559E+03   -0.50323E-04   -0.79673E-04  6774   0.711E-02    0.299E-02
DAV:   7    -0.336703858408E+03   -0.15849E-04   -0.77443E-05  6464   0.262E-02    0.535E-03
DAV:   8    -0.336703861131E+03   -0.27232E-05   -0.13291E-05  7104   0.956E-03    0.323E-03
DAV:   9    -0.336703861930E+03   -0.79907E-06   -0.21926E-06  5432   0.437E-03
  28 F= -.33965880E+03 E0= -.33965880E+03  d E =-.303163E+01
 curvature:  -0.72 expect dE=-0.384E+01 dE for cont linesearch -0.378E+00
 ZBRENT: increasing intervall
 opt :   1.0514  next Energy=  -338.634966 (dE=-0.201E+01)
 bond charge predicted
       N       E                     dE             d eps       ncg     rms          rms(c)
DAV:   1    -0.333086050631E+03    0.36178E+01   -0.21772E+02  6024   0.417E+01    0.578E+00
DAV:   2    -0.332987519571E+03    0.98531E-01   -0.78268E+00  6884   0.655E+00    0.418E+00
DAV:   3    -0.332740867950E+03    0.24665E+00   -0.25986E+00  6884   0.436E+00    0.148E+00
DAV:   4    -0.332671087808E+03    0.69780E-01   -0.50814E-01  6580   0.193E+00    0.676E-01
DAV:   5    -0.332670552069E+03    0.53574E-03   -0.10395E-01  6932   0.702E-01    0.225E-01
DAV:   6    -0.332670297418E+03    0.25465E-03   -0.90657E-03  6742   0.232E-01    0.887E-02
DAV:   7    -0.332670399202E+03   -0.10178E-03   -0.71372E-04  6520   0.654E-02    0.147E-02
DAV:   8    -0.332670409546E+03   -0.10345E-04   -0.55263E-05  7252   0.199E-02    0.706E-03
DAV:   9    -0.332670410656E+03   -0.11095E-05   -0.87425E-06  6350   0.939E-03    0.315E-03
DAV:  10    -0.332670410313E+03    0.34300E-06   -0.10181E-06  5052   0.368E-03
  29 F= -.33563556E+03 E0= -.33563556E+03  d E =0.991603E+00
 curvature:   1.94 expect dE= 0.613E+02 dE for cont linesearch  0.341E+02
 ZBRENT: bracketing found
 ZBRENT: interpolating
 opt :   0.5137  next Energy=  -339.826958 (dE=-0.320E+01)
 bond charge predicted
       N       E                     dE             d eps       ncg     rms          rms(c)
DAV:   1    -0.337449332516E+03   -0.47789E+01   -0.16051E+02  6362   0.350E+01    0.556E+00
DAV:   2    -0.337102983190E+03    0.34635E+00   -0.52745E+00  6688   0.593E+00    0.339E+00
DAV:   3    -0.336948195016E+03    0.15479E+00   -0.12384E+00  6958   0.295E+00    0.888E-01
DAV:   4    -0.336941263216E+03    0.69318E-02   -0.23538E-01  6672   0.131E+00    0.491E-01
DAV:   5    -0.336943651624E+03   -0.23884E-02   -0.21501E-02  6676   0.346E-01    0.135E-01
DAV:   6    -0.336943319555E+03    0.33207E-03   -0.23139E-03  7062   0.135E-01    0.661E-02
DAV:   7    -0.336943359303E+03   -0.39748E-04   -0.58512E-04  6458   0.632E-02    0.303E-02
DAV:   8    -0.336943335345E+03    0.23958E-04   -0.99689E-05  7158   0.278E-02    0.763E-03
DAV:   9    -0.336943341291E+03   -0.59461E-05   -0.41327E-05  6426   0.160E-02    0.703E-03
DAV:  10    -0.336943340588E+03    0.70305E-06   -0.17737E-06  5706   0.405E-03
  30 F= -.33989733E+03 E0= -.33989733E+03  d E =-.327017E+01
 curvature:  -0.01 expect dE=-0.481E-01 dE for cont linesearch -0.816E-03
 trial: gam= 0.00592 g(F)=  0.502E+01 g(S)=  0.000E+00 ort = 0.145E+01 (trialstep = 0.187E+00)
 search vector abs. value=  0.504E+01
 bond charge predicted
       N       E                     dE             d eps       ncg     rms          rms(c)
DAV:   1    -0.337760636280E+03   -0.81729E+00   -0.57638E+00  5738   0.732E+00    0.103E+00
DAV:   2    -0.337736232820E+03    0.24403E-01   -0.13407E-01  7222   0.110E+00    0.570E-01
DAV:   3    -0.337733008560E+03    0.32243E-02   -0.89948E-02  7198   0.759E-01    0.274E-01
DAV:   4    -0.337730790557E+03    0.22180E-02   -0.15732E-02  6986   0.333E-01    0.115E-01
DAV:   5    -0.337730817692E+03   -0.27135E-04   -0.21233E-03  7088   0.109E-01    0.183E-02
DAV:   6    -0.337730819540E+03   -0.18477E-05   -0.73699E-05  7038   0.238E-02    0.157E-02
DAV:   7    -0.337730813510E+03    0.60295E-05   -0.10837E-05  6736   0.943E-03    0.576E-03
DAV:   8    -0.337730812388E+03    0.11224E-05   -0.77353E-06  6636   0.665E-03    0.221E-03
DAV:   9    -0.337730812251E+03    0.13627E-06   -0.74899E-07  3658   0.260E-03
  31 F= -.34068913E+03 E0= -.34068913E+03  d E =-.791800E+00
 trial-energy change:   -0.791800  1 .order   -0.793915   -0.939314   -0.648516
 step:   0.6827(harm=  0.6036)  dis= 0.04559  next Energy=  -341.509963 (dE=-0.161E+01)
 bond charge predicted
       N       E                     dE             d eps       ncg     rms          rms(c)
DAV:   1    -0.338693176798E+03   -0.96236E+00   -0.39641E+01  5732   0.193E+01    0.262E+00
DAV:   2    -0.338548632175E+03    0.14454E+00   -0.99184E-01  7134   0.293E+00    0.147E+00
DAV:   3    -0.338527273036E+03    0.21359E-01   -0.60088E-01  7100   0.188E+00    0.717E-01
DAV:   4    -0.338511669335E+03    0.15604E-01   -0.10412E-01  6970   0.828E-01    0.301E-01
DAV:   5    -0.338512200021E+03   -0.53069E-03   -0.13990E-02  6904   0.277E-01    0.553E-02
DAV:   6    -0.338512191076E+03    0.89448E-05   -0.44690E-04  7036   0.595E-02    0.414E-02
DAV:   7    -0.338512163075E+03    0.28001E-04   -0.15407E-04  6870   0.317E-02    0.920E-03
DAV:   8    -0.338512162781E+03    0.29382E-06   -0.19758E-05  6526   0.132E-02    0.487E-03
DAV:   9    -0.338512162686E+03    0.95053E-07   -0.45934E-06  7080   0.535E-03
  32 F= -.34148966E+03 E0= -.34148966E+03  d E =-.159233E+01
 curvature:  -0.29 expect dE=-0.444E+00 dE for cont linesearch -0.639E-03
 trial: gam= 0.32563 g(F)=  0.152E+01 g(S)=  0.000E+00 ort =-0.105E+00 (trialstep = 0.286E+00)
 search vector abs. value=  0.199E+01
 bond charge predicted
       N       E                     dE             d eps       ncg     rms          rms(c)
DAV:   1    -0.338859375681E+03   -0.34721E+00   -0.73389E+00  5974   0.797E+00    0.732E-01
DAV:   2    -0.338864628262E+03   -0.52526E-02   -0.15057E-01  7156   0.106E+00    0.520E-01
DAV:   3    -0.338860678514E+03    0.39497E-02   -0.21205E-02  7260   0.435E-01    0.114E-01
DAV:   4    -0.338860501342E+03    0.17717E-03   -0.45154E-03  6614   0.178E-01    0.600E-02
DAV:   5    -0.338860520312E+03   -0.18970E-04   -0.52933E-04  7258   0.532E-02    0.195E-02
DAV:   6    -0.338860514470E+03    0.58423E-05   -0.36646E-05  6730   0.148E-02    0.104E-02
DAV:   7    -0.338860515194E+03   -0.72386E-06   -0.11189E-05  6246   0.944E-03    0.375E-03
DAV:   8    -0.338860514980E+03    0.21405E-06   -0.16119E-06  5154   0.365E-03
  33 F= -.34183201E+03 E0= -.34183201E+03  d E =-.342353E+00
 trial-energy change:   -0.342353  1 .order   -0.342264   -0.426068   -0.258459
 step:   0.7271(harm=  0.7271)  dis= 0.04528  next Energy=  -342.031200 (dE=-0.542E+00)
 bond charge predicted
       N       E                     dE             d eps       ncg     rms          rms(c)
DAV:   1    -0.339063647588E+03   -0.20313E+00   -0.17526E+01  5984   0.123E+01    0.116E+00
DAV:   2    -0.339073620744E+03   -0.99732E-02   -0.35933E-01  7124   0.164E+00    0.811E-01
DAV:   3    -0.339063722151E+03    0.98986E-02   -0.50661E-02  7268   0.666E-01    0.180E-01
DAV:   4    -0.339063350731E+03    0.37142E-03   -0.10789E-02  6606   0.272E-01    0.961E-02
DAV:   5    -0.339063417361E+03   -0.66630E-04   -0.11732E-03  7226   0.811E-02    0.303E-02
DAV:   6    -0.339063403289E+03    0.14072E-04   -0.84930E-05  6674   0.232E-02    0.166E-02
DAV:   7    -0.339063406540E+03   -0.32519E-05   -0.32269E-05  6292   0.157E-02    0.687E-03
DAV:   8    -0.339063405607E+03    0.93386E-06   -0.48674E-06  6802   0.613E-03
  34 F= -.34203061E+03 E0= -.34203061E+03  d E =-.540954E+00
 curvature:  -0.49 expect dE=-0.103E+01 dE for cont linesearch -0.533E-05
 trial: gam= 1.43018 g(F)=  0.213E+01 g(S)=  0.000E+00 ort =-0.467E-02 (trialstep = 0.120E+00)
 search vector abs. value=  0.619E+01
 bond charge predicted
       N       E                     dE             d eps       ncg     rms          rms(c)
DAV:   1    -0.339312882769E+03   -0.24948E+00   -0.26917E+00  5752   0.481E+00    0.459E-01
DAV:   2    -0.339312752123E+03    0.13065E-03   -0.33761E-02  7084   0.501E-01    0.277E-01
DAV:   3    -0.339311887043E+03    0.86508E-03   -0.57319E-03  7300   0.199E-01    0.547E-02
DAV:   4    -0.339311885882E+03    0.11612E-05   -0.85113E-04  6596   0.753E-02    0.323E-02
DAV:   5    -0.339311889521E+03   -0.36391E-05   -0.10063E-04  7074   0.253E-02    0.848E-03
DAV:   6    -0.339311889788E+03   -0.26614E-06   -0.12758E-05  6578   0.939E-03    0.453E-03
DAV:   7    -0.339311890067E+03   -0.27964E-06   -0.18632E-06  5086   0.374E-03
  35 F= -.34227831E+03 E0= -.34227831E+03  d E =-.247700E+00
 ZBRENT: can't locate minimum, use default step
 trial-energy change:   -0.247700  1 .order   -0.248036   -0.255596   -0.240477
 step:   0.4814(harm=  2.0345)  dis= 0.05345  next Energy=  -344.191114 (dE=-0.216E+01)
 bond charge predicted
       N       E                     dE             d eps       ncg     rms          rms(c)
DAV:   1    -0.340008409573E+03   -0.69652E+00   -0.24063E+01  5724   0.144E+01    0.144E+00
DAV:   2    -0.340001294268E+03    0.71153E-02   -0.29510E-01  7034   0.150E+00    0.865E-01
DAV:   3    -0.339991344558E+03    0.99497E-02   -0.60914E-02  7282   0.680E-01    0.175E-01
DAV:   4    -0.339991435129E+03   -0.90572E-04   -0.10851E-02  6586   0.268E-01    0.112E-01
DAV:   5    -0.339991430091E+03    0.50382E-05   -0.99792E-04  6988   0.830E-02    0.275E-02
DAV:   6    -0.339991448980E+03   -0.18889E-04   -0.13373E-04  6576   0.305E-02    0.130E-02
DAV:   7    -0.339991453584E+03   -0.46036E-05   -0.16411E-05  6812   0.113E-02    0.412E-03
DAV:   8    -0.339991453789E+03   -0.20467E-06   -0.27108E-06  6182   0.454E-03
  36 F= -.34295567E+03 E0= -.34295567E+03  d E =-.925060E+00
 curvature:  -1.01 expect dE=-0.203E+01 dE for cont linesearch -0.526E+00
 ZBRENT: increasing intervall
 opt :   1.2035  next Energy=  -344.101354 (dE=-0.207E+01)
 bond charge predicted
       N       E                     dE             d eps       ncg     rms          rms(c)
DAV:   1    -0.341434667522E+03   -0.14432E+01   -0.95062E+01  5724   0.292E+01    0.322E+00
DAV:   2    -0.341348768533E+03    0.85899E-01   -0.12664E+00  7006   0.313E+00    0.190E+00
DAV:   3    -0.341288490257E+03    0.60278E-01   -0.29875E-01  7234   0.148E+00    0.412E-01
DAV:   4    -0.341288972400E+03   -0.48214E-03   -0.53128E-02  6646   0.574E-01    0.251E-01
DAV:   5    -0.341289254442E+03   -0.28204E-03   -0.29307E-03  6668   0.142E-01    0.617E-02
DAV:   6    -0.341289372837E+03   -0.11839E-03   -0.31109E-04  7056   0.435E-02    0.195E-02
DAV:   7    -0.341289392981E+03   -0.20144E-04   -0.30512E-05  6692   0.171E-02    0.675E-03
DAV:   8    -0.341289394779E+03   -0.17980E-05   -0.65279E-06  6700   0.710E-03    0.290E-03
DAV:   9    -0.341289395373E+03   -0.59411E-06   -0.12454E-06  4758   0.323E-03
  37 F= -.34424975E+03 E0= -.34424975E+03  d E =-.221914E+01
 curvature:  -2.21 expect dE=-0.261E+02 dE for cont linesearch -0.123E+01
 ZBRENT: increasing intervall
 opt :   2.6476  next Energy=  -347.024091 (dE=-0.499E+01)
 bond charge predicted
       N       E                     dE             d eps       ncg     rms          rms(c)
DAV:   1    -0.344513536722E+03   -0.32241E+01   -0.37367E+02  5724   0.566E+01    0.625E+00
DAV:   2    -0.344377338813E+03    0.13620E+00   -0.69463E+00  6998   0.694E+00    0.418E+00
DAV:   3    -0.344007996704E+03    0.36934E+00   -0.14148E+00  6878   0.329E+00    0.736E-01
DAV:   4    -0.344027016899E+03   -0.19020E-01   -0.27174E-01  6716   0.126E+00    0.503E-01
DAV:   5    -0.344027309287E+03   -0.29239E-03   -0.91448E-03  7080   0.275E-01    0.190E-01
DAV:   6    -0.344027930858E+03   -0.62157E-03   -0.17673E-03  6740   0.110E-01    0.391E-02
DAV:   7    -0.344028007944E+03   -0.77086E-04   -0.15332E-04  7214   0.376E-02    0.179E-02
DAV:   8    -0.344028023250E+03   -0.15305E-04   -0.27035E-05  6336   0.145E-02    0.742E-03
DAV:   9    -0.344028026846E+03   -0.35963E-05   -0.45898E-06  6316   0.637E-03    0.162E-03
DAV:  10    -0.344028027249E+03   -0.40307E-06   -0.33229E-07  5088   0.182E-03
  38 F= -.34698536E+03 E0= -.34698536E+03  d E =-.495475E+01
 curvature:  -4.98 expect dE=-0.388E+03 dE for cont linesearch -0.202E+01
 ZBRENT: increasing intervall
 opt :   5.5360  next Energy=  -350.779925 (dE=-0.875E+01)
 bond charge predicted
       N       E                     dE             d eps       ncg     rms          rms(c)
DAV:   1    -0.334293188290E+03    0.97348E+01   -0.13939E+03  5736   0.107E+02    0.874E+00
DAV:   2    -0.338625972270E+03   -0.43328E+01   -0.52795E+01  6960   0.184E+01    0.668E+00
DAV:   3    -0.338332929485E+03    0.29304E+00   -0.10459E+00  6864   0.286E+00    0.388E+00
DAV:   4    -0.338238765589E+03    0.94164E-01   -0.53110E-01  6698   0.203E+00    0.675E-01
DAV:   5    -0.338245433548E+03   -0.66680E-02   -0.75073E-02  6896   0.720E-01    0.339E-01
DAV:   6    -0.338243459872E+03    0.19737E-02   -0.11481E-02  6626   0.288E-01    0.124E-01
DAV:   7    -0.338243751678E+03   -0.29181E-03   -0.13588E-03  6472   0.108E-01    0.358E-02
DAV:   8    -0.338243842459E+03   -0.90782E-04   -0.22283E-04  6428   0.415E-02    0.139E-02
DAV:   9    -0.338243853825E+03   -0.11366E-04   -0.23484E-05  6840   0.133E-02    0.936E-03
DAV:  10    -0.338243855487E+03   -0.16620E-05   -0.62100E-06  6284   0.776E-03    0.174E-03
DAV:  11    -0.338243855647E+03   -0.15969E-06   -0.11097E-06  4784   0.303E-03
  39 F= -.34150470E+03 E0= -.34150470E+03  d E =0.525918E+00
 curvature:  -9.34 expect dE=-0.184E+04 dE for cont linesearch -0.656E+02
 ZBRENT: bracketing found
 ZBRENT: interpolating
 opt :   3.2075  next Energy=  -347.429137 (dE=-0.540E+01)
 bond charge predicted
       N       E                     dE             d eps       ncg     rms          rms(c)
DAV:   1    -0.342137349661E+03   -0.38935E+01   -0.90481E+02  5724   0.866E+01    0.723E+00
DAV:   2    -0.345097980910E+03   -0.29606E+01   -0.34414E+01  7064   0.143E+01    0.566E+00
DAV:   3    -0.344749311632E+03    0.34867E+00   -0.67994E-01  7030   0.244E+00    0.337E+00
DAV:   4    -0.344700934074E+03    0.48378E-01   -0.84377E-01  7096   0.230E+00    0.922E-01
DAV:   5    -0.344679740009E+03    0.21194E-01   -0.13323E-01  6822   0.990E-01    0.228E-01
DAV:   6    -0.344681749462E+03   -0.20095E-02   -0.23319E-02  7016   0.344E-01    0.105E-01
DAV:   7    -0.344681645553E+03    0.10391E-03   -0.15355E-03  6960   0.107E-01    0.515E-02
DAV:   8    -0.344681717401E+03   -0.71848E-04   -0.38175E-04  6318   0.556E-02    0.161E-02
DAV:   9    -0.344681726641E+03   -0.92398E-05   -0.44497E-05  7272   0.172E-02    0.823E-03
DAV:  10    -0.344681729781E+03   -0.31404E-05   -0.15456E-05  6784   0.110E-02    0.474E-03
DAV:  11    -0.344681729215E+03    0.56621E-06   -0.32883E-06  5960   0.502E-03
  40 F= -.34764370E+03 E0= -.34764370E+03  d E =-.561308E+01
 curvature:  -0.06 expect dE=-0.660E+01 dE for cont linesearch -0.463E-02
 ZBRENT: interpolating
 opt :   3.5829  next Energy=  -347.781827 (dE=-0.575E+01)
 bond charge predicted
       N       E                     dE             d eps       ncg     rms          rms(c)
DAV:   1    -0.344751085788E+03   -0.69356E-01   -0.26346E+01  5772   0.150E+01    0.129E+00
DAV:   2    -0.344771600089E+03   -0.20514E-01   -0.41402E-01  7024   0.168E+00    0.912E-01
DAV:   3    -0.344763040972E+03    0.85591E-02   -0.38474E-02  6862   0.574E-01    0.164E-01
DAV:   4    -0.344762898512E+03    0.14246E-03   -0.66018E-03  6584   0.218E-01    0.904E-02
DAV:   5    -0.344762928521E+03   -0.30010E-04   -0.10307E-03  7224   0.836E-02    0.294E-02
DAV:   6    -0.344762914933E+03    0.13589E-04   -0.11458E-04  6742   0.308E-02    0.163E-02
DAV:   7    -0.344762920758E+03   -0.58257E-05   -0.44229E-05  6288   0.174E-02    0.527E-03
DAV:   8    -0.344762920315E+03    0.44375E-06   -0.65002E-06  6472   0.731E-03
  41 F= -.34773557E+03 E0= -.34773557E+03  d E =-.570495E+01
 curvature:  -1.88 expect dE=-0.224E+03 dE for cont linesearch -0.140E-01
 trial: gam=57.64601 g(F)=  0.119E+03 g(S)=  0.000E+00 ort =-0.214E+00 (trialstep = 0.243E-03)
 search vector abs. value=  0.207E+05
 bond charge predicted
       N       E                     dE             d eps       ncg     rms          rms(c)
DAV:   1    -0.344788042451E+03   -0.25122E-01   -0.37860E-02  5802   0.569E-01    0.462E-02
DAV:   2    -0.344788072141E+03   -0.29690E-04   -0.53323E-04  7006   0.610E-02    0.319E-02
DAV:   3    -0.344788066480E+03    0.56611E-05   -0.55104E-05  6974   0.216E-02    0.780E-03
DAV:   4    -0.344788065316E+03    0.11637E-05   -0.10038E-05  6558   0.883E-03    0.422E-03
DAV:   5    -0.344788065478E+03   -0.16174E-06   -0.27987E-06  6120   0.433E-03
  42 F= -.34776128E+03 E0= -.34776128E+03  d E =-.257153E-01
 ZBRENT: can't locate minimum, use default step
 trial-energy change:   -0.025715  1 .order   -0.025710   -0.025934   -0.025485
 step:   0.0010(harm=  0.0141)  dis= 0.00632  next Energy=  -348.484366 (dE=-0.749E+00)
 bond charge predicted
       N       E                     dE             d eps       ncg     rms          rms(c)
DAV:   1    -0.344860443535E+03   -0.72378E-01   -0.34049E-01  5758   0.171E+00    0.136E-01
DAV:   2    -0.344860714737E+03   -0.27120E-03   -0.47541E-03  6992   0.182E-01    0.939E-02
DAV:   3    -0.344860653586E+03    0.61152E-04   -0.44116E-04  6960   0.616E-02    0.219E-02
DAV:   4    -0.344860645667E+03    0.79185E-05   -0.79396E-05  6600   0.249E-02    0.120E-02
DAV:   5    -0.344860645862E+03   -0.19508E-06   -0.22659E-05  7112   0.121E-02    0.323E-03
DAV:   6    -0.344860645794E+03    0.68860E-07   -0.27921E-06  5896   0.468E-03
  43 F= -.34783570E+03 E0= -.34783570E+03  d E =-.100130E+00
 curvature:  -0.14 expect dE=-0.167E+02 dE for cont linesearch -0.666E-01
 ZBRENT: increasing intervall
 opt :   0.0024  next Energy=  -347.972070 (dE=-0.237E+00)
 bond charge predicted
       N       E                     dE             d eps       ncg     rms          rms(c)
DAV:   1    -0.344991627761E+03   -0.13098E+00   -0.13636E+00  5752   0.341E+00    0.269E-01
DAV:   2    -0.344992743028E+03   -0.11153E-02   -0.19113E-02  6968   0.366E-01    0.186E-01
DAV:   3    -0.344992498688E+03    0.24434E-03   -0.16985E-03  7000   0.122E-01    0.434E-02
DAV:   4    -0.344992468190E+03    0.30498E-04   -0.30679E-04  6584   0.491E-02    0.237E-02
DAV:   5    -0.344992468660E+03   -0.46991E-06   -0.87273E-05  7120   0.238E-02    0.634E-03
DAV:   6    -0.344992468393E+03    0.26755E-06   -0.10750E-05  6608   0.917E-03    0.386E-03
DAV:   7    -0.344992468721E+03   -0.32841E-06   -0.20512E-06  5312   0.387E-03
  44 F= -.34797181E+03 E0= -.34797181E+03  d E =-.236244E+00
 curvature:  -0.29 expect dE=-0.341E+02 dE for cont linesearch -0.106E+00
 ZBRENT: increasing intervall
 opt :   0.0054  next Energy=  -348.192056 (dE=-0.456E+00)
 bond charge predicted
       N       E                     dE             d eps       ncg     rms          rms(c)
DAV:   1    -0.345195128970E+03   -0.20266E+00   -0.54639E+00  5732   0.683E+00    0.528E-01
DAV:   2    -0.345199854046E+03   -0.47251E-02   -0.77292E-02  6936   0.741E-01    0.365E-01
DAV:   3    -0.345198967630E+03    0.88642E-03   -0.62659E-03  7064   0.237E-01    0.854E-02
DAV:   4    -0.345198864189E+03    0.10344E-03   -0.11297E-03  6600   0.952E-02    0.467E-02
DAV:   5    -0.345198871016E+03   -0.68267E-05   -0.31906E-04  7128   0.456E-02    0.123E-02
DAV:   6    -0.345198869756E+03    0.12599E-05   -0.38519E-05  6656   0.174E-02    0.732E-03
DAV:   7    -0.345198870667E+03   -0.91127E-06   -0.79249E-06  6480   0.748E-03
  45 F= -.34818994E+03 E0= -.34818994E+03  d E =-.454375E+00
 curvature:  -0.60 expect dE=-0.707E+02 dE for cont linesearch -0.110E+00
 ZBRENT: increasing intervall
 opt :   0.0112  next Energy=  -348.401972 (dE=-0.666E+00)
 bond charge predicted
       N       E                     dE             d eps       ncg     rms          rms(c)
DAV:   1    -0.345338340848E+03   -0.13947E+00   -0.21936E+01  5728   0.137E+01    0.104E+00
DAV:   2    -0.345358987067E+03   -0.20646E-01   -0.32196E-01  6856   0.153E+00    0.713E-01
DAV:   3    -0.345356049086E+03    0.29380E-02   -0.22961E-02  7080   0.455E-01    0.180E-01
DAV:   4    -0.345355730336E+03    0.31875E-03   -0.39709E-03  6728   0.181E-01    0.968E-02
DAV:   5    -0.345355799240E+03   -0.68904E-04   -0.10910E-03  7088   0.836E-02    0.233E-02
DAV:   6    -0.345355793356E+03    0.58834E-05   -0.12100E-04  6696   0.311E-02    0.133E-02
DAV:   7    -0.345355796804E+03   -0.34472E-05   -0.26746E-05  6414   0.138E-02    0.326E-03
DAV:   8    -0.345355797305E+03   -0.50121E-06   -0.25290E-06  5200   0.450E-03
  46 F= -.34838865E+03 E0= -.34838865E+03  d E =-.653087E+00
 curvature:  -1.15 expect dE=-0.132E+03 dE for cont linesearch -0.144E-02
 trial: gam=-0.00293 g(F)=  0.115E+03 g(S)=  0.000E+00 ort = 0.509E+01 (trialstep = 0.243E-02)
 search vector abs. value=  0.115E+03
 bond charge predicted
       N       E                     dE             d eps       ncg     rms          rms(c)
DAV:   1    -0.345636006284E+03   -0.28021E+00   -0.58299E-02  5772   0.666E-01    0.892E-02
DAV:   2    -0.345635961231E+03    0.45053E-04   -0.18246E-03  6864   0.105E-01    0.645E-02
DAV:   3    -0.345635872105E+03    0.89126E-04   -0.33500E-04  6896   0.515E-02    0.129E-02
DAV:   4    -0.345635873166E+03   -0.10607E-05   -0.73832E-05  6686   0.222E-02    0.765E-03
DAV:   5    -0.345635871189E+03    0.19764E-05   -0.45537E-06  6232   0.651E-03    0.191E-03
DAV:   6    -0.345635871153E+03    0.36040E-07   -0.94169E-07  3572   0.274E-03
  47 F= -.34866644E+03 E0= -.34866644E+03  d E =-.277788E+00
 ZBRENT: can't locate minimum, use default step
 trial-energy change:   -0.277788  1 .order   -0.277807   -0.280587   -0.275027
 step:   0.0097(harm=  0.1229)  dis= 0.00488  next Energy=  -355.468586 (dE=-0.708E+01)
 bond charge predicted
       N       E                     dE             d eps       ncg     rms          rms(c)
DAV:   1    -0.346443994075E+03   -0.80812E+00   -0.52310E-01  5748   0.199E+00    0.264E-01
DAV:   2    -0.346443678497E+03    0.31558E-03   -0.16340E-02  6834   0.312E-01    0.192E-01
DAV:   3    -0.346442937794E+03    0.74070E-03   -0.29172E-03  6890   0.152E-01    0.380E-02
DAV:   4    -0.346442947435E+03   -0.96407E-05   -0.64354E-04  6714   0.651E-02    0.224E-02
DAV:   5    -0.346442940282E+03    0.71526E-05   -0.39222E-05  6456   0.190E-02    0.566E-03
DAV:   6    -0.346442940441E+03   -0.15878E-06   -0.85649E-06  6494   0.801E-03
  48 F= -.34946694E+03 E0= -.34946694E+03  d E =-.107828E+01
 curvature:  -0.01 expect dE=-0.710E+00 dE for cont linesearch -0.708E+00
 ZBRENT: increasing intervall
 opt :   0.0243  next Energy=  -350.921802 (dE=-0.253E+01)
 bond charge predicted
       N       E                     dE             d eps       ncg     rms          rms(c)
