 running on    4 total cores
 distrk:  each k-point on    4 cores,    1 groups
 distr:  one band on    2 cores,    2 groups
 using from now: INCAR     
 vasp.5.3.5 31Mar14 (build Nov 02 2014 15:17:37) complex                        
  
 POSCAR found type information on POSCAR  H  C 
 POSCAR found :  2 types and      80 ions
 scaLAPACK will be used

 ----------------------------------------------------------------------------- 
|                                                                             |
|  ADVICE TO THIS USER RUNNING 'VASP/VAMP'   (HEAR YOUR MASTER'S VOICE ...):  |
|                                                                             |
|      You have a (more or less) 'large supercell' and for larger cells       |
|      it might be more efficient to use real space projection operators      |
|      So try LREAL= Auto  in the INCAR   file.                               |
|      Mind: If you want to do a very accurate calculations keep the          |
|      reciprocal projection scheme          (i.e. LREAL=.FALSE.)             |
|                                                                             |
 ----------------------------------------------------------------------------- 

 LDA part: xc-table for Pade appr. of Perdew
 POSCAR, INCAR and KPOINTS ok, starting setup
 WARNING: small aliasing (wrap around) errors must be expected
 FFT: planning ...
 WAVECAR not read
 WARNING: random wavefunctions but no delay for mixing, default for NELMDL
 entering main loop
       N       E                     dE             d eps       ncg     rms          rms(c)
DAV:   1     0.441294680280E+03    0.44129E+03   -0.55610E+04  5724   0.110E+03
DAV:   2    -0.354209557881E+03   -0.79550E+03   -0.77314E+03  6812   0.218E+02
DAV:   3    -0.432642259746E+03   -0.78433E+02   -0.77974E+02  7400   0.674E+01
DAV:   4    -0.434713905972E+03   -0.20716E+01   -0.20691E+01  7176   0.131E+01
DAV:   5    -0.434764176645E+03   -0.50271E-01   -0.50259E-01  7312   0.188E+00    0.337E+01
DAV:   6    -0.390395112277E+03    0.44369E+02   -0.90514E+01  6190   0.206E+01    0.143E+01
DAV:   7    -0.385616638034E+03    0.47785E+01   -0.12142E+01  6752   0.798E+00    0.811E+00
DAV:   8    -0.384598507492E+03    0.10181E+01   -0.31994E+00  6756   0.444E+00    0.263E+00
DAV:   9    -0.384472492533E+03    0.12601E+00   -0.18642E-01  7016   0.104E+00    0.105E+00
DAV:  10    -0.384485591981E+03   -0.13099E-01   -0.29342E-01  6406   0.117E+00    0.581E-01
DAV:  11    -0.384478822696E+03    0.67693E-02   -0.27909E-02  6388   0.353E-01    0.182E-01
DAV:  12    -0.384478852654E+03   -0.29958E-04   -0.30794E-03  6808   0.153E-01    0.760E-02
DAV:  13    -0.384478759824E+03    0.92831E-04   -0.61007E-04  6456   0.534E-02    0.361E-02
DAV:  14    -0.384478780093E+03   -0.20269E-04   -0.22111E-04  6422   0.383E-02    0.881E-03
DAV:  15    -0.384478778646E+03    0.14463E-05   -0.86099E-06  7288   0.777E-03    0.169E-03
DAV:  16    -0.384478778852E+03   -0.20514E-06   -0.63112E-07  4206   0.245E-03
   1 F= -.38722883E+03 E0= -.38722883E+03  d E =-.387229E+03
 curvature:   0.00 expect dE= 0.000E+00 dE for cont linesearch  0.000E+00
 trial: gam= 0.00000 g(F)=  0.820E-03 g(S)=  0.000E+00 ort = 0.000E+00 (trialstep = 0.100E+01)
 search vector abs. value=  0.820E-03
 bond charge predicted
       N       E                     dE             d eps       ncg     rms          rms(c)
DAV:   1    -0.384479206801E+03   -0.42815E-03   -0.64249E-02  5900   0.715E-01    0.520E-02
DAV:   2    -0.384479242760E+03   -0.35959E-04   -0.92639E-04  6740   0.852E-02    0.403E-02
DAV:   3    -0.384479213353E+03    0.29407E-04   -0.15799E-04  6686   0.394E-02    0.605E-03
DAV:   4    -0.384479213744E+03   -0.39071E-06   -0.31236E-05  6408   0.155E-02    0.360E-03
DAV:   5    -0.384479213663E+03    0.80102E-07   -0.17335E-06  4716   0.376E-03
   2 F= -.38722925E+03 E0= -.38722925E+03  d E =-.424731E-03
 trial-energy change:   -0.000425  1 .order   -0.000423   -0.000820   -0.000025
 step:   1.0317(harm=  1.0317)  dis= 0.00151  next Energy=  -387.229248 (dE=-0.423E-03)
 bond charge predicted
       N       E                     dE             d eps       ncg     rms          rms(c)
DAV:   1    -0.384479214535E+03   -0.79178E-06   -0.71891E-05  6060   0.237E-02    0.159E-03
DAV:   2    -0.384479214597E+03   -0.61821E-07   -0.13544E-06  4558   0.320E-03
   3 F= -.38722925E+03 E0= -.38722925E+03  d E =-.425354E-03
 curvature:  -0.52 expect dE=-0.116E-02 dE for cont linesearch -0.960E-07
 trial: gam= 2.71604 g(F)=  0.224E-02 g(S)=  0.000E+00 ort = 0.124E-04 (trialstep = 0.988E-01)
 search vector abs. value=  0.836E-02
 reached required accuracy - stopping structural energy minimisation
