 vasp.5.3.5 31Mar14 (build Nov 02 2014 15:17:37) complex                        
  
 executed on        ion-Intel-MKL date 2017.05.08  15:11:39
 running on    8 total cores
 distrk:  each k-point on    8 cores,    1 groups
 distr:  one band on NCORES_PER_BAND=   4 cores,    2 groups


--------------------------------------------------------------------------------------------------------


 INCAR:
 POTCAR:   PAW_PBE C 08Apr2002                    
 POTCAR:   PAW_PBE H 15Jun2001                    
 POTCAR:   PAW_PBE C 08Apr2002                    
   VRHFIN =C: s2p2                                                              
   LEXCH  = PE                                                                  
   EATOM  =   147.1560 eV,   10.8157 Ry                                         
                                                                                
   TITEL  = PAW_PBE C 08Apr2002                                                 
   LULTRA =        F    use ultrasoft PP ?                                      
   IUNSCR =        0    unscreen: 0-lin 1-nonlin 2-no                           
   RPACOR =     .000    partial core radius                                     
   POMASS =   12.011; ZVAL   =    4.000    mass and valenz                      
   RCORE  =    1.500    outmost cutoff radius                                   
   RWIGS  =    1.630; RWIGS  =     .863    wigner-seitz radius (au A)           
   ENMAX  =  400.000; ENMIN  =  300.000 eV                                      
   ICORE  =        2    local potential                                         
   LCOR   =        T    correct aug charges                                     
   LPAW   =        T    paw PP                                                  
   EAUG   =  644.873                                                            
   DEXC   =     .000                                                            
   RMAX   =    2.266    core radius for proj-oper                               
   RAUG   =    1.300    factor for augmentation sphere                          
   RDEP   =    1.501    radius for radial grids                                 
   RDEPT  =    1.300    core radius for aug-charge                              
   QCUT   =   -5.516; QGAM   =   11.032    optimization parameters              
                                                                                
   Description                                                                  
     l     E      TYP  RCUT    TYP  RCUT                                        
     0   .000     23  1.200                                                     
     0   .000     23  1.200                                                     
     1   .000     23  1.500                                                     
     1  2.500     23  1.500                                                     
     2   .000      7  1.500                                                     
  local pseudopotential read in
  atomic valenz-charges read in
  non local Contribution for L=           0  read in
    real space projection operators read in
  non local Contribution for L=           0  read in
    real space projection operators read in
  non local Contribution for L=           1  read in
    real space projection operators read in
  non local Contribution for L=           1  read in
    real space projection operators read in
    PAW grid and wavefunctions read in
 
   number of l-projection  operators is LMAX  =           4
   number of lm-projection operators is LMMAX =           8
 
 POTCAR:   PAW_PBE H 15Jun2001                    
   VRHFIN =H: ultrasoft test                                                    
   LEXCH  = PE                                                                  
   EATOM  =    12.4884 eV,     .9179 Ry                                         
                                                                                
   TITEL  = PAW_PBE H 15Jun2001                                                 
   LULTRA =        F    use ultrasoft PP ?                                      
   IUNSCR =        0    unscreen: 0-lin 1-nonlin 2-no                           
   RPACOR =     .000    partial core radius                                     
   POMASS =    1.000; ZVAL   =    1.000    mass and valenz                      
   RCORE  =    1.100    outmost cutoff radius                                   
   RWIGS  =     .700; RWIGS  =     .370    wigner-seitz radius (au A)           
   ENMAX  =  250.000; ENMIN  =  200.000 eV                                      
   RCLOC  =     .701    cutoff for local pot                                    
   LCOR   =        T    correct aug charges                                     
   LPAW   =        T    paw PP                                                  
   EAUG   =  400.000                                                            
   RMAX   =    2.174    core radius for proj-oper                               
   RAUG   =    1.200    factor for augmentation sphere                          
   RDEP   =    1.112    radius for radial grids                                 
   QCUT   =   -5.749; QGAM   =   11.498    optimization parameters              
                                                                                
   Description                                                                  
     l     E      TYP  RCUT    TYP  RCUT                                        
     0   .000     23  1.100                                                     
     0   .500     23  1.100                                                     
     1  -.300     23  1.100                                                     
  local pseudopotential read in
  atomic valenz-charges read in
  non local Contribution for L=           0  read in
    real space projection operators read in
  non local Contribution for L=           0  read in
    real space projection operators read in
  non local Contribution for L=           1  read in
    real space projection operators read in
    PAW grid and wavefunctions read in
 
   number of l-projection  operators is LMAX  =           3
   number of lm-projection operators is LMMAX =           5
 

 ----------------------------------------------------------------------------- 
|                                                                             |
|  ADVICE TO THIS USER RUNNING 'VASP/VAMP'   (HEAR YOUR MASTER'S VOICE ...):  |
|                                                                             |
|      You have a (more or less) 'large supercell' and for larger cells       |
|      it might be more efficient to use real space projection operators      |
|      So try LREAL= Auto  in the INCAR   file.                               |
|      Mind: If you want to do a very accurate calculations keep the          |
|      reciprocal projection scheme          (i.e. LREAL=.FALSE.)             |
|                                                                             |
 ----------------------------------------------------------------------------- 

 PAW_PBE C 08Apr2002                    :
 energy of atom  1       EATOM= -147.1560
 kinetic energy error for atom=    0.0057 (will be added to EATOM!!)
 PAW_PBE H 15Jun2001                    :
 energy of atom  2       EATOM=  -12.4884
 kinetic energy error for atom=    0.0004 (will be added to EATOM!!)
 
 
 POSCAR: methane-1                               
  positions in direct lattice
  No initial velocities read in
 exchange correlation table for  LEXCH =        8
   RHO(1)=    0.500       N(1)  =     2000
   RHO(2)=  100.500       N(2)  =     4000
 


--------------------------------------------------------------------------------------------------------


 ion  position               nearest neighbor table
   1  0.600  0.530  0.150-  17 1.08   4 1.76   3 1.76   2 1.76
   2  0.549  0.634  0.896-  17 1.08   4 1.76   3 1.76   1 1.76
   3  0.570  0.358  0.932-  17 1.08   4 1.76   2 1.76   1 1.76
   4  0.349  0.496  0.033-  17 1.08   2 1.76   3 1.76   1 1.76
   5  0.969  0.103  0.131-  18 1.08   7 1.76   8 1.76   6 1.76
   6  0.955  0.059  0.855-  18 1.08   8 1.76   7 1.76   5 1.76
   7  0.165  0.950  0.003-  18 1.08   8 1.76   6 1.76   5 1.76
   8  0.906  0.849  0.034-  18 1.08   7 1.76   6 1.76   5 1.76
   9  0.076  0.532  0.660-  19 1.08  11 1.76  12 1.76  10 1.76
  10  0.025  0.637  0.406-  19 1.08  12 1.76  11 1.76   9 1.76
  11  0.045  0.360  0.442-  19 1.08  12 1.76  10 1.76   9 1.76
  12  0.824  0.498  0.543-  19 1.08  11 1.76  10 1.76   9 1.76
  13  0.572  0.026  0.627-  20 1.08  16 1.76  15 1.76  14 1.76
  14  0.521  0.130  0.373-  20 1.08  16 1.76  15 1.76  13 1.76
  15  0.541  0.854  0.409-  20 1.08  16 1.76  14 1.76  13 1.76
  16  0.320  0.992  0.510-  20 1.08  14 1.76  15 1.76  13 1.76
  17  0.517  0.504  0.003-   2 1.08   1 1.08   3 1.08   4 1.08
  18  0.999  0.990  0.006-   8 1.08   6 1.08   7 1.08   5 1.08
  19  0.992  0.507  0.513-  12 1.08   9 1.08  10 1.08  11 1.08
  20  0.488  0.000  0.480-  16 1.08  14 1.08  13 1.08  15 1.08
 
  LATTYP: Found a simple cubic cell.
 ALAT       =     6.3073811690
  
  Lattice vectors:
  
 A1 = (   6.3073811690,   0.0000000000,   0.0000000000)
 A2 = (   0.0000000000,   6.3073811690,   0.0000000000)
 A3 = (   0.0000000000,   0.0000000000,   6.3073811690)


Analysis of symmetry for initial positions (statically):
=====================================================================
 Subroutine PRICEL returns:
 Original cell was already a primitive cell.
 

 Routine SETGRP: Setting up the symmetry group for a 
 simple cubic supercell.


 Subroutine GETGRP returns: Found  1 space group operations
 (whereof  1 operations were pure point group operations)
 out of a pool of 48 trial point group operations.


The static configuration has the point symmetry C_1 .


Analysis of symmetry for dynamics (positions and initial velocities):
=====================================================================
 Subroutine PRICEL returns:
 Original cell was already a primitive cell.
 

 Routine SETGRP: Setting up the symmetry group for a 
 simple cubic supercell.


 Subroutine GETGRP returns: Found  1 space group operations
 (whereof  1 operations were pure point group operations)
 out of a pool of 48 trial point group operations.


The dynamic configuration has the point symmetry C_1 .
 
 
 KPOINTS: B4C B11C-CBC                            

Automatic generation of k-mesh.
Space group operators:
 irot       det(A)        alpha          n_x          n_y          n_z        tau_x        tau_y        tau_z
    1     1.000000     0.000001     1.000000     0.000000     0.000000     0.000000     0.000000     0.000000
 
 Subroutine IBZKPT returns following result:
 ===========================================
 
 Found     36 irreducible k-points:
 
 Following reciprocal coordinates:
            Coordinates               Weight
  0.000000  0.000000  0.000000      1.000000
  0.250000  0.000000  0.000000      2.000000
  0.500000  0.000000  0.000000      1.000000
  0.000000  0.250000  0.000000      2.000000
  0.250000  0.250000  0.000000      2.000000
  0.500000  0.250000  0.000000      2.000000
 -0.250000  0.250000  0.000000      2.000000
  0.000000  0.500000  0.000000      1.000000
  0.250000  0.500000  0.000000      2.000000
  0.500000  0.500000  0.000000      1.000000
  0.000000  0.000000  0.250000      2.000000
  0.250000  0.000000  0.250000      2.000000
  0.500000  0.000000  0.250000      2.000000
 -0.250000  0.000000  0.250000      2.000000
  0.000000  0.250000  0.250000      2.000000
  0.250000  0.250000  0.250000      2.000000
  0.500000  0.250000  0.250000      2.000000
 -0.250000  0.250000  0.250000      2.000000
  0.000000  0.500000  0.250000      2.000000
  0.250000  0.500000  0.250000      2.000000
  0.500000  0.500000  0.250000      2.000000
 -0.250000  0.500000  0.250000      2.000000
  0.000000 -0.250000  0.250000      2.000000
  0.250000 -0.250000  0.250000      2.000000
  0.500000 -0.250000  0.250000      2.000000
 -0.250000 -0.250000  0.250000      2.000000
  0.000000  0.000000  0.500000      1.000000
  0.250000  0.000000  0.500000      2.000000
  0.500000  0.000000  0.500000      1.000000
  0.000000  0.250000  0.500000      2.000000
  0.250000  0.250000  0.500000      2.000000
  0.500000  0.250000  0.500000      2.000000
 -0.250000  0.250000  0.500000      2.000000
  0.000000  0.500000  0.500000      1.000000
  0.250000  0.500000  0.500000      2.000000
  0.500000  0.500000  0.500000      1.000000
 
 Following cartesian coordinates:
            Coordinates               Weight
  0.000000  0.000000  0.000000      1.000000
  0.039370  0.000000  0.000000      2.000000
  0.078740  0.000000  0.000000      1.000000
  0.000000  0.039370  0.000000      2.000000
  0.039370  0.039370  0.000000      2.000000
  0.078740  0.039370  0.000000      2.000000
 -0.039370  0.039370  0.000000      2.000000
  0.000000  0.078740  0.000000      1.000000
  0.039370  0.078740  0.000000      2.000000
  0.078740  0.078740  0.000000      1.000000
  0.000000  0.000000  0.039370      2.000000
  0.039370  0.000000  0.039370      2.000000
  0.078740  0.000000  0.039370      2.000000
 -0.039370  0.000000  0.039370      2.000000
  0.000000  0.039370  0.039370      2.000000
  0.039370  0.039370  0.039370      2.000000
  0.078740  0.039370  0.039370      2.000000
 -0.039370  0.039370  0.039370      2.000000
  0.000000  0.078740  0.039370      2.000000
  0.039370  0.078740  0.039370      2.000000
  0.078740  0.078740  0.039370      2.000000
 -0.039370  0.078740  0.039370      2.000000
  0.000000 -0.039370  0.039370      2.000000
  0.039370 -0.039370  0.039370      2.000000
  0.078740 -0.039370  0.039370      2.000000
 -0.039370 -0.039370  0.039370      2.000000
  0.000000  0.000000  0.078740      1.000000
  0.039370  0.000000  0.078740      2.000000
  0.078740  0.000000  0.078740      1.000000
  0.000000  0.039370  0.078740      2.000000
  0.039370  0.039370  0.078740      2.000000
  0.078740  0.039370  0.078740      2.000000
 -0.039370  0.039370  0.078740      2.000000
  0.000000  0.078740  0.078740      1.000000
  0.039370  0.078740  0.078740      2.000000
  0.078740  0.078740  0.078740      1.000000
 
 TETIRR: Found    192 inequivalent tetrahedra from      384


--------------------------------------------------------------------------------------------------------




 Dimension of arrays:
   k-points           NKPTS =     36   k-points in BZ     NKDIM =     36   number of bands    NBANDS=     46
   number of dos      NEDOS =    301   number of ions     NIONS =     20
   non local maximal  LDIM  =      4   non local SUM 2l+1 LMDIM =      8
   total plane-waves  NPLWV =  64000
   max r-space proj   IRMAX =      1   max aug-charges    IRDMAX=   3209
   dimension x,y,z NGX =    40 NGY =   40 NGZ =   40
   dimension x,y,z NGXF=    80 NGYF=   80 NGZF=   80
   support grid    NGXF=    80 NGYF=   80 NGZF=   80
   ions per type =              16   4
 NGX,Y,Z   is equivalent  to a cutoff of  10.54, 10.54, 10.54 a.u.
 NGXF,Y,Z  is equivalent  to a cutoff of  21.09, 21.09, 21.09 a.u.


 I would recommend the setting:
   dimension x,y,z NGX =    38 NGY =   38 NGZ =   38
 SYSTEM =  diamond                                 
 POSCAR =  methane-1                               

 Startparameter for this run:
   NWRITE =      2    write-flag & timer
   PREC   = normal    normal or accurate (medium, high low for compatibility)
   ISTART =      0    job   : 0-new  1-cont  2-samecut
   ICHARG =      2    charge: 1-file 2-atom 10-const
   ISPIN  =      1    spin polarized calculation?
   LNONCOLLINEAR =      F non collinear calculations
   LSORBIT =      F    spin-orbit coupling
   INIWAV =      1    electr: 0-lowe 1-rand  2-diag
   LASPH  =      F    aspherical Exc in radial PAW
   METAGGA=      F    non-selfconsistent MetaGGA calc.

 Electronic Relaxation 1
   ENCUT  =  600.0 eV  44.10 Ry    6.64 a.u.  12.60 12.60 12.60*2*pi/ulx,y,z
   ENINI  =  600.0     initial cutoff
   ENAUG  =  644.9 eV  augmentation charge cutoff
   NELM   =    200;   NELMIN=  2; NELMDL=  0     # of ELM steps 
   EDIFF  = 0.1E-05   stopping-criterion for ELM
   LREAL  =      F    real-space projection
   NLSPLINE    = F    spline interpolate recip. space projectors
   LCOMPAT=      F    compatible to vasp.4.4
   GGA_COMPAT  = T    GGA compatible to vasp.4.4-vasp.4.6
   LMAXPAW     = -100 max onsite density
   LMAXMIX     =    2 max onsite mixed and CHGCAR
   VOSKOWN=      0    Vosko Wilk Nusair interpolation
   ROPT   =    0.00000   0.00000
 Ionic relaxation
   EDIFFG = 0.1E-02   stopping-criterion for IOM
   NSW    =    200    number of steps for IOM
   NBLOCK =      1;   KBLOCK =    200    inner block; outer block 
   IBRION =      2    ionic relax: 0-MD 1-quasi-New 2-CG
   NFREE  =      1    steps in history (QN), initial steepest desc. (CG)
   ISIF   =      2    stress and relaxation
   IWAVPR =     11    prediction:  0-non 1-charg 2-wave 3-comb
   ISYM   =      2    0-nonsym 1-usesym 2-fastsym
   LCORR  =      T    Harris-Foulkes like correction to forces

   POTIM  = 0.5000    time-step for ionic-motion
   TEIN   =    0.0    initial temperature
   TEBEG  =    0.0;   TEEND  =   0.0 temperature during run
   SMASS  =  -3.00    Nose mass-parameter (am)
   estimated Nose-frequenzy (Omega)   =  0.10E-29 period in steps =****** mass=  -0.909E-27a.u.
   SCALEE = 1.0000    scale energy and forces
   NPACO  =    256;   APACO  = 16.0  distance and # of slots for P.C.
   PSTRESS=    0.0 pullay stress

  Mass of Ions in am
   POMASS =  12.01  1.00
  Ionic Valenz
   ZVAL   =   4.00  1.00
  Atomic Wigner-Seitz radii
   RWIGS  =  -1.00 -1.00
  virtual crystal weights 
   VCA    =   1.00  1.00
   NELECT =      68.0000    total number of electrons
   NUPDOWN=      -1.0000    fix difference up-down

 DOS related values:
   EMIN   =  10.00;   EMAX   =-10.00  energy-range for DOS
   EFERMI =   0.00
   ISMEAR =    -5;   SIGMA  =   0.20  broadening in eV -4-tet -1-fermi 0-gaus

 Electronic relaxation 2 (details)
   IALGO  =     38    algorithm
   LDIAG  =      T    sub-space diagonalisation (order eigenvalues)
   LSUBROT=      F    optimize rotation matrix (better conditioning)
   TURBO    =      0    0=normal 1=particle mesh
   IRESTART =      0    0=no restart 2=restart with 2 vectors
   NREBOOT  =      0    no. of reboots
   NMIN     =      0    reboot dimension
   EREF     =   0.00    reference energy to select bands
   IMIX   =      4    mixing-type and parameters
     AMIX     =   0.40;   BMIX     =  1.00
     AMIX_MAG =   1.60;   BMIX_MAG =  1.00
     AMIN     =   0.10
     WC   =   100.;   INIMIX=   1;  MIXPRE=   1;  MAXMIX= -45

 Intra band minimization:
   WEIMIN = 0.0010     energy-eigenvalue tresh-hold
   EBREAK =  0.54E-08  absolut break condition
   DEPER  =   0.30     relativ break condition  

   TIME   =   0.40     timestep for ELM

  volume/ion in A,a.u.               =      12.55        84.67
  Fermi-wavevector in a.u.,A,eV,Ry     =   1.059405  2.001985 15.270351  1.122339
  Thomas-Fermi vector in A             =   2.194749
 
 Write flags
   LWAVE  =      F    write WAVECAR
   LCHARG =      F    write CHGCAR
   LVTOT  =      F    write LOCPOT, total local potential
   LVHAR  =      F    write LOCPOT, Hartree potential only
   LELF   =      F    write electronic localiz. function (ELF)
   LORBIT =      0    0 simple, 1 ext, 2 COOP (PROOUT)


 Dipole corrections
   LMONO  =      F    monopole corrections only (constant potential shift)
   LDIPOL =      F    correct potential (dipole corrections)
   IDIPOL =      0    1-x, 2-y, 3-z, 4-all directions 
   EPSILON=  1.0000000 bulk dielectric constant

 Exchange correlation treatment:
   GGA     =    PE    GGA type
   LEXCH   =     8    internal setting for exchange type
   VOSKOWN=      0    Vosko Wilk Nusair interpolation
   LHFCALC =     F    Hartree Fock is set to
   LHFONE  =     F    Hartree Fock one center treatment
   AEXX    =    0.0000 exact exchange contribution

 Linear response parameters
   LEPSILON=     F    determine dielectric tensor
   LRPA    =     F    only Hartree local field effects (RPA)
   LNABLA  =     F    use nabla operator in PAW spheres
   LVEL    =     F    velocity operator in full k-point grid
   LINTERFAST=   F  fast interpolation
   KINTER  =     0    interpolate to denser k-point grid
   CSHIFT  =0.1000    complex shift for real part using Kramers Kronig
   OMEGAMAX=  -1.0    maximum frequency
   DEG_THRESHOLD= 0.2000000E-02 threshold for treating states as degnerate
   RTIME   =    0.100 relaxation time in fs

 Orbital magnetization related:
   ORBITALMAG=     F  switch on orbital magnetization
   LCHIMAG   =     F  perturbation theory with respect to B field
   DQ        =  0.001000  dq finite difference perturbation B field



--------------------------------------------------------------------------------------------------------


 conjugate gradient relaxation of ions
 charge density and potential will be updated during run
 non-spin polarized calculation
 Variant of blocked Davidson
 Davidson routine will perform the subspace rotation
 perform sub-space diagonalisation
    after iterative eigenvector-optimisation
 modified Broyden-mixing scheme, WC =      100.0
 initial mixing is a Kerker type mixing with AMIX =  0.4000 and BMIX =      1.0000
 Hartree-type preconditioning will be used
 using additional bands           12
 reciprocal scheme for non local part
 calculate Harris-corrections to forces 
   (improved forces if not selfconsistent)
 use gradient corrections 
 use of overlap-Matrix (Vanderbilt PP)
 Fermi weights with tetrahedron method with Bloechl corrections


--------------------------------------------------------------------------------------------------------


  energy-cutoff  :      600.00
  volume of cell :      250.93
      direct lattice vectors                 reciprocal lattice vectors
     6.307381169  0.000000000  0.000000000     0.158544406  0.000000000  0.000000000
     0.000000000  6.307381169  0.000000000     0.000000000  0.158544406  0.000000000
     0.000000000  0.000000000  6.307381169     0.000000000  0.000000000  0.158544406

  length of vectors
     6.307381169  6.307381169  6.307381169     0.158544406  0.158544406  0.158544406


 
 k-points in units of 2pi/SCALE and weight: B4C B11C-CBC                            
   0.00000000  0.00000000  0.00000000       0.016
   0.03937008  0.00000000  0.00000000       0.031
   0.07874016  0.00000000  0.00000000       0.016
   0.00000000  0.03937008  0.00000000       0.031
   0.03937008  0.03937008  0.00000000       0.031
   0.07874016  0.03937008  0.00000000       0.031
  -0.03937008  0.03937008  0.00000000       0.031
   0.00000000  0.07874016  0.00000000       0.016
   0.03937008  0.07874016  0.00000000       0.031
   0.07874016  0.07874016  0.00000000       0.016
   0.00000000  0.00000000  0.03937008       0.031
   0.03937008  0.00000000  0.03937008       0.031
   0.07874016  0.00000000  0.03937008       0.031
  -0.03937008  0.00000000  0.03937008       0.031
   0.00000000  0.03937008  0.03937008       0.031
   0.03937008  0.03937008  0.03937008       0.031
   0.07874016  0.03937008  0.03937008       0.031
  -0.03937008  0.03937008  0.03937008       0.031
   0.00000000  0.07874016  0.03937008       0.031
   0.03937008  0.07874016  0.03937008       0.031
   0.07874016  0.07874016  0.03937008       0.031
  -0.03937008  0.07874016  0.03937008       0.031
   0.00000000 -0.03937008  0.03937008       0.031
   0.03937008 -0.03937008  0.03937008       0.031
   0.07874016 -0.03937008  0.03937008       0.031
  -0.03937008 -0.03937008  0.03937008       0.031
   0.00000000  0.00000000  0.07874016       0.016
   0.03937008  0.00000000  0.07874016       0.031
   0.07874016  0.00000000  0.07874016       0.016
   0.00000000  0.03937008  0.07874016       0.031
   0.03937008  0.03937008  0.07874016       0.031
   0.07874016  0.03937008  0.07874016       0.031
  -0.03937008  0.03937008  0.07874016       0.031
   0.00000000  0.07874016  0.07874016       0.016
   0.03937008  0.07874016  0.07874016       0.031
   0.07874016  0.07874016  0.07874016       0.016
 
 k-points in reciprocal lattice and weights: B4C B11C-CBC                            
   0.00000000  0.00000000  0.00000000       0.016
   0.25000000  0.00000000  0.00000000       0.031
   0.50000000  0.00000000  0.00000000       0.016
   0.00000000  0.25000000  0.00000000       0.031
   0.25000000  0.25000000  0.00000000       0.031
   0.50000000  0.25000000  0.00000000       0.031
  -0.25000000  0.25000000  0.00000000       0.031
   0.00000000  0.50000000  0.00000000       0.016
   0.25000000  0.50000000  0.00000000       0.031
   0.50000000  0.50000000  0.00000000       0.016
   0.00000000  0.00000000  0.25000000       0.031
   0.25000000  0.00000000  0.25000000       0.031
   0.50000000  0.00000000  0.25000000       0.031
  -0.25000000  0.00000000  0.25000000       0.031
   0.00000000  0.25000000  0.25000000       0.031
   0.25000000  0.25000000  0.25000000       0.031
   0.50000000  0.25000000  0.25000000       0.031
  -0.25000000  0.25000000  0.25000000       0.031
   0.00000000  0.50000000  0.25000000       0.031
   0.25000000  0.50000000  0.25000000       0.031
   0.50000000  0.50000000  0.25000000       0.031
  -0.25000000  0.50000000  0.25000000       0.031
   0.00000000 -0.25000000  0.25000000       0.031
   0.25000000 -0.25000000  0.25000000       0.031
   0.50000000 -0.25000000  0.25000000       0.031
  -0.25000000 -0.25000000  0.25000000       0.031
   0.00000000  0.00000000  0.50000000       0.016
   0.25000000  0.00000000  0.50000000       0.031
   0.50000000  0.00000000  0.50000000       0.016
   0.00000000  0.25000000  0.50000000       0.031
   0.25000000  0.25000000  0.50000000       0.031
   0.50000000  0.25000000  0.50000000       0.031
  -0.25000000  0.25000000  0.50000000       0.031
   0.00000000  0.50000000  0.50000000       0.016
   0.25000000  0.50000000  0.50000000       0.031
   0.50000000  0.50000000  0.50000000       0.016
 
 position of ions in fractional coordinates (direct lattice) 
   0.60030001  0.52968001  0.15026000
   0.54931998  0.63409001  0.89600998
   0.56970000  0.35765001  0.93207002
   0.34876001  0.49586999  0.03313000
   0.96934003  0.10341001  0.13061000
   0.95473999  0.05858004  0.85507000
   0.16532004  0.94997001  0.00338000
   0.90644997  0.84893000  0.03353000
   0.07562006  0.53223002  0.66030997
   0.02463996  0.63664001  0.40605000
   0.04501998  0.36019999  0.44211999
   0.82406998  0.49842000  0.54316997
   0.57178003  0.02575004  0.62698001
   0.52079999  0.13015997  0.37272999
   0.54118002  0.85372001  0.40878999
   0.32023999  0.99194002  0.50984001
   0.51703000  0.50432998  0.00287000
   0.99896002  0.99023002  0.00565000
   0.99234003  0.50687998  0.51292002
   0.48850000  0.00039995  0.47959000
 
 position of ions in cartesian coordinates  (Angst):
   3.78632100  3.34089375  0.94774710
   3.46477052  3.99944736  5.65147649
   3.59331507  2.25583495  5.87892087
   2.19976231  3.12764106  0.20896354
   6.11399703  0.65224632  0.82380708
   6.02190902  0.36948665  5.39325238
   1.04273650  5.99182293  0.02131895
   5.71732550  5.35452510  0.21148650
   0.47696451  3.35697761  4.16482667
   0.15541364  4.01553122  2.56111210
   0.28395820  2.27191862  2.78861927
   5.19772345  3.14372492  3.42598007
   3.60643457  0.16241532  3.95460189
   3.28488407  0.82096857  2.35095010
   3.41342864  5.38473751  2.57839430
   2.01987569  6.25654382  3.21575529
   3.26110529  3.18100141  0.01810218
   6.30082161  6.24575821  0.03563670
   6.25906681  3.19708527  3.23518209
   3.08115569  0.00252262  3.02495693
 


--------------------------------------------------------------------------------------------------------


 k-point  1 :   0.0000 0.0000 0.0000  plane waves:    8385
 k-point  2 :   0.2500 0.0000 0.0000  plane waves:    8417
 k-point  3 :   0.5000 0.0000 0.0000  plane waves:    8410
 k-point  4 :   0.0000 0.2500 0.0000  plane waves:    8417
 k-point  5 :   0.2500 0.2500 0.0000  plane waves:    8378
 k-point  6 :   0.5000 0.2500 0.0000  plane waves:    8346
 k-point  7 :  -0.2500 0.2500 0.0000  plane waves:    8378
 k-point  8 :   0.0000 0.5000 0.0000  plane waves:    8410
 k-point  9 :   0.2500 0.5000 0.0000  plane waves:    8346
 k-point 10 :   0.5000 0.5000 0.0000  plane waves:    8396
 k-point 11 :   0.0000 0.0000 0.2500  plane waves:    8417
 k-point 12 :   0.2500 0.0000 0.2500  plane waves:    8378
 k-point 13 :   0.5000 0.0000 0.2500  plane waves:    8346
 k-point 14 :  -0.2500 0.0000 0.2500  plane waves:    8378
 k-point 15 :   0.0000 0.2500 0.2500  plane waves:    8378
 k-point 16 :   0.2500 0.2500 0.2500  plane waves:    8394
 k-point 17 :   0.5000 0.2500 0.2500  plane waves:    8388
 k-point 18 :  -0.2500 0.2500 0.2500  plane waves:    8394
 k-point 19 :   0.0000 0.5000 0.2500  plane waves:    8346
 k-point 20 :   0.2500 0.5000 0.2500  plane waves:    8388
 k-point 21 :   0.5000 0.5000 0.2500  plane waves:    8392
 k-point 22 :  -0.2500 0.5000 0.2500  plane waves:    8388
 k-point 23 :   0.0000-0.2500 0.2500  plane waves:    8378
 k-point 24 :   0.2500-0.2500 0.2500  plane waves:    8394
 k-point 25 :   0.5000-0.2500 0.2500  plane waves:    8388
 k-point 26 :  -0.2500-0.2500 0.2500  plane waves:    8394
 k-point 27 :   0.0000 0.0000 0.5000  plane waves:    8410
 k-point 28 :   0.2500 0.0000 0.5000  plane waves:    8346
 k-point 29 :   0.5000 0.0000 0.5000  plane waves:    8396
 k-point 30 :   0.0000 0.2500 0.5000  plane waves:    8346
 k-point 31 :   0.2500 0.2500 0.5000  plane waves:    8388
 k-point 32 :   0.5000 0.2500 0.5000  plane waves:    8392
 k-point 33 :  -0.2500 0.2500 0.5000  plane waves:    8388
 k-point 34 :   0.0000 0.5000 0.5000  plane waves:    8396
 k-point 35 :   0.2500 0.5000 0.5000  plane waves:    8392
 k-point 36 :   0.5000 0.5000 0.5000  plane waves:    8240

 maximum and minimum number of plane-waves per node :      2124     2060

 maximum number of plane-waves:      8417
 maximum index in each direction: 
   IXMAX=   12   IYMAX=   12   IZMAX=   12
   IXMIN=  -13   IYMIN=  -13   IZMIN=  -13

 WARNING: aliasing errors must be expected set NGX to  52 to avoid them
 WARNING: aliasing errors must be expected set NGY to  52 to avoid them
 WARNING: aliasing errors must be expected set NGZ to  52 to avoid them
 aliasing errors are usually negligible using standard VASP settings
 and one can safely disregard these warnings

 parallel 3D FFT for wavefunctions:
    minimum data exchange during FFTs selected (reduces bandwidth)
 parallel 3D FFT for charge:
    minimum data exchange during FFTs selected (reduces bandwidth)


 total amount of memory used by VASP on root node    76069. kBytes
========================================================================

   base      :      30000. kBytes
   nonl-proj :      10457. kBytes
   fftplans  :       2688. kBytes
   grid      :       4294. kBytes
   one-center:         15. kBytes
   wavefun   :      28615. kBytes
 
     INWAV:  cpu time    0.00: real time    0.00
 Broyden mixing: mesh for mixing (old mesh)
   NGX = 25   NGY = 25   NGZ = 25
  (NGX  = 80   NGY  = 80   NGZ  = 80)
  gives a total of  15625 points

 initial charge density was supplied:
 charge density of overlapping atoms calculated
 number of electron      68.0000000 magnetization 
 keeping initial charge density in first step


--------------------------------------------------------------------------------------------------------


 Maximum index for augmentation-charges          399 (set IRDMAX)


--------------------------------------------------------------------------------------------------------


 First call to EWALD:  gamma=   0.281
 Maximum number of real-space cells 3x 3x 3
 Maximum number of reciprocal cells 3x 3x 3

 FEWALD executed in parallel
    FEWALD:  cpu time    0.05: real time    0.10


----------------------------------------- Iteration    1(   1)  ---------------------------------------


    POTLOK:  cpu time    0.52: real time    1.02
    SETDIJ:  cpu time    0.09: real time    0.18
     EDDAV:  cpu time  146.77: real time  293.57
 BZINTS: Fermi energy:  9.933857; 68.000000 electrons
         Band energy:-137.556636;  BLOECHL correction: -0.081981
       DOS:  cpu time    0.04: real time    0.08
    --------------------------------------------
      LOOP:  cpu time  147.42: real time  294.88

 eigenvalue-minimisations  :  3312
 total energy-change (2. order) : 0.3266609E+03  (-0.3316327E+04)
 number of electron      68.0000000 magnetization 
 augmentation part       68.0000000 magnetization 

 Free energy of the ion-electron system (eV)
  ---------------------------------------------------
  alpha Z        PSCENC =        90.96374622
  Ewald energy   TEWEN  =     -1451.11248794
  -Hartree energ DENC   =      -779.69115834
  -exchange      EXHF   =         0.00000000
  -V(xc)+E(xc)   XCENC  =       218.14462987
  PAW double counting   =       608.42839238     -626.87209802
  entropy T*S    EENTRO =         0.00000000
  eigenvalues    EBANDS =      -137.55663595
  atomic energy  EATOM  =      2404.35655786
  ---------------------------------------------------
  free energy    TOTEN  =       326.66094608 eV

  energy without entropy =      326.66094608  energy(sigma->0) =      326.66094608


--------------------------------------------------------------------------------------------------------




----------------------------------------- Iteration    1(   2)  ---------------------------------------


     EDDAV:  cpu time  170.21: real time  340.49
 BZINTS: Fermi energy: -0.692653; 68.000000 electrons
         Band energy:-507.473419;  BLOECHL correction: -0.043253
       DOS:  cpu time    0.04: real time    0.08
    --------------------------------------------
      LOOP:  cpu time  170.27: real time  340.61

 eigenvalue-minimisations  :  4244
 total energy-change (2. order) :-0.3699168E+03  (-0.3609242E+03)
 number of electron      68.0000000 magnetization 
 augmentation part       68.0000000 magnetization 

 Free energy of the ion-electron system (eV)
  ---------------------------------------------------
  alpha Z        PSCENC =        90.96374622
  Ewald energy   TEWEN  =     -1451.11248794
  -Hartree energ DENC   =      -779.69115834
  -exchange      EXHF   =         0.00000000
  -V(xc)+E(xc)   XCENC  =       218.14462987
  PAW double counting   =       608.42839238     -626.87209802
  entropy T*S    EENTRO =         0.00000000
  eigenvalues    EBANDS =      -507.47341851
  atomic energy  EATOM  =      2404.35655786
  ---------------------------------------------------
  free energy    TOTEN  =       -43.25583648 eV

  energy without entropy =      -43.25583648  energy(sigma->0) =      -43.25583648


--------------------------------------------------------------------------------------------------------




----------------------------------------- Iteration    1(   3)  ---------------------------------------


     EDDAV:  cpu time  157.12: real time  314.31
 BZINTS: Fermi energy: -1.473431; 68.000000 electrons
         Band energy:-535.404019;  BLOECHL correction: -0.032782
       DOS:  cpu time    0.04: real time    0.10
    --------------------------------------------
      LOOP:  cpu time  157.17: real time  314.43

 eigenvalue-minimisations  :  3814
 total energy-change (2. order) :-0.2793060E+02  (-0.2694267E+02)
 number of electron      68.0000000 magnetization 
 augmentation part       68.0000000 magnetization 

 Free energy of the ion-electron system (eV)
  ---------------------------------------------------
  alpha Z        PSCENC =        90.96374622
  Ewald energy   TEWEN  =     -1451.11248794
  -Hartree energ DENC   =      -779.69115834
  -exchange      EXHF   =         0.00000000
  -V(xc)+E(xc)   XCENC  =       218.14462987
  PAW double counting   =       608.42839238     -626.87209802
  entropy T*S    EENTRO =         0.00000000
  eigenvalues    EBANDS =      -535.40401911
  atomic energy  EATOM  =      2404.35655786
  ---------------------------------------------------
  free energy    TOTEN  =       -71.18643708 eV

  energy without entropy =      -71.18643708  energy(sigma->0) =      -71.18643708


--------------------------------------------------------------------------------------------------------




----------------------------------------- Iteration    1(   4)  ---------------------------------------


     EDDAV:  cpu time  187.86: real time  375.79
 BZINTS: Fermi energy: -1.505468; 68.000000 electrons
         Band energy:-536.689641;  BLOECHL correction: -0.029729
       DOS:  cpu time    0.04: real time    0.10
    --------------------------------------------
      LOOP:  cpu time  187.92: real time  375.92

 eigenvalue-minimisations  :  4800
 total energy-change (2. order) :-0.1285622E+01  (-0.1274836E+01)
 number of electron      68.0000000 magnetization 
 augmentation part       68.0000000 magnetization 

 Free energy of the ion-electron system (eV)
  ---------------------------------------------------
  alpha Z        PSCENC =        90.96374622
  Ewald energy   TEWEN  =     -1451.11248794
  -Hartree energ DENC   =      -779.69115834
  -exchange      EXHF   =         0.00000000
  -V(xc)+E(xc)   XCENC  =       218.14462987
  PAW double counting   =       608.42839238     -626.87209802
  entropy T*S    EENTRO =         0.00000000
  eigenvalues    EBANDS =      -536.68964105
  atomic energy  EATOM  =      2404.35655786
  ---------------------------------------------------
  free energy    TOTEN  =       -72.47205902 eV

  energy without entropy =      -72.47205902  energy(sigma->0) =      -72.47205902


--------------------------------------------------------------------------------------------------------




----------------------------------------- Iteration    1(   5)  ---------------------------------------


     EDDAV:  cpu time  176.53: real time  353.11
 BZINTS: Fermi energy: -1.506991; 68.000000 electrons
         Band energy:-536.720238;  BLOECHL correction: -0.029796
       DOS:  cpu time    0.04: real time    0.10
    CHARGE:  cpu time    2.46: real time    4.92
    MIXING:  cpu time    0.04: real time    0.10
    --------------------------------------------
      LOOP:  cpu time  179.10: real time  358.26

 eigenvalue-minimisations  :  4468
 total energy-change (2. order) :-0.3059717E-01  (-0.3045672E-01)
 number of electron      67.9999998 magnetization 
 augmentation part        0.4447938 magnetization 

 Broyden mixing:
  rms(total) = 0.93528E+00    rms(broyden)= 0.93516E+00
  rms(prec ) = 0.15470E+01
  weight for this iteration     100.00

 Free energy of the ion-electron system (eV)
  ---------------------------------------------------
  alpha Z        PSCENC =        90.96374622
  Ewald energy   TEWEN  =     -1451.11248794
  -Hartree energ DENC   =      -779.69115834
  -exchange      EXHF   =         0.00000000
  -V(xc)+E(xc)   XCENC  =       218.14462987
  PAW double counting   =       608.42839238     -626.87209802
  entropy T*S    EENTRO =         0.00000000
  eigenvalues    EBANDS =      -536.72023822
  atomic energy  EATOM  =      2404.35655786
  ---------------------------------------------------
  free energy    TOTEN  =       -72.50265619 eV

  energy without entropy =      -72.50265619  energy(sigma->0) =      -72.50265619


--------------------------------------------------------------------------------------------------------




----------------------------------------- Iteration    1(   6)  ---------------------------------------


    POTLOK:  cpu time    0.61: real time    1.21
    SETDIJ:  cpu time    0.08: real time    0.16
     EDDAV:  cpu time  165.53: real time  331.12
 BZINTS: Fermi energy: -1.159596; 68.000000 electrons
         Band energy:-504.638269;  BLOECHL correction: -0.033198
       DOS:  cpu time    0.04: real time    0.09
    CHARGE:  cpu time    2.74: real time    5.49
    MIXING:  cpu time    0.01: real time    0.02
    --------------------------------------------
      LOOP:  cpu time  169.01: real time  338.10

 eigenvalue-minimisations  :  3992
 total energy-change (2. order) : 0.2083095E+01  (-0.4524745E+00)
 number of electron      67.9999999 magnetization 
 augmentation part        0.4406765 magnetization 

 Broyden mixing:
  rms(total) = 0.54155E+00    rms(broyden)= 0.54153E+00
  rms(prec ) = 0.10681E+01
  weight for this iteration     100.00

 eigenvalues of (default mixing * dielectric matrix)
  average eigenvalue GAMMA=   1.2530
  1.2530

 Free energy of the ion-electron system (eV)
  ---------------------------------------------------
  alpha Z        PSCENC =        90.96374622
  Ewald energy   TEWEN  =     -1451.11248794
  -Hartree energ DENC   =      -811.18590145
  -exchange      EXHF   =         0.00000000
  -V(xc)+E(xc)   XCENC  =       220.00988487
  PAW double counting   =       700.21526349     -719.02835598
  entropy T*S    EENTRO =         0.00000000
  eigenvalues    EBANDS =      -504.63826863
  atomic energy  EATOM  =      2404.35655786
  ---------------------------------------------------
  free energy    TOTEN  =       -70.41956156 eV

  energy without entropy =      -70.41956156  energy(sigma->0) =      -70.41956156


--------------------------------------------------------------------------------------------------------




----------------------------------------- Iteration    1(   7)  ---------------------------------------


    POTLOK:  cpu time    0.59: real time    1.18
    SETDIJ:  cpu time    0.08: real time    0.17
     EDDAV:  cpu time  180.36: real time  360.79
 BZINTS: Fermi energy: -1.050126; 68.000000 electrons
         Band energy:-495.084770;  BLOECHL correction: -0.020604
       DOS:  cpu time    0.04: real time    0.08
    CHARGE:  cpu time    3.36: real time    6.72
    MIXING:  cpu time    0.13: real time    0.28
    --------------------------------------------
      LOOP:  cpu time  184.57: real time  369.23

 eigenvalue-minimisations  :  4584
 total energy-change (2. order) :-0.5732493E+00  (-0.5508127E+00)
 number of electron      67.9999999 magnetization 
 augmentation part        0.4561558 magnetization 

 Broyden mixing:
  rms(total) = 0.85938E+00    rms(broyden)= 0.85934E+00
  rms(prec ) = 0.25440E+01
  weight for this iteration     100.00

 eigenvalues of (default mixing * dielectric matrix)
  average eigenvalue GAMMA=   0.9103
  1.6012  0.2193

 Free energy of the ion-electron system (eV)
  ---------------------------------------------------
  alpha Z        PSCENC =        90.96374622
  Ewald energy   TEWEN  =     -1451.11248794
  -Hartree energ DENC   =      -821.89433846
  -exchange      EXHF   =         0.00000000
  -V(xc)+E(xc)   XCENC  =       220.70882831
  PAW double counting   =       746.64745870     -765.57780579
  entropy T*S    EENTRO =         0.00000000
  eigenvalues    EBANDS =      -495.08476982
  atomic energy  EATOM  =      2404.35655786
  ---------------------------------------------------
  free energy    TOTEN  =       -70.99281091 eV

  energy without entropy =      -70.99281091  energy(sigma->0) =      -70.99281091


--------------------------------------------------------------------------------------------------------




----------------------------------------- Iteration    1(   8)  ---------------------------------------


    POTLOK:  cpu time    0.62: real time    1.23
    SETDIJ:  cpu time    0.08: real time    0.15
     EDDAV:  cpu time  179.72: real time  359.51
 BZINTS: Fermi energy: -0.974272; 68.000000 electrons
         Band energy:-486.031610;  BLOECHL correction: -0.036662
       DOS:  cpu time    0.04: real time    0.09
    CHARGE:  cpu time    3.06: real time    6.11
    MIXING:  cpu time    0.12: real time    0.24
    --------------------------------------------
      LOOP:  cpu time  183.66: real time  367.38

 eigenvalue-minimisations  :  4576
 total energy-change (2. order) : 0.1002460E+01  (-0.6868673E+00)
 number of electron      67.9999999 magnetization 
 augmentation part        0.4394129 magnetization 

 Broyden mixing:
  rms(total) = 0.32575E+00    rms(broyden)= 0.32568E+00
  rms(prec ) = 0.80736E+00
  weight for this iteration     100.00

 eigenvalues of (default mixing * dielectric matrix)
  average eigenvalue GAMMA=   0.8567
  1.8964  0.4924  0.1813

 Free energy of the ion-electron system (eV)
  ---------------------------------------------------
  alpha Z        PSCENC =        90.96374622
  Ewald energy   TEWEN  =     -1451.11248794
  -Hartree energ DENC   =      -830.42240407
  -exchange      EXHF   =         0.00000000
  -V(xc)+E(xc)   XCENC  =       221.28049691
  PAW double counting   =       785.96926893     -804.99391905
  entropy T*S    EENTRO =         0.00000000
  eigenvalues    EBANDS =      -486.03160988
  atomic energy  EATOM  =      2404.35655786
  ---------------------------------------------------
  free energy    TOTEN  =       -69.99035103 eV

  energy without entropy =      -69.99035103  energy(sigma->0) =      -69.99035103


--------------------------------------------------------------------------------------------------------




----------------------------------------- Iteration    1(   9)  ---------------------------------------


    POTLOK:  cpu time    0.64: real time    1.29
    SETDIJ:  cpu time    0.09: real time    0.16
     EDDAV:  cpu time  170.84: real time  341.76
 BZINTS: Fermi energy: -0.905147; 68.000000 electrons
         Band energy:-481.896512;  BLOECHL correction: -0.036223
       DOS:  cpu time    0.04: real time    0.08
    CHARGE:  cpu time    2.91: real time    5.83
    MIXING:  cpu time    0.10: real time    0.20
    --------------------------------------------
      LOOP:  cpu time  174.64: real time  349.36

 eigenvalue-minimisations  :  4312
 total energy-change (2. order) : 0.3130876E-02  (-0.1522286E+00)
 number of electron      67.9999999 magnetization 
 augmentation part        0.4414269 magnetization 

 Broyden mixing:
  rms(total) = 0.36121E+00    rms(broyden)= 0.36118E+00
  rms(prec ) = 0.10851E+01
  weight for this iteration     100.00

 eigenvalues of (default mixing * dielectric matrix)
  average eigenvalue GAMMA=   0.7106
  1.9402  0.5433  0.1795  0.1795

 Free energy of the ion-electron system (eV)
  ---------------------------------------------------
  alpha Z        PSCENC =        90.96374622
  Ewald energy   TEWEN  =     -1451.11248794
  -Hartree energ DENC   =      -834.83776975
  -exchange      EXHF   =         0.00000000
  -V(xc)+E(xc)   XCENC  =       221.60667426
  PAW double counting   =       811.76995076     -830.83737956
  entropy T*S    EENTRO =         0.00000000
  eigenvalues    EBANDS =      -481.89651200
  atomic energy  EATOM  =      2404.35655786
  ---------------------------------------------------
  free energy    TOTEN  =       -69.98722015 eV

  energy without entropy =      -69.98722015  energy(sigma->0) =      -69.98722015


--------------------------------------------------------------------------------------------------------




----------------------------------------- Iteration    1(  10)  ---------------------------------------


    POTLOK:  cpu time    0.59: real time    1.17
    SETDIJ:  cpu time    0.03: real time    0.07
     EDDAV:  cpu time  172.99: real time  346.22
 BZINTS: Fermi energy: -0.910259; 68.000000 electrons
         Band energy:-480.851782;  BLOECHL correction: -0.038466
       DOS:  cpu time    0.05: real time    0.10
    CHARGE:  cpu time    2.19: real time    4.38
    MIXING:  cpu time    0.09: real time    0.19
    --------------------------------------------
      LOOP:  cpu time  175.98: real time  352.19

 eigenvalue-minimisations  :  4288
 total energy-change (2. order) : 0.1483855E+00  (-0.8677126E-01)
 number of electron      67.9999999 magnetization 
 augmentation part        0.4383515 magnetization 

 Broyden mixing:
  rms(total) = 0.10203E+00    rms(broyden)= 0.10200E+00
  rms(prec ) = 0.23832E+00
  weight for this iteration     100.00

 eigenvalues of (default mixing * dielectric matrix)
  average eigenvalue GAMMA=   0.7107
  1.9584  0.7450  0.5192  0.1805  0.1505

 Free energy of the ion-electron system (eV)
  ---------------------------------------------------
  alpha Z        PSCENC =        90.96374622
  Ewald energy   TEWEN  =     -1451.11248794
  -Hartree energ DENC   =      -835.81098814
  -exchange      EXHF   =         0.00000000
  -V(xc)+E(xc)   XCENC  =       221.69011733
  PAW double counting   =       819.68837445     -838.76237288
  entropy T*S    EENTRO =         0.00000000
  eigenvalues    EBANDS =      -480.85178160
  atomic energy  EATOM  =      2404.35655786
  ---------------------------------------------------
  free energy    TOTEN  =       -69.83883469 eV

  energy without entropy =      -69.83883469  energy(sigma->0) =      -69.83883469


--------------------------------------------------------------------------------------------------------




----------------------------------------- Iteration    1(  11)  ---------------------------------------


    POTLOK:  cpu time    0.48: real time    0.96
    SETDIJ:  cpu time    0.08: real time    0.15
     EDDAV:  cpu time  171.77: real time  343.67
 BZINTS: Fermi energy: -0.910037; 68.000000 electrons
         Band energy:-481.161142;  BLOECHL correction: -0.039505
       DOS:  cpu time    0.04: real time    0.08
    CHARGE:  cpu time    2.63: real time    5.28
    MIXING:  cpu time    0.16: real time    0.31
    --------------------------------------------
      LOOP:  cpu time  175.17: real time  350.46

 eigenvalue-minimisations  :  4216
 total energy-change (2. order) :-0.5197565E-02  (-0.1368008E-01)
 number of electron      67.9999999 magnetization 
 augmentation part        0.4408316 magnetization 

 Broyden mixing:
  rms(total) = 0.10173E+00    rms(broyden)= 0.10172E+00
  rms(prec ) = 0.27004E+00
  weight for this iteration     100.00

 eigenvalues of (default mixing * dielectric matrix)
  average eigenvalue GAMMA=   0.6925
  1.9496  1.1298  0.5253  0.2224  0.1758  0.1522

 Free energy of the ion-electron system (eV)
  ---------------------------------------------------
  alpha Z        PSCENC =        90.96374622
  Ewald energy   TEWEN  =     -1451.11248794
  -Hartree energ DENC   =      -835.52417997
  -exchange      EXHF   =         0.00000000
  -V(xc)+E(xc)   XCENC  =       221.69703876
  PAW double counting   =       823.51687448     -842.58043965
  entropy T*S    EENTRO =         0.00000000
  eigenvalues    EBANDS =      -481.16114202
  atomic energy  EATOM  =      2404.35655786
  ---------------------------------------------------
  free energy    TOTEN  =       -69.84403225 eV

  energy without entropy =      -69.84403225  energy(sigma->0) =      -69.84403225


--------------------------------------------------------------------------------------------------------




----------------------------------------- Iteration    1(  12)  ---------------------------------------


    POTLOK:  cpu time    0.57: real time    1.13
    SETDIJ:  cpu time    0.08: real time    0.15
     EDDAV:  cpu time  178.02: real time  356.15
 BZINTS: Fermi energy: -0.912249; 68.000000 electrons
         Band energy:-481.678820;  BLOECHL correction: -0.040410
       DOS:  cpu time    0.04: real time    0.08
    CHARGE:  cpu time    3.07: real time    6.15
    MIXING:  cpu time    0.16: real time    0.33
    --------------------------------------------
      LOOP:  cpu time  181.95: real time  364.01

 eigenvalue-minimisations  :  4328
 total energy-change (2. order) : 0.8205440E-02  (-0.6514377E-02)
 number of electron      67.9999999 magnetization 
 augmentation part        0.4417055 magnetization 

 Broyden mixing:
  rms(total) = 0.46501E-01    rms(broyden)= 0.46495E-01
  rms(prec ) = 0.90354E-01
  weight for this iteration     100.00

 eigenvalues of (default mixing * dielectric matrix)
  average eigenvalue GAMMA=   0.7742
  1.8574  1.8574  0.6265  0.5714  0.1533  0.1768  0.1768

 Free energy of the ion-electron system (eV)
  ---------------------------------------------------
  alpha Z        PSCENC =        90.96374622
  Ewald energy   TEWEN  =     -1451.11248794
  -Hartree energ DENC   =      -835.01194921
  -exchange      EXHF   =         0.00000000
  -V(xc)+E(xc)   XCENC  =       221.69499768
  PAW double counting   =       827.89534336     -846.94321452
  entropy T*S    EENTRO =         0.00000000
  eigenvalues    EBANDS =      -481.67882026
  atomic energy  EATOM  =      2404.35655786
  ---------------------------------------------------
  free energy    TOTEN  =       -69.83582681 eV

  energy without entropy =      -69.83582681  energy(sigma->0) =      -69.83582681


--------------------------------------------------------------------------------------------------------




----------------------------------------- Iteration    1(  13)  ---------------------------------------


    POTLOK:  cpu time    0.62: real time    1.22
    SETDIJ:  cpu time    0.09: real time    0.20
     EDDAV:  cpu time  176.74: real time  353.60
 BZINTS: Fermi energy: -0.912005; 68.000000 electrons
         Band energy:-481.910298;  BLOECHL correction: -0.039973
       DOS:  cpu time    0.04: real time    0.09
    CHARGE:  cpu time    2.45: real time    4.91
    MIXING:  cpu time    0.16: real time    0.32
    --------------------------------------------
      LOOP:  cpu time  180.14: real time  360.38

 eigenvalue-minimisations  :  4208
 total energy-change (2. order) :-0.7040143E-03  (-0.1585605E-02)
 number of electron      67.9999999 magnetization 
 augmentation part        0.4431096 magnetization 

 Broyden mixing:
  rms(total) = 0.21848E-01    rms(broyden)= 0.21846E-01
  rms(prec ) = 0.39974E-01
  weight for this iteration     100.00

 eigenvalues of (default mixing * dielectric matrix)
  average eigenvalue GAMMA=   0.8073
  2.0579  1.8731  0.9492  0.5362  0.5362  0.1533  0.1762  0.1762

 Free energy of the ion-electron system (eV)
  ---------------------------------------------------
  alpha Z        PSCENC =        90.96374622
  Ewald energy   TEWEN  =     -1451.11248794
  -Hartree energ DENC   =      -834.80769100
  -exchange      EXHF   =         0.00000000
  -V(xc)+E(xc)   XCENC  =       221.70800211
  PAW double counting   =       832.99587096     -852.03023086
  entropy T*S    EENTRO =         0.00000000
  eigenvalues    EBANDS =      -481.91029817
  atomic energy  EATOM  =      2404.35655786
  ---------------------------------------------------
  free energy    TOTEN  =       -69.83653083 eV

  energy without entropy =      -69.83653083  energy(sigma->0) =      -69.83653083


--------------------------------------------------------------------------------------------------------




----------------------------------------- Iteration    1(  14)  ---------------------------------------


    POTLOK:  cpu time    0.68: real time    1.35
    SETDIJ:  cpu time    0.04: real time    0.09
     EDDAV:  cpu time  171.05: real time  342.20
 BZINTS: Fermi energy: -0.907218; 68.000000 electrons
         Band energy:-481.499124;  BLOECHL correction: -0.040039
       DOS:  cpu time    0.05: real time    0.10
    CHARGE:  cpu time    2.74: real time    5.48
    MIXING:  cpu time    0.17: real time    0.35
    --------------------------------------------
      LOOP:  cpu time  174.74: real time  349.58

 eigenvalue-minimisations  :  4224
 total energy-change (2. order) :-0.3671320E-03  (-0.2927736E-03)
 number of electron      67.9999999 magnetization 
 augmentation part        0.4431516 magnetization 

 Broyden mixing:
  rms(total) = 0.10478E-01    rms(broyden)= 0.10477E-01
  rms(prec ) = 0.19100E-01
  weight for this iteration     100.00

 eigenvalues of (default mixing * dielectric matrix)
  average eigenvalue GAMMA=   0.8539
  2.3195  1.7330  1.1721  0.9034  0.5300  0.5216  0.1761  0.1761  0.1535

 Free energy of the ion-electron system (eV)
  ---------------------------------------------------
  alpha Z        PSCENC =        90.96374622
  Ewald energy   TEWEN  =     -1451.11248794
  -Hartree energ DENC   =      -835.24824414
  -exchange      EXHF   =         0.00000000
  -V(xc)+E(xc)   XCENC  =       221.73686019
  PAW double counting   =       835.73142915     -854.76563511
  entropy T*S    EENTRO =         0.00000000
  eigenvalues    EBANDS =      -481.49912420
  atomic energy  EATOM  =      2404.35655786
  ---------------------------------------------------
  free energy    TOTEN  =       -69.83689796 eV

  energy without entropy =      -69.83689796  energy(sigma->0) =      -69.83689796


--------------------------------------------------------------------------------------------------------




----------------------------------------- Iteration    1(  15)  ---------------------------------------


    POTLOK:  cpu time    0.66: real time    1.33
    SETDIJ:  cpu time    0.10: real time    0.19
     EDDAV:  cpu time  173.08: real time  346.22
 BZINTS: Fermi energy: -0.903966; 68.000000 electrons
         Band energy:-481.219237;  BLOECHL correction: -0.039997
       DOS:  cpu time    0.05: real time    0.09
    CHARGE:  cpu time    2.62: real time    5.24
    MIXING:  cpu time    0.09: real time    0.19
    --------------------------------------------
      LOOP:  cpu time  176.61: real time  353.29

 eigenvalue-minimisations  :  4296
 total energy-change (2. order) :-0.3241135E-03  (-0.8542749E-04)
 number of electron      67.9999999 magnetization 
 augmentation part        0.4428719 magnetization 

 Broyden mixing:
  rms(total) = 0.54129E-02    rms(broyden)= 0.54125E-02
  rms(prec ) = 0.10989E-01
  weight for this iteration     100.00

 eigenvalues of (default mixing * dielectric matrix)
  average eigenvalue GAMMA=   0.8787
  2.5315  1.7805  1.1819  1.1819  0.5561  0.5561  0.4932  0.1535  0.1761  0.1761

 Free energy of the ion-electron system (eV)
  ---------------------------------------------------
  alpha Z        PSCENC =        90.96374622
  Ewald energy   TEWEN  =     -1451.11248794
  -Hartree energ DENC   =      -835.54655850
  -exchange      EXHF   =         0.00000000
  -V(xc)+E(xc)   XCENC  =       221.75549576
  PAW double counting   =       837.03926958     -856.07400791
  entropy T*S    EENTRO =         0.00000000
  eigenvalues    EBANDS =      -481.21923714
  atomic energy  EATOM  =      2404.35655786
  ---------------------------------------------------
  free energy    TOTEN  =       -69.83722207 eV

  energy without entropy =      -69.83722207  energy(sigma->0) =      -69.83722207


--------------------------------------------------------------------------------------------------------




----------------------------------------- Iteration    1(  16)  ---------------------------------------


    POTLOK:  cpu time    0.64: real time    1.28
    SETDIJ:  cpu time    0.06: real time    0.12
     EDDAV:  cpu time  167.83: real time  335.71
 BZINTS: Fermi energy: -0.902349; 68.000000 electrons
         Band energy:-481.110094;  BLOECHL correction: -0.039990
       DOS:  cpu time    0.04: real time    0.10
    CHARGE:  cpu time    2.76: real time    5.51
    MIXING:  cpu time    0.16: real time    0.31
    --------------------------------------------
      LOOP:  cpu time  171.49: real time  343.05

 eigenvalue-minimisations  :  4176
 total energy-change (2. order) :-0.9314678E-04  (-0.2451844E-04)
 number of electron      67.9999999 magnetization 
 augmentation part        0.4427302 magnetization 

 Broyden mixing:
  rms(total) = 0.18654E-02    rms(broyden)= 0.18652E-02
  rms(prec ) = 0.38414E-02
  weight for this iteration     100.00

 eigenvalues of (default mixing * dielectric matrix)
  average eigenvalue GAMMA=   0.9132
  2.6251  1.9105  1.2789  1.2789  0.8151  0.6015  0.5263  0.5035  0.1535  0.1761
  0.1761

 Free energy of the ion-electron system (eV)
  ---------------------------------------------------
  alpha Z        PSCENC =        90.96374622
  Ewald energy   TEWEN  =     -1451.11248794
  -Hartree energ DENC   =      -835.66564447
  -exchange      EXHF   =         0.00000000
  -V(xc)+E(xc)   XCENC  =       221.76474184
  PAW double counting   =       837.61992479     -856.65405995
  entropy T*S    EENTRO =         0.00000000
  eigenvalues    EBANDS =      -481.11009358
  atomic energy  EATOM  =      2404.35655786
  ---------------------------------------------------
  free energy    TOTEN  =       -69.83731522 eV

  energy without entropy =      -69.83731522  energy(sigma->0) =      -69.83731522


--------------------------------------------------------------------------------------------------------




----------------------------------------- Iteration    1(  17)  ---------------------------------------


    POTLOK:  cpu time    0.60: real time    1.19
    SETDIJ:  cpu time    0.08: real time    0.16
     EDDAV:  cpu time  176.70: real time  353.46
 BZINTS: Fermi energy: -0.902017; 68.000000 electrons
         Band energy:-481.099558;  BLOECHL correction: -0.039963
       DOS:  cpu time    0.05: real time    0.10
    CHARGE:  cpu time    2.74: real time    5.47
    MIXING:  cpu time    0.16: real time    0.32
    --------------------------------------------
      LOOP:  cpu time  180.33: real time  360.72

 eigenvalue-minimisations  :  4480
 total energy-change (2. order) :-0.1728042E-04  (-0.4979293E-05)
 number of electron      67.9999999 magnetization 
 augmentation part        0.4427721 magnetization 

 Broyden mixing:
  rms(total) = 0.11794E-02    rms(broyden)= 0.11794E-02
  rms(prec ) = 0.23552E-02
  weight for this iteration     100.00

 eigenvalues of (default mixing * dielectric matrix)
  average eigenvalue GAMMA=   0.9335
  2.7116  2.0286  1.4248  1.4248  0.9287  0.1535  0.1761  0.1761  0.5680  0.5680
  0.4967  0.5452

 Free energy of the ion-electron system (eV)
  ---------------------------------------------------
  alpha Z        PSCENC =        90.96374622
  Ewald energy   TEWEN  =     -1451.11248794
  -Hartree energ DENC   =      -835.67849163
  -exchange      EXHF   =         0.00000000
  -V(xc)+E(xc)   XCENC  =       221.76676945
  PAW double counting   =       837.51735694     -856.55122583
  entropy T*S    EENTRO =         0.00000000
  eigenvalues    EBANDS =      -481.09955758
  atomic energy  EATOM  =      2404.35655786
  ---------------------------------------------------
  free energy    TOTEN  =       -69.83733250 eV

  energy without entropy =      -69.83733250  energy(sigma->0) =      -69.83733250


--------------------------------------------------------------------------------------------------------




----------------------------------------- Iteration    1(  18)  ---------------------------------------


    POTLOK:  cpu time    0.45: real time    0.90
    SETDIJ:  cpu time    0.04: real time    0.09
     EDDAV:  cpu time  171.88: real time  343.84
 BZINTS: Fermi energy: -0.901656; 68.000000 electrons
         Band energy:-481.078541;  BLOECHL correction: -0.039958
       DOS:  cpu time    0.04: real time    0.08
    CHARGE:  cpu time    2.51: real time    5.02
    MIXING:  cpu time    0.17: real time    0.35
    --------------------------------------------
      LOOP:  cpu time  175.12: real time  350.32

 eigenvalue-minimisations  :  4232
 total energy-change (2. order) :-0.8230460E-05  (-0.1590844E-05)
 number of electron      67.9999999 magnetization 
 augmentation part        0.4428058 magnetization 

 Broyden mixing:
  rms(total) = 0.66329E-03    rms(broyden)= 0.66325E-03
  rms(prec ) = 0.13840E-02
  weight for this iteration     100.00

 eigenvalues of (default mixing * dielectric matrix)
  average eigenvalue GAMMA=   0.9707
  2.8635  2.2680  1.6417  1.1995  1.1995  0.8015  0.1535  0.1761  0.1761  0.6138
  0.5172  0.5172  0.4917

 Free energy of the ion-electron system (eV)
  ---------------------------------------------------
  alpha Z        PSCENC =        90.96374622
  Ewald energy   TEWEN  =     -1451.11248794
  -Hartree energ DENC   =      -835.70149236
  -exchange      EXHF   =         0.00000000
  -V(xc)+E(xc)   XCENC  =       221.76881064
  PAW double counting   =       837.38227050     -856.41620484
  entropy T*S    EENTRO =         0.00000000
  eigenvalues    EBANDS =      -481.07854081
  atomic energy  EATOM  =      2404.35655786
  ---------------------------------------------------
  free energy    TOTEN  =       -69.83734073 eV

  energy without entropy =      -69.83734073  energy(sigma->0) =      -69.83734073


--------------------------------------------------------------------------------------------------------




----------------------------------------- Iteration    1(  19)  ---------------------------------------


    POTLOK:  cpu time    0.64: real time    1.26
    SETDIJ:  cpu time    0.06: real time    0.11
     EDDAV:  cpu time  145.59: real time  291.25
 BZINTS: Fermi energy: -0.901410; 68.000000 electrons
         Band energy:-481.059447;  BLOECHL correction: -0.039955
       DOS:  cpu time    0.04: real time    0.08
    --------------------------------------------
      LOOP:  cpu time  146.35: real time  292.75

 eigenvalue-minimisations  :  3328
 total energy-change (2. order) :-0.8878669E-06  (-0.4810804E-06)
 number of electron      67.9999999 magnetization 
 augmentation part        0.4428058 magnetization 

 Free energy of the ion-electron system (eV)
  ---------------------------------------------------
  alpha Z        PSCENC =        90.96374622
  Ewald energy   TEWEN  =     -1451.11248794
  -Hartree energ DENC   =      -835.72193339
  -exchange      EXHF   =         0.00000000
  -V(xc)+E(xc)   XCENC  =       221.77030304
  PAW double counting   =       837.27975076     -856.31383071
  entropy T*S    EENTRO =         0.00000000
  eigenvalues    EBANDS =      -481.05944746
  atomic energy  EATOM  =      2404.35655786
  ---------------------------------------------------
  free energy    TOTEN  =       -69.83734162 eV

  energy without entropy =      -69.83734162  energy(sigma->0) =      -69.83734162


--------------------------------------------------------------------------------------------------------




 average (electrostatic) potential at core
  the test charge radii are     0.6991  0.5201
  (the norm of the test charge is              1.0000)
       1 -56.6452       2 -56.4052       3 -56.5566       4 -56.4148       5 -56.5567
       6 -56.3975       7 -56.2109       8 -56.4942       9 -56.4245      10 -56.3265
      11 -56.6770      12 -56.3806      13 -56.5598      14 -56.1856      15 -56.4817
      16 -56.4253      17 -48.8234      18 -48.7192      19 -48.7505      20 -48.7334
 
 
 
 E-fermi :  -0.9014     XC(G=0):  -8.4214     alpha+bet : -6.8414


 k-point     1 :       0.0000    0.0000    0.0000
  band No.  band energies     occupation 
      1     -23.0454      2.00000
      2     -22.9369      2.00000
      3     -22.9042      2.00000
      4     -22.8843      2.00000
      5      -9.4263      2.00000
      6      -9.3726      2.00000
      7      -9.2919      2.00000
      8      -8.7536      2.00000
      9      -8.7343      2.00000
     10      -8.7013      2.00000
     11      -8.6775      2.00000
     12      -8.6364      2.00000
     13      -8.6104      2.00000
     14      -8.2889      2.00000
     15      -8.2597      2.00000
     16      -8.2349      2.00000
     17      -6.5217      2.00000
     18      -4.4729      2.00000
     19      -4.2106      2.00000
     20      -4.1778      2.00000
     21      -2.9710      2.00000
     22      -2.7797      2.00000
     23      -2.5655      2.00000
     24      -2.3034      2.00000
     25      -2.0938      2.00000
     26      -1.9174      2.00000
     27      -1.8783      2.00000
     28      -1.8369      2.00000
     29      -1.7269      2.00000
     30      -1.3536      2.00000
     31      -1.1231      2.00000
     32      -0.8384      1.55330
     33      -0.7577     -0.50977
     34      -0.6831     -0.30850
     35      -0.5886      0.00000
     36      -0.5369      0.00000
     37      -0.4737      0.00000
     38      -0.4507      0.00000
     39      -0.4283      0.00000
     40      -0.3625      0.00000
     41       4.1010      0.00000
     42       4.1570      0.00000
     43       4.2830      0.00000
     44       4.3798      0.00000
     45       4.4614      0.00000
     46       4.5450      0.00000

 k-point     2 :       0.2500    0.0000    0.0000
  band No.  band energies     occupation 
      1     -23.0439      2.00000
      2     -22.9351      2.00000
      3     -22.9054      2.00000
      4     -22.8863      2.00000
      5      -9.3577      2.00000
      6      -9.2983      2.00000
      7      -9.2072      2.00000
      8      -8.8441      2.00000
      9      -8.8170      2.00000
     10      -8.7238      2.00000
     11      -8.6820      2.00000
     12      -8.6076      2.00000
     13      -8.5690      2.00000
     14      -8.5127      2.00000
     15      -8.3439      2.00000
     16      -8.2923      2.00000
     17      -6.1085      2.00000
     18      -4.6905      2.00000
     19      -4.1045      2.00000
     20      -4.0431      2.00000
     21      -2.9342      2.00000
     22      -2.6420      2.00000
     23      -2.4044      2.00000
     24      -2.3212      2.00000
     25      -2.1962      2.00000
     26      -2.0092      2.00000
     27      -1.7825      2.00000
     28      -1.6621      2.00000
     29      -1.5899      2.00000
     30      -1.4460      2.00000
     31      -1.1247      2.00000
     32      -0.9320      1.96009
     33      -0.8972      1.71244
     34      -0.8246      0.14732
     35      -0.7300     -0.20991
     36      -0.6836      0.00000
     37      -0.6265      0.00000
     38      -0.5959      0.00000
     39      -0.4538      0.00000
     40      -0.4304      0.00000
     41       4.2551      0.00000
     42       4.3286      0.00000
     43       4.4372      0.00000
     44       4.5683      0.00000
     45       4.6428      0.00000
     46       4.7620      0.00000

 k-point     3 :       0.5000    0.0000    0.0000
  band No.  band energies     occupation 
      1     -23.0423      2.00000
      2     -22.9329      2.00000
      3     -22.9072      2.00000
      4     -22.8883      2.00000
      5      -9.2517      2.00000
      6      -9.1557      2.00000
      7      -9.0501      2.00000
      8      -8.9784      2.00000
      9      -8.9409      2.00000
     10      -8.8619      2.00000
     11      -8.7313      2.00000
     12      -8.6786      2.00000
     13      -8.5135      2.00000
     14      -8.4672      2.00000
     15      -8.4521      2.00000
     16      -8.4015      2.00000
     17      -5.4266      2.00000
     18      -5.2185      2.00000
     19      -3.9919      2.00000
     20      -3.8955      2.00000
     21      -2.8884      2.00000
     22      -2.5495      2.00000
     23      -2.4774      2.00000
     24      -2.2409      2.00000
     25      -2.0476      2.00000
     26      -1.8222      2.00000
     27      -1.7863      2.00000
     28      -1.5731      2.00000
     29      -1.4667      2.00000
     30      -1.3518      2.00000
     31      -1.3165      2.00000
     32      -1.1975      2.00000
     33      -1.0091      1.99996
     34      -0.9948      2.10588
     35      -0.9310      1.15565
     36      -0.8635      0.00000
     37      -0.8068      0.00000
     38      -0.6721      0.00000
     39      -0.4718      0.00000
     40      -0.4327      0.00000
     41       4.4153      0.00000
     42       4.4936      0.00000
     43       4.5654      0.00000
     44       4.7752      0.00000
     45       4.8114      0.00000
     46       4.9608      0.00000

 k-point     4 :       0.0000    0.2500    0.0000
  band No.  band energies     occupation 
      1     -23.0439      2.00000
      2     -22.9336      2.00000
      3     -22.9085      2.00000
      4     -22.8847      2.00000
      5      -9.3653      2.00000
      6      -9.2855      2.00000
      7      -9.2111      2.00000
      8      -8.8624      2.00000
      9      -8.7686      2.00000
     10      -8.7245      2.00000
     11      -8.6822      2.00000
     12      -8.6369      2.00000
     13      -8.5837      2.00000
     14      -8.5172      2.00000
     15      -8.3321      2.00000
     16      -8.3037      2.00000
     17      -6.0725      2.00000
     18      -4.5069      2.00000
     19      -4.3123      2.00000
     20      -4.0532      2.00000
     21      -2.8219      2.00000
     22      -2.6500      2.00000
     23      -2.4440      2.00000
     24      -2.3279      2.00000
     25      -2.1128      2.00000
     26      -1.9932      2.00000
     27      -1.8593      2.00000
     28      -1.7681      2.00000
     29      -1.6314      2.00000
     30      -1.4135      2.00000
     31      -1.1504      2.00000
     32      -1.0010      2.00162
     33      -0.8960      1.69994
     34      -0.7863      0.01065
     35      -0.7548     -0.11505
     36      -0.6845      0.00000
     37      -0.6176      0.00000
     38      -0.5670      0.00000
     39      -0.4557      0.00000
     40      -0.4123      0.00000
     41       4.2579      0.00000
     42       4.4236      0.00000
     43       4.4641      0.00000
     44       4.5495      0.00000
     45       4.6843      0.00000
     46       4.7924      0.00000

 k-point     5 :       0.2500    0.2500    0.0000
  band No.  band energies     occupation 
      1     -23.0428      2.00000
      2     -22.9324      2.00000
      3     -22.9082      2.00000
      4     -22.8871      2.00000
      5      -9.3278      2.00000
      6      -9.2292      2.00000
      7      -9.1802      2.00000
      8      -8.9788      2.00000
      9      -8.8007      2.00000
     10      -8.7712      2.00000
     11      -8.7205      2.00000
     12      -8.6100      2.00000
     13      -8.5733      2.00000
     14      -8.5186      2.00000
     15      -8.3872      2.00000
     16      -8.2799      2.00000
     17      -5.8121      2.00000
     18      -4.5701      2.00000
     19      -4.3606      2.00000
     20      -4.1294      2.00000
     21      -2.7657      2.00000
     22      -2.5688      2.00000
     23      -2.3845      2.00000
     24      -2.2442      2.00000
     25      -2.0884      2.00000
     26      -1.8755      2.00000
     27      -1.8182      2.00000
     28      -1.7291      2.00000
     29      -1.5764      2.00000
     30      -1.4070      2.00000
     31      -1.2369      2.00000
     32      -1.0701      2.01789
     33      -0.9282      1.89182
     34      -0.8995      1.19139
     35      -0.8484     -0.01781
     36      -0.7442     -0.01478
     37      -0.6759      0.00000
     38      -0.5943      0.00000
     39      -0.5588      0.00000
     40      -0.4930      0.00000
     41       4.3739      0.00000
     42       4.4145      0.00000
     43       4.5910      0.00000
     44       4.7176      0.00000
     45       4.7357      0.00000
     46       4.8367      0.00000

 k-point     6 :       0.5000    0.2500    0.0000
  band No.  band energies     occupation 
      1     -23.0416      2.00000
      2     -22.9311      2.00000
      3     -22.9076      2.00000
      4     -22.8899      2.00000
      5      -9.2828      2.00000
      6      -9.1623      2.00000
      7      -9.0938      2.00000
      8      -9.0103      2.00000
      9      -8.9952      2.00000
     10      -8.8952      2.00000
     11      -8.6598      2.00000
     12      -8.5753      2.00000
     13      -8.5336      2.00000
     14      -8.5104      2.00000
     15      -8.3951      2.00000
     16      -8.3751      2.00000
     17      -5.2702      2.00000
     18      -5.0683      2.00000
     19      -4.2678      2.00000
     20      -4.1560      2.00000
     21      -2.7282      2.00000
     22      -2.4749      2.00000
     23      -2.3791      2.00000
     24      -2.1439      2.00000
     25      -2.0375      2.00000
     26      -1.8211      2.00000
     27      -1.6999      2.00000
     28      -1.5276      2.00000
     29      -1.4706      2.00000
     30      -1.4074      2.00000
     31      -1.3235      2.00000
     32      -1.1775      2.00000
     33      -1.1063      2.00052
     34      -1.0570      2.19154
     35      -0.9485      1.55367
     36      -0.8477      0.01903
     37      -0.7510      0.00000
     38      -0.6718      0.00000
     39      -0.6000      0.00000
     40      -0.5492      0.00000
     41       4.4915      0.00000
     42       4.6010      0.00000
     43       4.6166      0.00000
     44       4.7323      0.00000
     45       4.8411      0.00000
     46       4.9937      0.00000

 k-point     7 :      -0.2500    0.2500    0.0000
  band No.  band energies     occupation 
      1     -23.0428      2.00000
      2     -22.9324      2.00000
      3     -22.9082      2.00000
      4     -22.8871      2.00000
      5      -9.3356      2.00000
      6      -9.2279      2.00000
      7      -9.1821      2.00000
      8      -8.9530      2.00000
      9      -8.8046      2.00000
     10      -8.7495      2.00000
     11      -8.7056      2.00000
     12      -8.6187      2.00000
     13      -8.5882      2.00000
     14      -8.5392      2.00000
     15      -8.4032      2.00000
     16      -8.2800      2.00000
     17      -5.7891      2.00000
     18      -4.6325      2.00000
     19      -4.3272      2.00000
     20      -4.0885      2.00000
     21      -2.7931      2.00000
     22      -2.4954      2.00000
     23      -2.4023      2.00000
     24      -2.2085      2.00000
     25      -2.1170      2.00000
     26      -2.0693      2.00000
     27      -1.7961      2.00000
     28      -1.6201      2.00000
     29      -1.5493      2.00000
     30      -1.4423      2.00000
     31      -1.1321      2.00000
     32      -1.0802      2.00000
     33      -1.0331      2.01003
     34      -0.8534      0.78589
     35      -0.8262     -0.18669
     36      -0.7868      0.00000
     37      -0.6587      0.00000
     38      -0.5924      0.00000
     39      -0.5754      0.00000
     40      -0.5277      0.00000
     41       4.3394      0.00000
     42       4.4879      0.00000
     43       4.5395      0.00000
     44       4.6136      0.00000
     45       4.8188      0.00000
     46       4.9013      0.00000

 k-point     8 :       0.0000    0.5000    0.0000
  band No.  band energies     occupation 
      1     -23.0425      2.00000
      2     -22.9282      2.00000
      3     -22.9151      2.00000
      4     -22.8849      2.00000
      5      -9.2638      2.00000
      6      -9.0946      2.00000
      7      -9.0782      2.00000
      8      -9.0210      2.00000
      9      -8.8967      2.00000
     10      -8.8672      2.00000
     11      -8.7390      2.00000
     12      -8.6932      2.00000
     13      -8.5181      2.00000
     14      -8.4844      2.00000
     15      -8.4529      2.00000
     16      -8.4042      2.00000
     17      -5.2897      2.00000
     18      -5.1345      2.00000
     19      -4.2074      2.00000
     20      -3.8993      2.00000
     21      -2.6905      2.00000
     22      -2.4742      2.00000
     23      -2.4537      2.00000
     24      -2.2946      2.00000
     25      -2.0269      2.00000
     26      -1.9837      2.00000
     27      -1.8563      2.00000
     28      -1.6860      2.00000
     29      -1.5065      2.00000
     30      -1.4111      2.00000
     31      -1.2538      2.00000
     32      -1.2011      2.00000
     33      -1.1329      2.00050
     34      -1.0011      2.05036
     35      -0.8663     -0.07496
     36      -0.8003      0.00000
     37      -0.7819      0.00000
     38      -0.7262      0.00000
     39      -0.4651      0.00000
     40      -0.4135      0.00000
     41       4.4657      0.00000
     42       4.6414      0.00000
     43       4.6735      0.00000
     44       4.7812      0.00000
     45       4.9485      0.00000
[...]
     6.307381169  0.000000000  0.000000000     0.158544406  0.000000000  0.000000000
     0.000000000  6.307381169  0.000000000     0.000000000  0.158544406  0.000000000
     0.000000000  0.000000000  6.307381169     0.000000000  0.000000000  0.158544406

  length of vectors
     6.307381169  6.307381169  6.307381169     0.158544406  0.158544406  0.158544406


 FORCES acting on ions
    electron-ion (+dipol)            ewald-force                    non-local-force                 convergence-correction
 -----------------------------------------------------------------------------------------------
   -.494E+01 0.101E+02 0.274E+02   0.770E+01 -.119E+02 -.288E+02   -.533E+01 0.284E+01 0.232E+01   -.571E-03 -.525E-03 0.914E-03
   0.226E+02 0.786E+02 0.124E+02   -.260E+02 -.911E+02 -.124E+02   0.290E+01 0.145E+02 0.113E+01   0.393E-03 0.890E-03 -.598E-03
   0.540E+02 -.102E+03 -.442E+02   -.582E+02 0.114E+03 0.507E+02   0.633E+01 -.115E+02 -.710E+01   -.126E-03 -.727E-03 -.467E-03
   -.208E+02 0.448E+02 -.796E+02   0.204E+02 -.482E+02 0.888E+02   0.113E+01 0.527E+01 -.502E+01   0.332E-03 -.981E-03 -.139E-02
   0.501E+02 0.145E+02 0.756E+02   -.581E+02 -.162E+02 -.798E+02   0.213E+01 0.161E+01 0.214E+01   -.414E-03 0.378E-03 -.374E-03
   -.750E+02 -.221E+02 0.116E+01   0.839E+02 0.271E+02 -.256E+01   -.109E+02 -.691E+01 0.330E+01   -.460E-03 -.514E-03 0.172E-03
   0.201E+02 -.260E+02 -.111E+01   -.196E+02 0.308E+02 0.184E+01   -.134E+01 -.700E+01 -.822E+00   0.482E-03 -.301E-03 -.418E-03
   -.335E+01 -.142E+02 0.562E+02   0.282E+01 0.145E+02 -.645E+02   0.101E+01 -.100E+00 0.130E+02   -.364E-03 -.325E-03 0.292E-04
   -.827E+01 0.210E+01 0.134E+03   0.745E+01 -.833E+00 -.149E+03   0.115E+01 -.525E+00 0.108E+02   0.307E-03 -.104E-02 0.236E-02
   -.485E+02 -.430E+01 -.342E+02   0.501E+02 0.579E+01 0.380E+02   -.363E+01 -.272E+01 -.659E+01   0.527E-03 -.799E-03 0.248E-03
   -.137E+03 -.267E+02 -.449E+02   0.147E+03 0.284E+02 0.506E+02   -.721E+01 -.401E+01 -.130E+01   0.843E-03 0.349E-03 -.828E-04
   0.361E+02 0.825E+01 -.860E+02   -.403E+02 -.133E+02 0.978E+02   0.522E+01 0.636E+01 -.141E+02   -.435E-03 0.482E-03 -.153E-03
   0.266E+02 0.311E+02 0.255E+02   -.280E+02 -.353E+02 -.264E+02   0.304E+01 0.156E+01 -.655E+00   -.163E-03 -.124E-02 -.325E-03
   0.701E+02 0.426E+02 0.103E+02   -.798E+02 -.490E+02 -.121E+02   0.139E+02 0.830E+01 0.184E+01   -.503E-03 0.680E-04 0.585E-03
   0.660E+02 -.601E+02 -.155E+02   -.700E+02 0.674E+02 0.135E+02   0.539E+01 -.788E+01 0.493E+00   -.514E-03 0.194E-04 0.892E-03
   -.463E+02 0.288E+02 -.321E+02   0.525E+02 -.358E+02 0.369E+02   -.799E+01 0.100E+02 -.679E+01   0.741E-03 -.124E-03 0.544E-03
   0.375E+01 0.160E+01 0.579E+01   -.443E+01 -.227E+01 -.605E+01   -.189E+00 -.170E+00 0.938E-01   -.326E-03 -.863E-06 -.313E-04
   -.852E+01 -.203E+01 0.736E+01   0.912E+01 0.211E+01 -.720E+01   0.761E-01 -.166E-01 0.777E-01   -.103E-03 0.150E-03 -.106E-03
   -.158E+02 -.615E+01 -.108E+02   0.161E+02 0.599E+01 0.112E+02   -.156E+00 -.424E-01 -.914E-01   0.410E-04 0.234E-04 0.122E-03
   0.128E+02 -.842E+01 0.682E-01   -.124E+02 0.729E+01 -.898E+00   0.276E+00 -.532E+00 -.196E+00   0.361E-05 -.267E-04 0.857E-04
 -----------------------------------------------------------------------------------------------
   -.582E+01 -.907E+01 0.741E+01   0.426E-13 0.888E-14 -.107E-13   0.582E+01 0.907E+01 -.741E+01   -.311E-03 -.424E-02 0.200E-02
 
 
 POSITION                                       TOTAL-FORCE (eV/Angst)
 -----------------------------------------------------------------------------------
      4.38651      3.29212      2.07310        -2.551488      1.087293      1.061724
      3.81699      5.01763      4.85633        -0.482322      2.082543      1.162867
      4.06374      1.36767      5.39762         2.080875      1.356993     -0.635282
      1.06561      3.24765      0.25690         0.797594      1.741463      4.095247
      5.75834      1.30398      1.57508        -5.405078     -0.183678     -2.072547
      5.59981      0.92271      4.48297        -2.007939     -1.825863      1.923356
      2.12519      5.57510     -0.02422        -0.893226     -2.119555     -0.058647
      5.13816      4.44623      0.74056         0.673799      0.308233      4.432703
      1.08974      3.42675      5.32206         0.314716      0.737007     -3.676577
      0.40533      4.81741      1.68316        -1.958574     -1.197237     -2.746650
      0.48429      1.32091      2.25005         2.792762     -2.142425      4.237221
      4.09526      3.03638      3.52508         1.062530      1.223825     -2.197393
      4.14532      0.12426      4.90815         1.606587     -2.590212     -1.544416
      3.75586      1.65219      1.58410         3.770058      1.732281     -0.033175
      3.66476      4.79487      2.10478         1.191977     -0.426216     -1.488643
      0.77963      6.18268      3.48985        -1.633841      2.851471     -1.845371
      3.19580      3.13118     -0.01094        -0.861249     -0.840241     -0.162057
      0.01833      6.28981      0.04424         0.672100      0.055252      0.228149
      6.27841      3.18561      3.25895         0.161352     -0.203401      0.338085
      3.10651     -0.00405      2.97328         0.669369     -1.647533     -1.018594
 -----------------------------------------------------------------------------------
    total drift:                                0.000067      0.000190     -0.000140


--------------------------------------------------------------------------------------------------------



  FREE ENERGIE OF THE ION-ELECTRON SYSTEM (eV)
  ---------------------------------------------------
  free  energy   TOTEN  =       -98.80502479 eV

  energy  without entropy=      -98.80502479  energy(sigma->0) =      -98.80502479
 
 d Force = 0.6133564E+01[-0.784E+00, 0.131E+02]  d Energy = 0.4749272E+01 0.138E+01
 d Force = 0.1201418E+03[ 0.101E+03, 0.139E+03]  d Ewald  = 0.1202827E+03-0.141E+00


--------------------------------------------------------------------------------------------------------


    POTLOK:  cpu time    0.67: real time    1.33


--------------------------------------------------------------------------------------------------------




--------------------------------------------------------------------------------------------------------


    WAVPRE:  cpu time    0.03: real time    0.05
 FEWALD executed in parallel
    FEWALD:  cpu time    0.03: real time    0.05
    ORTHCH:  cpu time    5.08: real time   10.17
     LOOP+:  cpu time 2623.10: real time 5247.25


----------------------------------------- Iteration   16(   1)  ---------------------------------------


    POTLOK:  cpu time    0.65: real time    1.30
    SETDIJ:  cpu time    0.07: real time    0.15
     EDDAV:  cpu time  145.84: real time  291.73
 BZINTS: Fermi energy: -0.091044; 68.000000 electrons
         Band energy:-459.080100;  BLOECHL correction:  0.000000
       DOS:  cpu time    0.01: real time    0.03
    CHARGE:  cpu time    2.80: real time    5.61
    MIXING:  cpu time    0.07: real time    0.14
    --------------------------------------------
      LOOP:  cpu time  149.46: real time  298.96

 eigenvalue-minimisations  :  3312
 total energy-change (2. order) : 0.5674089E+01  (-0.2065009E+03)
 number of electron      68.0000001 magnetization 
 augmentation part        0.5850664 magnetization 

 Broyden mixing:
  rms(total) = 0.12278E+01    rms(broyden)= 0.12275E+01
  rms(prec ) = 0.24910E+01
  weight for this iteration     100.00

 Free energy of the ion-electron system (eV)
  ---------------------------------------------------
  alpha Z        PSCENC =        90.96374622
  Ewald energy   TEWEN  =     -1520.49012517
  -Hartree energ DENC   =      -804.46908071
  -exchange      EXHF   =         0.00000000
  -V(xc)+E(xc)   XCENC  =       216.97823549
  PAW double counting   =       757.04417622     -775.78974393
  entropy T*S    EENTRO =         0.00000000
  eigenvalues    EBANDS =      -459.08009965
  atomic energy  EATOM  =      2404.35655786
  ---------------------------------------------------
  free energy    TOTEN  =       -90.48633367 eV

  energy without entropy =      -90.48633367  energy(sigma->0) =      -90.48633367


--------------------------------------------------------------------------------------------------------




----------------------------------------- Iteration   16(   2)  ---------------------------------------


    POTLOK:  cpu time    0.54: real time    1.07
    SETDIJ:  cpu time    0.06: real time    0.11
     EDDAV:  cpu time  178.37: real time  356.83
 BZINTS: Fermi energy: -0.513425; 68.000000 electrons
         Band energy:-468.625212;  BLOECHL correction: -0.021032
       DOS:  cpu time    0.04: real time    0.08
    CHARGE:  cpu time    3.04: real time    6.08
    MIXING:  cpu time    0.09: real time    0.19
    --------------------------------------------
      LOOP:  cpu time  182.17: real time  364.41

 eigenvalue-minimisations  :  4512
 total energy-change (2. order) :-0.1037041E+02  (-0.1643389E+02)
 number of electron      68.0000002 magnetization 
 augmentation part        0.7946302 magnetization 

 Broyden mixing:
  rms(total) = 0.10281E+01    rms(broyden)= 0.10280E+01
  rms(prec ) = 0.18961E+01
  weight for this iteration     100.00

 eigenvalues of (default mixing * dielectric matrix)
  average eigenvalue GAMMA=   0.5987
  0.5987

 Free energy of the ion-electron system (eV)
  ---------------------------------------------------
  alpha Z        PSCENC =        90.96374622
  Ewald energy   TEWEN  =     -1520.49012517
  -Hartree energ DENC   =      -805.55270091
  -exchange      EXHF   =         0.00000000
  -V(xc)+E(xc)   XCENC  =       216.81537932
  PAW double counting   =       795.28918176     -813.61357292
  entropy T*S    EENTRO =         0.00000000
  eigenvalues    EBANDS =      -468.62521247
  atomic energy  EATOM  =      2404.35655786
  ---------------------------------------------------
  free energy    TOTEN  =      -100.85674631 eV

  energy without entropy =     -100.85674631  energy(sigma->0) =     -100.85674631


--------------------------------------------------------------------------------------------------------




----------------------------------------- Iteration   16(   3)  ---------------------------------------


    POTLOK:  cpu time    0.60: real time    1.20
    SETDIJ:  cpu time    0.07: real time    0.14
     EDDAV:  cpu time  174.93: real time  349.91
 BZINTS: Fermi energy: -0.286031; 68.000000 electrons
         Band energy:-450.619811;  BLOECHL correction: -0.008235
       DOS:  cpu time    0.05: real time    0.10
    CHARGE:  cpu time    3.19: real time    6.39
    MIXING:  cpu time    0.13: real time    0.26
    --------------------------------------------
      LOOP:  cpu time  179.00: real time  358.06

 eigenvalue-minimisations  :  4360
 total energy-change (2. order) : 0.1338733E+01  (-0.1249439E+01)
 number of electron      68.0000001 magnetization 
 augmentation part        0.7852471 magnetization 

 Broyden mixing:
  rms(total) = 0.63598E+00    rms(broyden)= 0.63596E+00
  rms(prec ) = 0.10061E+01
  weight for this iteration     100.00

 eigenvalues of (default mixing * dielectric matrix)
  average eigenvalue GAMMA=   0.9342
  0.9342  0.9342

 Free energy of the ion-electron system (eV)
  ---------------------------------------------------
  alpha Z        PSCENC =        90.96374622
  Ewald energy   TEWEN  =     -1520.49012517
  -Hartree energ DENC   =      -822.80651646
  -exchange      EXHF   =         0.00000000
  -V(xc)+E(xc)   XCENC  =       217.87010390
  PAW double counting   =       831.09699190     -849.88896104
  entropy T*S    EENTRO =         0.00000000
  eigenvalues    EBANDS =      -450.61981081
  atomic energy  EATOM  =      2404.35655786
  ---------------------------------------------------
  free energy    TOTEN  =       -99.51801360 eV

  energy without entropy =      -99.51801360  energy(sigma->0) =      -99.51801360


--------------------------------------------------------------------------------------------------------




----------------------------------------- Iteration   16(   4)  ---------------------------------------


    POTLOK:  cpu time    0.60: real time    1.18
    SETDIJ:  cpu time    0.08: real time    0.16
     EDDAV:  cpu time  178.94: real time  357.94
 BZINTS: Fermi energy: -0.137272; 68.000000 electrons
         Band energy:-435.015241;  BLOECHL correction: -0.016761
       DOS:  cpu time    0.04: real time    0.09
    CHARGE:  cpu time    3.19: real time    6.38
    MIXING:  cpu time    0.06: real time    0.12
    --------------------------------------------
      LOOP:  cpu time  182.92: real time  365.91

 eigenvalue-minimisations  :  4244
 total energy-change (2. order) : 0.6109305E+00  (-0.3018692E+00)
 number of electron      68.0000001 magnetization 
 augmentation part        0.7538659 magnetization 

 Broyden mixing:
  rms(total) = 0.36359E+00    rms(broyden)= 0.36358E+00
  rms(prec ) = 0.63071E+00
  weight for this iteration     100.00

 eigenvalues of (default mixing * dielectric matrix)
  average eigenvalue GAMMA=   1.0387
  1.6591  0.9406  0.5164

 Free energy of the ion-electron system (eV)
  ---------------------------------------------------
  alpha Z        PSCENC =        90.96374622
  Ewald energy   TEWEN  =     -1520.49012517
  -Hartree energ DENC   =      -838.39472838
  -exchange      EXHF   =         0.00000000
  -V(xc)+E(xc)   XCENC  =       218.92730326
  PAW double counting   =       864.95679101     -884.21138697
  entropy T*S    EENTRO =         0.00000000
  eigenvalues    EBANDS =      -435.01524089
  atomic energy  EATOM  =      2404.35655786
  ---------------------------------------------------
  free energy    TOTEN  =       -98.90708307 eV

  energy without entropy =      -98.90708307  energy(sigma->0) =      -98.90708307


--------------------------------------------------------------------------------------------------------




----------------------------------------- Iteration   16(   5)  ---------------------------------------


    POTLOK:  cpu time    0.47: real time    0.93
    SETDIJ:  cpu time    0.03: real time    0.06
     EDDAV:  cpu time  173.81: real time  347.68
 BZINTS: Fermi energy: -0.003390; 68.000000 electrons
         Band energy:-427.278766;  BLOECHL correction: -0.017207
       DOS:  cpu time    0.04: real time    0.10
    CHARGE:  cpu time    3.64: real time    7.28
    MIXING:  cpu time    0.12: real time    0.23
    --------------------------------------------
      LOOP:  cpu time  178.13: real time  356.34

 eigenvalue-minimisations  :  4120
 total energy-change (2. order) : 0.1893675E+00  (-0.1301459E+00)
 number of electron      68.0000001 magnetization 
 augmentation part        0.7441307 magnetization 

 Broyden mixing:
  rms(total) = 0.15007E+00    rms(broyden)= 0.15005E+00
  rms(prec ) = 0.26516E+00
  weight for this iteration     100.00

 eigenvalues of (default mixing * dielectric matrix)
  average eigenvalue GAMMA=   1.0130
  1.9325  0.8174  0.8174  0.4847

 Free energy of the ion-electron system (eV)
  ---------------------------------------------------
  alpha Z        PSCENC =        90.96374622
  Ewald energy   TEWEN  =     -1520.49012517
  -Hartree energ DENC   =      -846.35029029
  -exchange      EXHF   =         0.00000000
  -V(xc)+E(xc)   XCENC  =       219.62563567
  PAW double counting   =       887.23059986     -906.77507387
  entropy T*S    EENTRO =         0.00000000
  eigenvalues    EBANDS =      -427.27876581
  atomic energy  EATOM  =      2404.35655786
  ---------------------------------------------------
  free energy    TOTEN  =       -98.71771553 eV

  energy without entropy =      -98.71771553  energy(sigma->0) =      -98.71771553


--------------------------------------------------------------------------------------------------------




----------------------------------------- Iteration   16(   6)  ---------------------------------------


    POTLOK:  cpu time    0.60: real time    1.20
    SETDIJ:  cpu time    0.04: real time    0.08
     EDDAV:  cpu time  172.85: real time  345.75
 BZINTS: Fermi energy:  0.010993; 68.000000 electrons
         Band energy:-425.630761;  BLOECHL correction: -0.016209
       DOS:  cpu time    0.04: real time    0.08
    CHARGE:  cpu time    3.28: real time    6.57
    MIXING:  cpu time    0.14: real time    0.27
    --------------------------------------------
      LOOP:  cpu time  176.96: real time  354.00

 eigenvalue-minimisations  :  4168
 total energy-change (2. order) : 0.2372600E-01  (-0.2645737E-01)
 number of electron      68.0000001 magnetization 
 augmentation part        0.7367685 magnetization 

 Broyden mixing:
  rms(total) = 0.65678E-01    rms(broyden)= 0.65672E-01
  rms(prec ) = 0.10654E+00
  weight for this iteration     100.00

 eigenvalues of (default mixing * dielectric matrix)
  average eigenvalue GAMMA=   1.0449
  2.0513  1.0329  1.0329  0.6305  0.4767

 Free energy of the ion-electron system (eV)
  ---------------------------------------------------
  alpha Z        PSCENC =        90.96374622
  Ewald energy   TEWEN  =     -1520.49012517
  -Hartree energ DENC   =      -848.08166957
  -exchange      EXHF   =         0.00000000
  -V(xc)+E(xc)   XCENC  =       219.79999306
  PAW double counting   =       893.25788574     -912.86961631
  entropy T*S    EENTRO =         0.00000000
  eigenvalues    EBANDS =      -425.63076136
  atomic energy  EATOM  =      2404.35655786
  ---------------------------------------------------
  free energy    TOTEN  =       -98.69398952 eV

  energy without entropy =      -98.69398952  energy(sigma->0) =      -98.69398952


--------------------------------------------------------------------------------------------------------




----------------------------------------- Iteration   16(   7)  ---------------------------------------


    POTLOK:  cpu time    0.55: real time    1.10
    SETDIJ:  cpu time    0.06: real time    0.12
     EDDAV:  cpu time  182.29: real time  364.65
 BZINTS: Fermi energy:  0.016082; 68.000000 electrons
         Band energy:-425.892473;  BLOECHL correction: -0.016416
       DOS:  cpu time    0.04: real time    0.08
    CHARGE:  cpu time    2.50: real time    4.99
    MIXING:  cpu time    0.15: real time    0.30
    --------------------------------------------
      LOOP:  cpu time  185.60: real time  371.28

 eigenvalue-minimisations  :  4472
 total energy-change (2. order) : 0.1110300E-02  (-0.4266123E-02)
 number of electron      68.0000001 magnetization 
 augmentation part        0.7366677 magnetization 

 Broyden mixing:
  rms(total) = 0.32715E-01    rms(broyden)= 0.32713E-01
  rms(prec ) = 0.55180E-01
  weight for this iteration     100.00

 eigenvalues of (default mixing * dielectric matrix)
  average eigenvalue GAMMA=   1.0430
  2.1476  1.1569  1.1569  0.6587  0.6587  0.4791

 Free energy of the ion-electron system (eV)
  ---------------------------------------------------
  alpha Z        PSCENC =        90.96374622
  Ewald energy   TEWEN  =     -1520.49012517
  -Hartree energ DENC   =      -847.85043574
  -exchange      EXHF   =         0.00000000
  -V(xc)+E(xc)   XCENC  =       219.83423668
  PAW double counting   =       894.80885103     -914.42323727
  entropy T*S    EENTRO =         0.00000000
  eigenvalues    EBANDS =      -425.89247284
  atomic energy  EATOM  =      2404.35655786
  ---------------------------------------------------
  free energy    TOTEN  =       -98.69287922 eV

  energy without entropy =      -98.69287922  energy(sigma->0) =      -98.69287922


--------------------------------------------------------------------------------------------------------




----------------------------------------- Iteration   16(   8)  ---------------------------------------


    POTLOK:  cpu time    0.55: real time    1.10
    SETDIJ:  cpu time    0.07: real time    0.14
