 vasp.5.3.5 31Mar14 (build Nov 02 2014 15:17:37) complex                        
  
 executed on        ion-Intel-MKL date 2017.02.12  19:10:04
 running on    6 total cores
 distrk:  each k-point on    6 cores,    1 groups
 distr:  one band on NCORES_PER_BAND=   3 cores,    2 groups


--------------------------------------------------------------------------------------------------------


 INCAR:
 POTCAR:   PAW_PBE C 08Apr2002                    
 POTCAR:   PAW_PBE C 08Apr2002                    
   VRHFIN =C: s2p2                                                              
   LEXCH  = PE                                                                  
   EATOM  =   147.1560 eV,   10.8157 Ry                                         
                                                                                
   TITEL  = PAW_PBE C 08Apr2002                                                 
   LULTRA =        F    use ultrasoft PP ?                                      
   IUNSCR =        0    unscreen: 0-lin 1-nonlin 2-no                           
   RPACOR =     .000    partial core radius                                     
   POMASS =   12.011; ZVAL   =    4.000    mass and valenz                      
   RCORE  =    1.500    outmost cutoff radius                                   
   RWIGS  =    1.630; RWIGS  =     .863    wigner-seitz radius (au A)           
   ENMAX  =  400.000; ENMIN  =  300.000 eV                                      
   ICORE  =        2    local potential                                         
   LCOR   =        T    correct aug charges                                     
   LPAW   =        T    paw PP                                                  
   EAUG   =  644.873                                                            
   DEXC   =     .000                                                            
   RMAX   =    2.266    core radius for proj-oper                               
   RAUG   =    1.300    factor for augmentation sphere                          
   RDEP   =    1.501    radius for radial grids                                 
   RDEPT  =    1.300    core radius for aug-charge                              
   QCUT   =   -5.516; QGAM   =   11.032    optimization parameters              
                                                                                
   Description                                                                  
     l     E      TYP  RCUT    TYP  RCUT                                        
     0   .000     23  1.200                                                     
     0   .000     23  1.200                                                     
     1   .000     23  1.500                                                     
     1  2.500     23  1.500                                                     
     2   .000      7  1.500                                                     
  local pseudopotential read in
  atomic valenz-charges read in
  non local Contribution for L=           0  read in
    real space projection operators read in
  non local Contribution for L=           0  read in
    real space projection operators read in
  non local Contribution for L=           1  read in
    real space projection operators read in
  non local Contribution for L=           1  read in
    real space projection operators read in
    PAW grid and wavefunctions read in
 
   number of l-projection  operators is LMAX  =           4
   number of lm-projection operators is LMMAX =           8
 
 PAW_PBE C 08Apr2002                    :
 energy of atom  1       EATOM= -147.1560
 kinetic energy error for atom=    0.0016 (will be added to EATOM!!)
 
 
 POSCAR: cubic diamond    comment line           
  positions in direct lattice
  No initial velocities read in
 exchange correlation table for  LEXCH =        8
   RHO(1)=    0.500       N(1)  =     2000
   RHO(2)=  100.500       N(2)  =     4000
 


--------------------------------------------------------------------------------------------------------


 ion  position               nearest neighbor table
   1  0.000  0.000  0.000-   2 1.59   2 1.59   2 1.59   2 1.59
   2  0.250  0.250  0.250-   1 1.59   1 1.59   1 1.59   1 1.59
 
  LATTYP: Found a face centered cubic cell.
 ALAT       =     3.6751670480
  
  Lattice vectors:
  
 A1 = (   2.5987355417,   0.0000000000,   0.0000000000)
 A2 = (   1.2993677708,   2.2505709969,   0.0000000000)
 A3 = (   1.2993677708,   0.7501903323,   2.1218586845)


Analysis of symmetry for initial positions (statically):
=====================================================================
 Subroutine PRICEL returns:
 Original cell was already a primitive cell.
 

 Routine SETGRP: Setting up the symmetry group for a 
 face centered cubic supercell.


 Subroutine GETGRP returns: Found 48 space group operations
 (whereof 24 operations were pure point group operations)
 out of a pool of 48 trial point group operations.


The static configuration has the point symmetry T_d .
 The point group associated with its full space group is O_h .


Analysis of symmetry for dynamics (positions and initial velocities):
=====================================================================
 Subroutine PRICEL returns:
 Original cell was already a primitive cell.
 

 Routine SETGRP: Setting up the symmetry group for a 
 face centered cubic supercell.


 Subroutine GETGRP returns: Found 48 space group operations
 (whereof 24 operations were pure point group operations)
 out of a pool of 48 trial point group operations.


The dynamic configuration has the point symmetry T_d .
 The point group associated with its full space group is O_h .
 
 
 KPOINTS: B4C B11C-CBC                            

Automatic generation of k-mesh.
Space group operators:
 irot       det(A)        alpha          n_x          n_y          n_z        tau_x        tau_y        tau_z
    1     1.000000     0.000000     1.000000     0.000000     0.000000     0.000000     0.000000     0.000000
    2     1.000000   120.000000    -0.816497    -0.471405    -0.333333     0.000000     0.000000     0.000000
    3     1.000000   120.000000     0.816497     0.471405     0.333333     0.000000     0.000000     0.000000
    4    -1.000000    90.000000    -0.707107    -0.408248     0.577350     0.000000     0.000000     0.000000
    5    -1.000000   180.000000     1.000000     0.000000     0.000000     0.000000     0.000000     0.000000
    6    -1.000000    90.000000     0.707107    -0.408248     0.577350     0.000000     0.000000     0.000000
    7     1.000000   179.999999     0.707107     0.408248    -0.577350     0.000000     0.000000     0.000000
    8     1.000000   120.000000     0.816497    -0.471405    -0.333333     0.000000     0.000000     0.000000
    9     1.000000   120.000000    -0.000000    -0.942809     0.333333     0.000000     0.000000     0.000000
   10    -1.000000    90.000000     0.707107     0.408248    -0.577350     0.000000     0.000000     0.000000
   11    -1.000000    90.000000     0.000000    -0.816497    -0.577350     0.000000     0.000000     0.000000
   12    -1.000000   180.000000     0.500000     0.866025     0.000000     0.000000     0.000000     0.000000
   13     1.000000   120.000000    -0.000000     0.942809    -0.333333     0.000000     0.000000     0.000000
   14     1.000000   120.000000    -0.000000     0.000000    -1.000000     0.000000     0.000000     0.000000
   15     1.000000   180.000000     0.000000    -0.816497    -0.577350     0.000000     0.000000     0.000000
   16    -1.000000    90.000000    -0.707107     0.408248    -0.577350     0.000000     0.000000     0.000000
   17    -1.000000   180.000000     0.500000     0.288675     0.816497     0.000000     0.000000     0.000000
   18    -1.000000    90.000000     0.000000     0.816497     0.577350     0.000000     0.000000     0.000000
   19     1.000000   120.000000    -0.816497     0.471405     0.333333     0.000000     0.000000     0.000000
   20     1.000000   180.000000    -0.707107     0.408248    -0.577350     0.000000     0.000000     0.000000
   21     1.000000   120.000000    -0.000000     0.000000     1.000000     0.000000     0.000000     0.000000
   22    -1.000000   180.000000     0.000000    -0.577350     0.816497     0.000000     0.000000     0.000000
   23    -1.000000   180.000000    -0.500000     0.866025     0.000000     0.000000     0.000000     0.000000
   24    -1.000000   180.000000    -0.500000     0.288675     0.816497     0.000000     0.000000     0.000000
   25    -1.000000     0.000000     1.000000     0.000000     0.000000     0.250000     0.250000     0.250000
   26    -1.000000   120.000000    -0.816497    -0.471405    -0.333333     0.250000     0.250000     0.250000
   27    -1.000000   120.000000     0.816497     0.471405     0.333333     0.250000     0.250000     0.250000
   28     1.000000    90.000000    -0.707107    -0.408248     0.577350     0.250000     0.250000     0.250000
   29     1.000000   180.000000     1.000000     0.000000     0.000000     0.250000     0.250000     0.250000
   30     1.000000    90.000000     0.707107    -0.408248     0.577350     0.250000     0.250000     0.250000
   31    -1.000000   179.999999     0.707107     0.408248    -0.577350     0.250000     0.250000     0.250000
   32    -1.000000   120.000000     0.816497    -0.471405    -0.333333     0.250000     0.250000     0.250000
   33    -1.000000   120.000000    -0.000000    -0.942809     0.333333     0.250000     0.250000     0.250000
   34     1.000000    90.000000     0.707107     0.408248    -0.577350     0.250000     0.250000     0.250000
   35     1.000000    90.000000     0.000000    -0.816497    -0.577350     0.250000     0.250000     0.250000
   36     1.000000   180.000000     0.500000     0.866025     0.000000     0.250000     0.250000     0.250000
   37    -1.000000   120.000000    -0.000000     0.942809    -0.333333     0.250000     0.250000     0.250000
   38    -1.000000   120.000000    -0.000000     0.000000    -1.000000     0.250000     0.250000     0.250000
   39    -1.000000   180.000000     0.000000    -0.816497    -0.577350     0.250000     0.250000     0.250000
   40     1.000000    90.000000    -0.707107     0.408248    -0.577350     0.250000     0.250000     0.250000
   41     1.000000   180.000000     0.500000     0.288675     0.816497     0.250000     0.250000     0.250000
   42     1.000000    90.000000     0.000000     0.816497     0.577350     0.250000     0.250000     0.250000
   43    -1.000000   120.000000    -0.816497     0.471405     0.333333     0.250000     0.250000     0.250000
   44    -1.000000   180.000000    -0.707107     0.408248    -0.577350     0.250000     0.250000     0.250000
   45    -1.000000   120.000000    -0.000000     0.000000     1.000000     0.250000     0.250000     0.250000
   46     1.000000   180.000000     0.000000    -0.577350     0.816497     0.250000     0.250000     0.250000
   47     1.000000   180.000000    -0.500000     0.866025     0.000000     0.250000     0.250000     0.250000
   48     1.000000   180.000000    -0.500000     0.288675     0.816497     0.250000     0.250000     0.250000
 
 Subroutine IBZKPT returns following result:
 ===========================================
 
 Found    194 irreducible k-points:
 
 Following reciprocal coordinates:
            Coordinates               Weight
  0.000000  0.000000  0.000000      1.000000
  0.083333  0.000000  0.000000      4.000000
  0.166667 -0.000000 -0.000000      4.000000
  0.250000  0.000000 -0.000000      8.000000
  0.333333  0.000000  0.000000      4.000000
  0.416667  0.000000 -0.000000      4.000000
  0.500000  0.000000 -0.000000      4.000000
  0.083333  0.083333 -0.000000      2.000000
  0.166667  0.083333 -0.000000      4.000000
  0.250000  0.083333 -0.000000     12.000000
  0.333333  0.083333  0.000000      8.000000
  0.416667  0.083333 -0.000000      4.000000
  0.500000  0.083333 -0.000000     12.000000
 -0.416667  0.083333 -0.000000      8.000000
 -0.333333  0.083333 -0.000000      4.000000
 -0.250000  0.083333  0.000000     12.000000
 -0.166667  0.083333  0.000000      8.000000
 -0.083333  0.083333 -0.000000      2.000000
  0.166667  0.166667  0.000000      2.000000
  0.250000  0.166667 -0.000000     12.000000
  0.333333  0.166667 -0.000000      4.000000
  0.416667  0.166667  0.000000      8.000000
  0.500000  0.166667 -0.000000     12.000000
 -0.416667  0.166667  0.000000      4.000000
 -0.333333  0.166667  0.000000      8.000000
 -0.250000  0.166667  0.000000     12.000000
 -0.166667  0.166667  0.000000      2.000000
  0.250000  0.250000 -0.000000      6.000000
  0.333333  0.250000  0.000000     12.000000
  0.416667  0.250000 -0.000000     12.000000
  0.500000  0.250000 -0.000000     24.000000
 -0.416667  0.250000  0.000000     12.000000
 -0.333333  0.250000  0.000000     12.000000
 -0.250000  0.250000  0.000000     12.000000
  0.333333  0.333333  0.000000      2.000000
  0.416667  0.333333 -0.000000      4.000000
  0.500000  0.333333  0.000000     12.000000
 -0.416667  0.333333  0.000000      8.000000
 -0.333333  0.333333  0.000000      2.000000
  0.416667  0.416667 -0.000000      2.000000
  0.500000  0.416667 -0.000000     12.000000
 -0.416667  0.416667 -0.000000      2.000000
  0.500000  0.500000 -0.000000      3.000000
  0.000000  0.000000  0.125000      2.000000
  0.083333  0.000000  0.125000      4.000000
  0.166667 -0.000000  0.125000      4.000000
  0.250000  0.000000  0.125000      6.000000
  0.333333  0.000000  0.125000      4.000000
  0.416667  0.000000  0.125000      4.000000
  0.500000  0.000000  0.125000      6.000000
 -0.416667  0.000000  0.125000      4.000000
 -0.333333 -0.000000  0.125000      4.000000
 -0.250000  0.000000  0.125000      6.000000
 -0.166667  0.000000  0.125000      4.000000
 -0.083333  0.000000  0.125000      4.000000
  0.083333  0.083333  0.125000      2.000000
  0.166667  0.083333  0.125000      4.000000
  0.250000  0.083333  0.125000      8.000000
  0.333333  0.083333  0.125000      4.000000
  0.416667  0.083333  0.125000      4.000000
  0.500000  0.083333  0.125000      8.000000
 -0.416667  0.083333  0.125000      4.000000
 -0.333333  0.083333  0.125000      4.000000
 -0.250000  0.083333  0.125000      8.000000
 -0.166667  0.083333  0.125000      4.000000
 -0.083333  0.083333  0.125000      4.000000
  0.166667  0.166667  0.125000      2.000000
  0.333333  0.166667  0.125000      4.000000
  0.416667  0.166667  0.125000      4.000000
  0.500000  0.166667  0.125000      8.000000
 -0.416667  0.166667  0.125000      4.000000
 -0.333333  0.166667  0.125000      4.000000
 -0.250000  0.166667  0.125000      8.000000
 -0.166667  0.166667  0.125000      4.000000
 -0.083333  0.166667  0.125000      4.000000
  0.333333  0.250000  0.125000      8.000000
  0.416667  0.250000  0.125000      8.000000
  0.500000  0.250000  0.125000     12.000000
 -0.416667  0.250000  0.125000      8.000000
  0.333333  0.333333  0.125000      2.000000
  0.416667  0.333333  0.125000      4.000000
  0.500000  0.333333  0.125000      8.000000
 -0.416667  0.333333  0.125000      4.000000
 -0.333333  0.333333  0.125000      4.000000
 -0.250000  0.333333  0.125000      8.000000
 -0.166667  0.333333  0.125000      4.000000
 -0.083333  0.333333  0.125000      4.000000
  0.416667  0.416667  0.125000      2.000000
  0.500000  0.416667  0.125000      8.000000
 -0.416667  0.416667  0.125000      4.000000
 -0.333333  0.416667  0.125000      4.000000
 -0.250000  0.416667  0.125000      8.000000
 -0.166667  0.416667  0.125000      4.000000
 -0.083333  0.416667  0.125000      4.000000
  0.500000  0.500000  0.125000      6.000000
 -0.416667  0.500000  0.125000      8.000000
 -0.333333  0.500000  0.125000      8.000000
 -0.250000  0.500000  0.125000     12.000000
 -0.166667  0.500000  0.125000      8.000000
 -0.083333  0.500000  0.125000      8.000000
 -0.416667 -0.416667  0.125000      2.000000
 -0.333333 -0.416667  0.125000      4.000000
 -0.250000 -0.416667  0.125000      8.000000
 -0.166667 -0.416667  0.125000      4.000000
 -0.083333 -0.416667  0.125000      4.000000
 -0.333333 -0.333333  0.125000      2.000000
 -0.250000 -0.333333  0.125000      8.000000
 -0.166667 -0.333333  0.125000      4.000000
 -0.083333 -0.333333  0.125000      4.000000
 -0.250000 -0.250000  0.125000      6.000000
 -0.166667 -0.250000  0.125000      8.000000
 -0.083333 -0.250000  0.125000      8.000000
 -0.166667 -0.166667  0.125000      2.000000
 -0.083333 -0.166667  0.125000      4.000000
 -0.083333 -0.083333  0.125000      2.000000
  0.166667  0.083333  0.250000      4.000000
  0.333333  0.083333  0.250000      8.000000
  0.416667  0.083333  0.250000      8.000000
  0.500000  0.083333  0.250000     24.000000
 -0.416667  0.083333  0.250000     16.000000
 -0.333333  0.083333  0.250000      8.000000
 -0.250000  0.083333  0.250000     24.000000
 -0.166667  0.083333  0.250000      8.000000
 -0.083333  0.083333  0.250000      8.000000
  0.416667  0.333333  0.250000      8.000000
 -0.416667  0.333333  0.250000      8.000000
 -0.333333  0.333333  0.250000      8.000000
 -0.250000  0.333333  0.250000     24.000000
 -0.166667  0.333333  0.250000     16.000000
 -0.083333  0.333333  0.250000      4.000000
 -0.416667  0.416667  0.250000      8.000000
 -0.333333  0.416667  0.250000      8.000000
 -0.250000  0.416667  0.250000     24.000000
 -0.166667  0.416667  0.250000      4.000000
 -0.250000  0.500000  0.250000      6.000000
 -0.333333 -0.416667  0.250000      4.000000
  0.000000  0.000000  0.375000      2.000000
  0.083333  0.000000  0.375000      4.000000
  0.166667 -0.000000  0.375000      4.000000
  0.333333  0.000000  0.375000      4.000000
  0.416667  0.000000  0.375000      4.000000
 -0.416667  0.000000  0.375000      4.000000
 -0.333333 -0.000000  0.375000      4.000000
 -0.250000  0.000000  0.375000      6.000000
 -0.166667  0.000000  0.375000      4.000000
 -0.083333  0.000000  0.375000      4.000000
  0.083333  0.083333  0.375000      2.000000
  0.166667  0.083333  0.375000      4.000000
  0.333333  0.083333  0.375000      4.000000
  0.416667  0.083333  0.375000      4.000000
 -0.416667  0.083333  0.375000      4.000000
 -0.333333  0.083333  0.375000      4.000000
 -0.250000  0.083333  0.375000      8.000000
 -0.166667  0.083333  0.375000      4.000000
 -0.083333  0.083333  0.375000      4.000000
  0.166667  0.166667  0.375000      2.000000
  0.333333  0.166667  0.375000      4.000000
  0.416667  0.166667  0.375000      4.000000
 -0.416667  0.166667  0.375000      4.000000
 -0.333333  0.166667  0.375000      4.000000
 -0.250000  0.166667  0.375000      8.000000
 -0.166667  0.166667  0.375000      4.000000
 -0.083333  0.166667  0.375000      4.000000
  0.333333  0.333333  0.375000      2.000000
  0.416667  0.333333  0.375000      4.000000
 -0.416667  0.333333  0.375000      4.000000
 -0.333333  0.333333  0.375000      4.000000
 -0.250000  0.333333  0.375000      8.000000
 -0.166667  0.333333  0.375000      4.000000
 -0.083333  0.333333  0.375000      4.000000
  0.416667  0.416667  0.375000      2.000000
 -0.416667  0.416667  0.375000      4.000000
 -0.333333  0.416667  0.375000      4.000000
 -0.166667  0.416667  0.375000      4.000000
 -0.083333  0.416667  0.375000      4.000000
 -0.416667 -0.416667  0.375000      2.000000
 -0.333333 -0.416667  0.375000      4.000000
 -0.166667 -0.416667  0.375000      4.000000
 -0.083333 -0.416667  0.375000      4.000000
 -0.333333 -0.333333  0.375000      2.000000
 -0.166667 -0.333333  0.375000      4.000000
 -0.083333 -0.333333  0.375000      4.000000
 -0.166667 -0.250000  0.375000      8.000000
 -0.166667 -0.166667  0.375000      2.000000
 -0.083333 -0.166667  0.375000      4.000000
 -0.083333 -0.083333  0.375000      2.000000
  0.166667  0.083333  0.500000      8.000000
  0.416667  0.083333  0.500000      4.000000
 -0.416667  0.083333  0.500000      4.000000
 -0.333333  0.083333  0.500000      8.000000
 -0.083333  0.083333  0.500000      4.000000
  0.333333  0.166667  0.500000      4.000000
 -0.333333  0.166667  0.500000      4.000000
 -0.166667  0.166667  0.500000      4.000000
 
 Following cartesian coordinates:
            Coordinates               Weight
  0.000000  0.000000  0.000000      1.000000
  0.031852 -0.018390 -0.013003      4.000000
  0.063703 -0.036779 -0.026007      4.000000
  0.095555 -0.055169 -0.039010      8.000000
  0.127407 -0.073558 -0.052014      4.000000
  0.159258 -0.091948 -0.065017      4.000000
  0.191110 -0.110337 -0.078020      4.000000
  0.031852  0.018390 -0.026007      2.000000
  0.063703  0.000000 -0.039010      4.000000
  0.095555 -0.018390 -0.052014     12.000000
  0.127407 -0.036779 -0.065017      8.000000
  0.159258 -0.055169 -0.078020      4.000000
  0.191110 -0.073558 -0.091024     12.000000
 -0.159258  0.128727  0.052014      8.000000
 -0.127407  0.110337  0.039010      4.000000
 -0.095555  0.091948  0.026007     12.000000
 -0.063703  0.073558  0.013003      8.000000
 -0.031852  0.055169  0.000000      2.000000
  0.063703  0.036779 -0.052014      2.000000
  0.095555  0.018390 -0.065017     12.000000
  0.127407  0.000000 -0.078020      4.000000
  0.159258 -0.018390 -0.091024      8.000000
  0.191110 -0.036779 -0.104027     12.000000
 -0.159258  0.165506  0.039010      4.000000
 -0.127407  0.147117  0.026007      8.000000
 -0.095555  0.128727  0.013003     12.000000
 -0.063703  0.110337  0.000000      2.000000
  0.095555  0.055169 -0.078020      6.000000
  0.127407  0.036779 -0.091024     12.000000
  0.159258  0.018390 -0.104027     12.000000
  0.191110  0.000000 -0.117030     24.000000
 -0.159258  0.202285  0.026007     12.000000
 -0.127407  0.183896  0.013003     12.000000
 -0.095555  0.165506  0.000000     12.000000
  0.127407  0.073558 -0.104027      2.000000
  0.159258  0.055169 -0.117030      4.000000
  0.191110  0.036779 -0.130034     12.000000
 -0.159258  0.239064  0.013003      8.000000
 -0.127407  0.220675  0.000000      2.000000
  0.159258  0.091948 -0.130034      2.000000
  0.191110  0.073558 -0.143037     12.000000
 -0.159258  0.275843  0.000000      2.000000
  0.191110  0.110337 -0.156041      3.000000
  0.000000  0.000000  0.058515      2.000000
  0.031852 -0.018390  0.045512      4.000000
  0.063703 -0.036779  0.032508      4.000000
  0.095555 -0.055169  0.019505      6.000000
  0.127407 -0.073558  0.006502      4.000000
  0.159258 -0.091948 -0.006502      4.000000
  0.191110 -0.110337 -0.019505      6.000000
 -0.159258  0.091948  0.123532      4.000000
 -0.127407  0.073558  0.110529      4.000000
 -0.095555  0.055169  0.097525      6.000000
 -0.063703  0.036779  0.084522      4.000000
 -0.031852  0.018390  0.071519      4.000000
  0.031852  0.018390  0.032508      2.000000
  0.063703  0.000000  0.019505      4.000000
  0.095555 -0.018390  0.006502      8.000000
  0.127407 -0.036779 -0.006502      4.000000
  0.159258 -0.055169 -0.019505      4.000000
  0.191110 -0.073558 -0.032508      8.000000
 -0.159258  0.128727  0.110529      4.000000
 -0.127407  0.110337  0.097525      4.000000
 -0.095555  0.091948  0.084522      8.000000
 -0.063703  0.073558  0.071519      4.000000
 -0.031852  0.055169  0.058515      4.000000
  0.063703  0.036779  0.006502      2.000000
  0.127407  0.000000 -0.019505      4.000000
  0.159258 -0.018390 -0.032508      4.000000
  0.191110 -0.036779 -0.045512      8.000000
 -0.159258  0.165506  0.097525      4.000000
 -0.127407  0.147117  0.084522      4.000000
 -0.095555  0.128727  0.071519      8.000000
 -0.063703  0.110337  0.058515      4.000000
 -0.031852  0.091948  0.045512      4.000000
  0.127407  0.036779 -0.032508      8.000000
  0.159258  0.018390 -0.045512      8.000000
  0.191110  0.000000 -0.058515     12.000000
 -0.159258  0.202285  0.084522      8.000000
  0.127407  0.073558 -0.045512      2.000000
  0.159258  0.055169 -0.058515      4.000000
  0.191110  0.036779 -0.071519      8.000000
 -0.159258  0.239064  0.071519      4.000000
 -0.127407  0.220675  0.058515      4.000000
 -0.095555  0.202285  0.045512      8.000000
 -0.063703  0.183896  0.032508      4.000000
 -0.031852  0.165506  0.019505      4.000000
  0.159258  0.091948 -0.071519      2.000000
  0.191110  0.073558 -0.084522      8.000000
 -0.159258  0.275843  0.058515      4.000000
 -0.127407  0.257454  0.045512      4.000000
 -0.095555  0.239064  0.032508      8.000000
 -0.063703  0.220675  0.019505      4.000000
 -0.031852  0.202285  0.006502      4.000000
  0.191110  0.110337 -0.097525      6.000000
 -0.159258  0.312623  0.045512      8.000000
 -0.127407  0.294233  0.032508      8.000000
 -0.095555  0.275843  0.019505     12.000000
 -0.063703  0.257454  0.006502      8.000000
 -0.031852  0.239064 -0.006502      8.000000
 -0.159258 -0.091948  0.188549      2.000000
 -0.127407 -0.110337  0.175546      4.000000
 -0.095555 -0.128727  0.162542      8.000000
 -0.063703 -0.147117  0.149539      4.000000
 -0.031852 -0.165506  0.136536      4.000000
 -0.127407 -0.073558  0.162542      2.000000
 -0.095555 -0.091948  0.149539      8.000000
 -0.063703 -0.110337  0.136536      4.000000
 -0.031852 -0.128727  0.123532      4.000000
 -0.095555 -0.055169  0.136536      6.000000
 -0.063703 -0.073558  0.123532      8.000000
 -0.031852 -0.091948  0.110529      8.000000
 -0.063703 -0.036779  0.110529      2.000000
 -0.031852 -0.055169  0.097525      4.000000
 -0.031852 -0.018390  0.084522      2.000000
  0.063703  0.000000  0.078020      4.000000
  0.127407 -0.036779  0.052014      8.000000
  0.159258 -0.055169  0.039010      8.000000
  0.191110 -0.073558  0.026007     24.000000
 -0.159258  0.128727  0.169044     16.000000
 -0.127407  0.110337  0.156041      8.000000
 -0.095555  0.091948  0.143037     24.000000
 -0.063703  0.073558  0.130034      8.000000
 -0.031852  0.055169  0.117030      8.000000
  0.159258  0.055169  0.000000      8.000000
 -0.159258  0.239064  0.130034      8.000000
 -0.127407  0.220675  0.117030      8.000000
 -0.095555  0.202285  0.104027     24.000000
 -0.063703  0.183896  0.091024     16.000000
 -0.031852  0.165506  0.078020      4.000000
 -0.159258  0.275843  0.117030      8.000000
 -0.127407  0.257454  0.104027      8.000000
 -0.095555  0.239064  0.091024     24.000000
 -0.063703  0.220675  0.078020      4.000000
 -0.095555  0.275843  0.078020      6.000000
 -0.127407 -0.110337  0.234061      4.000000
  0.000000  0.000000  0.175546      2.000000
  0.031852 -0.018390  0.162542      4.000000
  0.063703 -0.036779  0.149539      4.000000
  0.127407 -0.073558  0.123532      4.000000
  0.159258 -0.091948  0.110529      4.000000
 -0.159258  0.091948  0.240563      4.000000
 -0.127407  0.073558  0.227559      4.000000
 -0.095555  0.055169  0.214556      6.000000
 -0.063703  0.036779  0.201552      4.000000
 -0.031852  0.018390  0.188549      4.000000
  0.031852  0.018390  0.149539      2.000000
  0.063703  0.000000  0.136536      4.000000
  0.127407 -0.036779  0.110529      4.000000
  0.159258 -0.055169  0.097525      4.000000
 -0.159258  0.128727  0.227559      4.000000
 -0.127407  0.110337  0.214556      4.000000
 -0.095555  0.091948  0.201552      8.000000
 -0.063703  0.073558  0.188549      4.000000
 -0.031852  0.055169  0.175546      4.000000
  0.063703  0.036779  0.123532      2.000000
  0.127407  0.000000  0.097525      4.000000
  0.159258 -0.018390  0.084522      4.000000
 -0.159258  0.165506  0.214556      4.000000
 -0.127407  0.147117  0.201552      4.000000
 -0.095555  0.128727  0.188549      8.000000
 -0.063703  0.110337  0.175546      4.000000
 -0.031852  0.091948  0.162542      4.000000
  0.127407  0.073558  0.071519      2.000000
  0.159258  0.055169  0.058515      4.000000
 -0.159258  0.239064  0.188549      4.000000
 -0.127407  0.220675  0.175546      4.000000
 -0.095555  0.202285  0.162542      8.000000
 -0.063703  0.183896  0.149539      4.000000
 -0.031852  0.165506  0.136536      4.000000
  0.159258  0.091948  0.045512      2.000000
 -0.159258  0.275843  0.175546      4.000000
 -0.127407  0.257454  0.162542      4.000000
 -0.063703  0.220675  0.136536      4.000000
 -0.031852  0.202285  0.123532      4.000000
 -0.159258 -0.091948  0.305580      2.000000
 -0.127407 -0.110337  0.292576      4.000000
 -0.063703 -0.147117  0.266569      4.000000
 -0.031852 -0.165506  0.253566      4.000000
 -0.127407 -0.073558  0.279573      2.000000
 -0.063703 -0.110337  0.253566      4.000000
 -0.031852 -0.128727  0.240563      4.000000
 -0.063703 -0.073558  0.240563      8.000000
 -0.063703 -0.036779  0.227559      2.000000
 -0.031852 -0.055169  0.214556      4.000000
 -0.031852 -0.018390  0.201552      2.000000
  0.063703  0.000000  0.195051      8.000000
  0.159258 -0.055169  0.156041      4.000000
 -0.159258  0.128727  0.286074      4.000000
 -0.127407  0.110337  0.273071      8.000000
 -0.031852  0.055169  0.234061      4.000000
  0.127407  0.000000  0.156041      4.000000
 -0.127407  0.147117  0.260068      4.000000
 -0.063703  0.110337  0.234061      4.000000
 
 TETIRR: Found   1704 inequivalent tetrahedra from     6912


--------------------------------------------------------------------------------------------------------




 Dimension of arrays:
   k-points           NKPTS =    194   k-points in BZ     NKDIM =    194   number of bands    NBANDS=      8
   number of dos      NEDOS =    301   number of ions     NIONS =      2
   non local maximal  LDIM  =      4   non local SUM 2l+1 LMDIM =      8
   total plane-waves  NPLWV =  13824
   max r-space proj   IRMAX =      1   max aug-charges    IRDMAX=  13343
   dimension x,y,z NGX =    24 NGY =   24 NGZ =   24
   dimension x,y,z NGXF=    48 NGYF=   48 NGZF=   48
   support grid    NGXF=    48 NGYF=   48 NGZF=   48
   ions per type =               2
 NGX,Y,Z   is equivalent  to a cutoff of  15.35, 15.35, 15.35 a.u.
 NGXF,Y,Z  is equivalent  to a cutoff of  30.71, 30.71, 30.71 a.u.


 I would recommend the setting:
   dimension x,y,z NGX =    24 NGY =   24 NGZ =   24
 SYSTEM =  graphite                                
 POSCAR =  cubic diamond    comment line           

 Startparameter for this run:
   NWRITE =      2    write-flag & timer
   PREC   = accura    normal or accurate (medium, high low for compatibility)
   ISTART =      0    job   : 0-new  1-cont  2-samecut
   ICHARG =      2    charge: 1-file 2-atom 10-const
   ISPIN  =      1    spin polarized calculation?
   LNONCOLLINEAR =      F non collinear calculations
   LSORBIT =      F    spin-orbit coupling
   INIWAV =      1    electr: 0-lowe 1-rand  2-diag
   LASPH  =      F    aspherical Exc in radial PAW
   METAGGA=      F    non-selfconsistent MetaGGA calc.

 Electronic Relaxation 1
   ENCUT  =  800.0 eV  58.80 Ry    7.67 a.u.   5.99  5.99  5.99*2*pi/ulx,y,z
   ENINI  =  800.0     initial cutoff
   ENAUG  =  644.9 eV  augmentation charge cutoff
   NELM   =    200;   NELMIN=  2; NELMDL=  0     # of ELM steps 
   EDIFF  = 0.1E-07   stopping-criterion for ELM
   LREAL  =      F    real-space projection
   NLSPLINE    = F    spline interpolate recip. space projectors
   LCOMPAT=      F    compatible to vasp.4.4
   GGA_COMPAT  = T    GGA compatible to vasp.4.4-vasp.4.6
   LMAXPAW     = -100 max onsite density
   LMAXMIX     =    2 max onsite mixed and CHGCAR
   VOSKOWN=      0    Vosko Wilk Nusair interpolation
   ROPT   =    0.00000
 Ionic relaxation
   EDIFFG = 0.1E-02   stopping-criterion for IOM
   NSW    =    200    number of steps for IOM
   NBLOCK =      1;   KBLOCK =    200    inner block; outer block 
   IBRION =      2    ionic relax: 0-MD 1-quasi-New 2-CG
   NFREE  =      1    steps in history (QN), initial steepest desc. (CG)
   ISIF   =      2    stress and relaxation
   IWAVPR =     11    prediction:  0-non 1-charg 2-wave 3-comb
   ISYM   =      2    0-nonsym 1-usesym 2-fastsym
   LCORR  =      T    Harris-Foulkes like correction to forces

   POTIM  = 0.5000    time-step for ionic-motion
   TEIN   =    0.0    initial temperature
   TEBEG  =    0.0;   TEEND  =   0.0 temperature during run
   SMASS  =  -3.00    Nose mass-parameter (am)
   estimated Nose-frequenzy (Omega)   =  0.10E-29 period in steps =****** mass=  -0.154E-27a.u.
   SCALEE = 1.0000    scale energy and forces
   NPACO  =    256;   APACO  = 16.0  distance and # of slots for P.C.
   PSTRESS=    0.0 pullay stress

  Mass of Ions in am
   POMASS =  12.01
  Ionic Valenz
   ZVAL   =   4.00
  Atomic Wigner-Seitz radii
   RWIGS  =  -1.00
  virtual crystal weights 
   VCA    =   1.00
   NELECT =       8.0000    total number of electrons
   NUPDOWN=      -1.0000    fix difference up-down

 DOS related values:
   EMIN   =  10.00;   EMAX   =-10.00  energy-range for DOS
   EFERMI =   0.00
   ISMEAR =    -5;   SIGMA  =   0.20  broadening in eV -4-tet -1-fermi 0-gaus

 Electronic relaxation 2 (details)
   IALGO  =     38    algorithm
   LDIAG  =      T    sub-space diagonalisation (order eigenvalues)
   LSUBROT=      F    optimize rotation matrix (better conditioning)
   TURBO    =      0    0=normal 1=particle mesh
   IRESTART =      0    0=no restart 2=restart with 2 vectors
   NREBOOT  =      0    no. of reboots
   NMIN     =      0    reboot dimension
   EREF     =   0.00    reference energy to select bands
   IMIX   =      4    mixing-type and parameters
     AMIX     =   0.40;   BMIX     =  1.00
     AMIX_MAG =   1.60;   BMIX_MAG =  1.00
     AMIN     =   0.10
     WC   =   100.;   INIMIX=   1;  MIXPRE=   1;  MAXMIX= -45

 Intra band minimization:
   WEIMIN = 0.0010     energy-eigenvalue tresh-hold
   EBREAK =  0.31E-09  absolut break condition
   DEPER  =   0.30     relativ break condition  

   TIME   =   0.40     timestep for ELM

  volume/ion in A,a.u.               =       6.20        41.87
  Fermi-wavevector in a.u.,A,eV,Ry     =   1.414212  2.672472 27.211578  1.999995
  Thomas-Fermi vector in A             =   2.535777
 
 Write flags
   LWAVE  =      F    write WAVECAR
   LCHARG =      F    write CHGCAR
   LVTOT  =      F    write LOCPOT, total local potential
   LVHAR  =      F    write LOCPOT, Hartree potential only
   LELF   =      F    write electronic localiz. function (ELF)
   LORBIT =      0    0 simple, 1 ext, 2 COOP (PROOUT)


 Dipole corrections
   LMONO  =      F    monopole corrections only (constant potential shift)
   LDIPOL =      F    correct potential (dipole corrections)
   IDIPOL =      0    1-x, 2-y, 3-z, 4-all directions 
   EPSILON=  1.0000000 bulk dielectric constant

 Exchange correlation treatment:
   GGA     =    PE    GGA type
   LEXCH   =     8    internal setting for exchange type
   VOSKOWN=      0    Vosko Wilk Nusair interpolation
   LHFCALC =     F    Hartree Fock is set to
   LHFONE  =     F    Hartree Fock one center treatment
   AEXX    =    0.0000 exact exchange contribution

 Linear response parameters
   LEPSILON=     F    determine dielectric tensor
   LRPA    =     F    only Hartree local field effects (RPA)
   LNABLA  =     F    use nabla operator in PAW spheres
   LVEL    =     F    velocity operator in full k-point grid
   LINTERFAST=   F  fast interpolation
   KINTER  =     0    interpolate to denser k-point grid
   CSHIFT  =0.1000    complex shift for real part using Kramers Kronig
   OMEGAMAX=  -1.0    maximum frequency
   DEG_THRESHOLD= 0.2000000E-02 threshold for treating states as degnerate
   RTIME   =    0.100 relaxation time in fs

 Orbital magnetization related:
   ORBITALMAG=     F  switch on orbital magnetization
   LCHIMAG   =     F  perturbation theory with respect to B field
   DQ        =  0.001000  dq finite difference perturbation B field



--------------------------------------------------------------------------------------------------------


 conjugate gradient relaxation of ions
 charge density and potential will be updated during run
 non-spin polarized calculation
 Variant of blocked Davidson
 Davidson routine will perform the subspace rotation
 perform sub-space diagonalisation
    after iterative eigenvector-optimisation
 modified Broyden-mixing scheme, WC =      100.0
 initial mixing is a Kerker type mixing with AMIX =  0.4000 and BMIX =      1.0000
 Hartree-type preconditioning will be used
 using additional bands            4
 reciprocal scheme for non local part
 calculate Harris-corrections to forces 
   (improved forces if not selfconsistent)
 use gradient corrections 
 use of overlap-Matrix (Vanderbilt PP)
 Fermi weights with tetrahedron method with Bloechl corrections


--------------------------------------------------------------------------------------------------------


  energy-cutoff  :      800.00
  volume of cell :       12.41
      direct lattice vectors                 reciprocal lattice vectors
     2.598735542  0.000000000  0.000000000     0.384802526 -0.222165842 -0.157094973
     1.299367771  2.250570997  0.000000000     0.000000000  0.444331684 -0.157094973
     1.299367771  0.750190332  2.121858684     0.000000000  0.000000000  0.471284920

  length of vectors
     2.598735542  2.598735542  2.598735542     0.471284920  0.471284920  0.471284920


 
 k-points in units of 2pi/SCALE and weight: B4C B11C-CBC                            
   0.00000000  0.00000000  0.00000000       0.001
   0.03185166 -0.01838956 -0.01300338       0.003
   0.06370331 -0.03677913 -0.02600677       0.003
   0.09555497 -0.05516869 -0.03901015       0.007
   0.12740663 -0.07355825 -0.05201354       0.003
   0.15925828 -0.09194781 -0.06501692       0.003
   0.19110994 -0.11033738 -0.07802031       0.003
   0.03185166  0.01838956 -0.02600677       0.002
   0.06370331  0.00000000 -0.03901015       0.003
   0.09555497 -0.01838956 -0.05201354       0.010
   0.12740663 -0.03677913 -0.06501692       0.007
   0.15925828 -0.05516869 -0.07802031       0.003
   0.19110994 -0.07355825 -0.09102369       0.010
  -0.15925828  0.12872694  0.05201354       0.007
  -0.12740663  0.11033738  0.03901015       0.003
  -0.09555497  0.09194781  0.02600677       0.010
  -0.06370331  0.07355825  0.01300338       0.007
  -0.03185166  0.05516869  0.00000000       0.002
   0.06370331  0.03677913 -0.05201354       0.002
   0.09555497  0.01838956 -0.06501692       0.010
   0.12740663  0.00000000 -0.07802031       0.003
   0.15925828 -0.01838956 -0.09102369       0.007
   0.19110994 -0.03677913 -0.10402708       0.010
  -0.15925828  0.16550606  0.03901015       0.003
  -0.12740663  0.14711650  0.02600677       0.007
  -0.09555497  0.12872694  0.01300338       0.010
  -0.06370331  0.11033738  0.00000000       0.002
   0.09555497  0.05516869 -0.07802031       0.005
   0.12740663  0.03677913 -0.09102369       0.010
   0.15925828  0.01838956 -0.10402708       0.010
   0.19110994  0.00000000 -0.11703046       0.021
  -0.15925828  0.20228519  0.02600677       0.010
  -0.12740663  0.18389563  0.01300338       0.010
  -0.09555497  0.16550606  0.00000000       0.010
   0.12740663  0.07355825 -0.10402708       0.002
   0.15925828  0.05516869 -0.11703046       0.003
   0.19110994  0.03677913 -0.13003384       0.010
  -0.15925828  0.23906431  0.01300338       0.007
  -0.12740663  0.22067475  0.00000000       0.002
   0.15925828  0.09194781 -0.13003384       0.002
   0.19110994  0.07355825 -0.14303723       0.010
  -0.15925828  0.27584344  0.00000000       0.002
   0.19110994  0.11033738 -0.15604061       0.003
   0.00000000  0.00000000  0.05851523       0.002
   0.03185166 -0.01838956  0.04551185       0.003
   0.06370331 -0.03677913  0.03250846       0.003
   0.09555497 -0.05516869  0.01950508       0.005
   0.12740663 -0.07355825  0.00650169       0.003
   0.15925828 -0.09194781 -0.00650169       0.003
   0.19110994 -0.11033738 -0.01950508       0.005
  -0.15925828  0.09194781  0.12353215       0.003
  -0.12740663  0.07355825  0.11052877       0.003
  -0.09555497  0.05516869  0.09752538       0.005
  -0.06370331  0.03677913  0.08452200       0.003
  -0.03185166  0.01838956  0.07151861       0.003
   0.03185166  0.01838956  0.03250846       0.002
   0.06370331  0.00000000  0.01950508       0.003
   0.09555497 -0.01838956  0.00650169       0.007
   0.12740663 -0.03677913 -0.00650169       0.003
   0.15925828 -0.05516869 -0.01950508       0.003
   0.19110994 -0.07355825 -0.03250846       0.007
  -0.15925828  0.12872694  0.11052877       0.003
  -0.12740663  0.11033738  0.09752538       0.003
  -0.09555497  0.09194781  0.08452200       0.007
  -0.06370331  0.07355825  0.07151861       0.003
  -0.03185166  0.05516869  0.05851523       0.003
   0.06370331  0.03677913  0.00650169       0.002
   0.12740663  0.00000000 -0.01950508       0.003
   0.15925828 -0.01838956 -0.03250846       0.003
   0.19110994 -0.03677913 -0.04551185       0.007
  -0.15925828  0.16550606  0.09752538       0.003
  -0.12740663  0.14711650  0.08452200       0.003
  -0.09555497  0.12872694  0.07151861       0.007
  -0.06370331  0.11033738  0.05851523       0.003
  -0.03185166  0.09194781  0.04551185       0.003
   0.12740663  0.03677913 -0.03250846       0.007
   0.15925828  0.01838956 -0.04551185       0.007
   0.19110994  0.00000000 -0.05851523       0.010
  -0.15925828  0.20228519  0.08452200       0.007
   0.12740663  0.07355825 -0.04551185       0.002
   0.15925828  0.05516869 -0.05851523       0.003
   0.19110994  0.03677913 -0.07151861       0.007
  -0.15925828  0.23906431  0.07151861       0.003
  -0.12740663  0.22067475  0.05851523       0.003
  -0.09555497  0.20228519  0.04551185       0.007
  -0.06370331  0.18389563  0.03250846       0.003
  -0.03185166  0.16550606  0.01950508       0.003
   0.15925828  0.09194781 -0.07151861       0.002
   0.19110994  0.07355825 -0.08452200       0.007
  -0.15925828  0.27584344  0.05851523       0.003
  -0.12740663  0.25745388  0.04551185       0.003
  -0.09555497  0.23906431  0.03250846       0.007
  -0.06370331  0.22067475  0.01950508       0.003
  -0.03185166  0.20228519  0.00650169       0.003
   0.19110994  0.11033738 -0.09752538       0.005
  -0.15925828  0.31262256  0.04551185       0.007
  -0.12740663  0.29423300  0.03250846       0.007
  -0.09555497  0.27584344  0.01950508       0.010
  -0.06370331  0.25745388  0.00650169       0.007
  -0.03185166  0.23906431 -0.00650169       0.007
  -0.15925828 -0.09194781  0.18854907       0.002
  -0.12740663 -0.11033738  0.17554569       0.003
  -0.09555497 -0.12872694  0.16254230       0.007
  -0.06370331 -0.14711650  0.14953892       0.003
  -0.03185166 -0.16550606  0.13653554       0.003
  -0.12740663 -0.07355825  0.16254230       0.002
  -0.09555497 -0.09194781  0.14953892       0.007
  -0.06370331 -0.11033738  0.13653554       0.003
  -0.03185166 -0.12872694  0.12353215       0.003
  -0.09555497 -0.05516869  0.13653554       0.005
  -0.06370331 -0.07355825  0.12353215       0.007
  -0.03185166 -0.09194781  0.11052877       0.007
  -0.06370331 -0.03677913  0.11052877       0.002
  -0.03185166 -0.05516869  0.09752538       0.003
  -0.03185166 -0.01838956  0.08452200       0.002
   0.06370331  0.00000000  0.07802031       0.003
   0.12740663 -0.03677913  0.05201354       0.007
   0.15925828 -0.05516869  0.03901015       0.007
   0.19110994 -0.07355825  0.02600677       0.021
  -0.15925828  0.12872694  0.16904400       0.014
  -0.12740663  0.11033738  0.15604061       0.007
  -0.09555497  0.09194781  0.14303723       0.021
  -0.06370331  0.07355825  0.13003384       0.007
  -0.03185166  0.05516869  0.11703046       0.007
   0.15925828  0.05516869  0.00000000       0.007
  -0.15925828  0.23906431  0.13003384       0.007
  -0.12740663  0.22067475  0.11703046       0.007
  -0.09555497  0.20228519  0.10402708       0.021
  -0.06370331  0.18389563  0.09102369       0.014
  -0.03185166  0.16550606  0.07802031       0.003
  -0.15925828  0.27584344  0.11703046       0.007
  -0.12740663  0.25745388  0.10402708       0.007
  -0.09555497  0.23906431  0.09102369       0.021
  -0.06370331  0.22067475  0.07802031       0.003
  -0.09555497  0.27584344  0.07802031       0.005
  -0.12740663 -0.11033738  0.23406092       0.003
   0.00000000  0.00000000  0.17554569       0.002
   0.03185166 -0.01838956  0.16254230       0.003
   0.06370331 -0.03677913  0.14953892       0.003
   0.12740663 -0.07355825  0.12353215       0.003
   0.15925828 -0.09194781  0.11052877       0.003
  -0.15925828  0.09194781  0.24056261       0.003
  -0.12740663  0.07355825  0.22755923       0.003
  -0.09555497  0.05516869  0.21455584       0.005
  -0.06370331  0.03677913  0.20155246       0.003
  -0.03185166  0.01838956  0.18854907       0.003
   0.03185166  0.01838956  0.14953892       0.002
   0.06370331  0.00000000  0.13653554       0.003
   0.12740663 -0.03677913  0.11052877       0.003
   0.15925828 -0.05516869  0.09752538       0.003
  -0.15925828  0.12872694  0.22755923       0.003
  -0.12740663  0.11033738  0.21455584       0.003
  -0.09555497  0.09194781  0.20155246       0.007
  -0.06370331  0.07355825  0.18854907       0.003
  -0.03185166  0.05516869  0.17554569       0.003
   0.06370331  0.03677913  0.12353215       0.002
   0.12740663  0.00000000  0.09752538       0.003
   0.15925828 -0.01838956  0.08452200       0.003
  -0.15925828  0.16550606  0.21455584       0.003
  -0.12740663  0.14711650  0.20155246       0.003
  -0.09555497  0.12872694  0.18854907       0.007
  -0.06370331  0.11033738  0.17554569       0.003
  -0.03185166  0.09194781  0.16254230       0.003
   0.12740663  0.07355825  0.07151861       0.002
   0.15925828  0.05516869  0.05851523       0.003
  -0.15925828  0.23906431  0.18854907       0.003
  -0.12740663  0.22067475  0.17554569       0.003
  -0.09555497  0.20228519  0.16254230       0.007
  -0.06370331  0.18389563  0.14953892       0.003
  -0.03185166  0.16550606  0.13653554       0.003
   0.15925828  0.09194781  0.04551185       0.002
  -0.15925828  0.27584344  0.17554569       0.003
  -0.12740663  0.25745388  0.16254230       0.003
  -0.06370331  0.22067475  0.13653554       0.003
  -0.03185166  0.20228519  0.12353215       0.003
  -0.15925828 -0.09194781  0.30557953       0.002
  -0.12740663 -0.11033738  0.29257615       0.003
  -0.06370331 -0.14711650  0.26656938       0.003
  -0.03185166 -0.16550606  0.25356600       0.003
  -0.12740663 -0.07355825  0.27957276       0.002
  -0.06370331 -0.11033738  0.25356600       0.003
  -0.03185166 -0.12872694  0.24056261       0.003
  -0.06370331 -0.07355825  0.24056261       0.007
  -0.06370331 -0.03677913  0.22755923       0.002
  -0.03185166 -0.05516869  0.21455584       0.003
  -0.03185166 -0.01838956  0.20155246       0.002
   0.06370331  0.00000000  0.19505077       0.007
   0.15925828 -0.05516869  0.15604061       0.003
  -0.15925828  0.12872694  0.28607446       0.003
  -0.12740663  0.11033738  0.27307107       0.007
  -0.03185166  0.05516869  0.23406092       0.003
   0.12740663  0.00000000  0.15604061       0.003
  -0.12740663  0.14711650  0.26006769       0.003
  -0.06370331  0.11033738  0.23406092       0.003
 
 k-points in reciprocal lattice and weights: B4C B11C-CBC                            
   0.00000000  0.00000000  0.00000000       0.001
   0.08333333  0.00000000  0.00000000       0.003
   0.16666667 -0.00000000 -0.00000000       0.003
   0.25000000  0.00000000 -0.00000000       0.007
   0.33333333  0.00000000  0.00000000       0.003
   0.41666667  0.00000000 -0.00000000       0.003
   0.50000000  0.00000000 -0.00000000       0.003
   0.08333333  0.08333333 -0.00000000       0.002
   0.16666667  0.08333333 -0.00000000       0.003
   0.25000000  0.08333333 -0.00000000       0.010
   0.33333333  0.08333333  0.00000000       0.007
   0.41666667  0.08333333 -0.00000000       0.003
   0.50000000  0.08333333 -0.00000000       0.010
  -0.41666667  0.08333333 -0.00000000       0.007
  -0.33333333  0.08333333 -0.00000000       0.003
  -0.25000000  0.08333333  0.00000000       0.010
  -0.16666667  0.08333333  0.00000000       0.007
  -0.08333333  0.08333333 -0.00000000       0.002
   0.16666667  0.16666667  0.00000000       0.002
   0.25000000  0.16666667 -0.00000000       0.010
   0.33333333  0.16666667 -0.00000000       0.003
   0.41666667  0.16666667  0.00000000       0.007
   0.50000000  0.16666667 -0.00000000       0.010
  -0.41666667  0.16666667  0.00000000       0.003
  -0.33333333  0.16666667  0.00000000       0.007
  -0.25000000  0.16666667  0.00000000       0.010
  -0.16666667  0.16666667  0.00000000       0.002
   0.25000000  0.25000000 -0.00000000       0.005
   0.33333333  0.25000000  0.00000000       0.010
   0.41666667  0.25000000 -0.00000000       0.010
   0.50000000  0.25000000 -0.00000000       0.021
  -0.41666667  0.25000000  0.00000000       0.010
  -0.33333333  0.25000000  0.00000000       0.010
  -0.25000000  0.25000000  0.00000000       0.010
   0.33333333  0.33333333  0.00000000       0.002
   0.41666667  0.33333333 -0.00000000       0.003
   0.50000000  0.33333333  0.00000000       0.010
  -0.41666667  0.33333333  0.00000000       0.007
  -0.33333333  0.33333333  0.00000000       0.002
   0.41666667  0.41666667 -0.00000000       0.002
   0.50000000  0.41666667 -0.00000000       0.010
  -0.41666667  0.41666667 -0.00000000       0.002
   0.50000000  0.50000000 -0.00000000       0.003
   0.00000000  0.00000000  0.12500000       0.002
   0.08333333  0.00000000  0.12500000       0.003
   0.16666667 -0.00000000  0.12500000       0.003
   0.25000000  0.00000000  0.12500000       0.005
   0.33333333  0.00000000  0.12500000       0.003
   0.41666667  0.00000000  0.12500000       0.003
   0.50000000  0.00000000  0.12500000       0.005
  -0.41666667  0.00000000  0.12500000       0.003
  -0.33333333 -0.00000000  0.12500000       0.003
  -0.25000000  0.00000000  0.12500000       0.005
  -0.16666667  0.00000000  0.12500000       0.003
  -0.08333333  0.00000000  0.12500000       0.003
   0.08333333  0.08333333  0.12500000       0.002
   0.16666667  0.08333333  0.12500000       0.003
   0.25000000  0.08333333  0.12500000       0.007
   0.33333333  0.08333333  0.12500000       0.003
   0.41666667  0.08333333  0.12500000       0.003
   0.50000000  0.08333333  0.12500000       0.007
  -0.41666667  0.08333333  0.12500000       0.003
  -0.33333333  0.08333333  0.12500000       0.003
  -0.25000000  0.08333333  0.12500000       0.007
  -0.16666667  0.08333333  0.12500000       0.003
  -0.08333333  0.08333333  0.12500000       0.003
   0.16666667  0.16666667  0.12500000       0.002
   0.33333333  0.16666667  0.12500000       0.003
   0.41666667  0.16666667  0.12500000       0.003
   0.50000000  0.16666667  0.12500000       0.007
  -0.41666667  0.16666667  0.12500000       0.003
  -0.33333333  0.16666667  0.12500000       0.003
  -0.25000000  0.16666667  0.12500000       0.007
  -0.16666667  0.16666667  0.12500000       0.003
  -0.08333333  0.16666667  0.12500000       0.003
   0.33333333  0.25000000  0.12500000       0.007
   0.41666667  0.25000000  0.12500000       0.007
   0.50000000  0.25000000  0.12500000       0.010
  -0.41666667  0.25000000  0.12500000       0.007
   0.33333333  0.33333333  0.12500000       0.002
   0.41666667  0.33333333  0.12500000       0.003
   0.50000000  0.33333333  0.12500000       0.007
  -0.41666667  0.33333333  0.12500000       0.003
  -0.33333333  0.33333333  0.12500000       0.003
  -0.25000000  0.33333333  0.12500000       0.007
  -0.16666667  0.33333333  0.12500000       0.003
  -0.08333333  0.33333333  0.12500000       0.003
   0.41666667  0.41666667  0.12500000       0.002
   0.50000000  0.41666667  0.12500000       0.007
  -0.41666667  0.41666667  0.12500000       0.003
  -0.33333333  0.41666667  0.12500000       0.003
  -0.25000000  0.41666667  0.12500000       0.007
  -0.16666667  0.41666667  0.12500000       0.003
  -0.08333333  0.41666667  0.12500000       0.003
   0.50000000  0.50000000  0.12500000       0.005
  -0.41666667  0.50000000  0.12500000       0.007
  -0.33333333  0.50000000  0.12500000       0.007
  -0.25000000  0.50000000  0.12500000       0.010
  -0.16666667  0.50000000  0.12500000       0.007
  -0.08333333  0.50000000  0.12500000       0.007
  -0.41666667 -0.41666667  0.12500000       0.002
  -0.33333333 -0.41666667  0.12500000       0.003
  -0.25000000 -0.41666667  0.12500000       0.007
  -0.16666667 -0.41666667  0.12500000       0.003
  -0.08333333 -0.41666667  0.12500000       0.003
  -0.33333333 -0.33333333  0.12500000       0.002
  -0.25000000 -0.33333333  0.12500000       0.007
  -0.16666667 -0.33333333  0.12500000       0.003
  -0.08333333 -0.33333333  0.12500000       0.003
  -0.25000000 -0.25000000  0.12500000       0.005
  -0.16666667 -0.25000000  0.12500000       0.007
  -0.08333333 -0.25000000  0.12500000       0.007
  -0.16666667 -0.16666667  0.12500000       0.002
  -0.08333333 -0.16666667  0.12500000       0.003
  -0.08333333 -0.08333333  0.12500000       0.002
   0.16666667  0.08333333  0.25000000       0.003
   0.33333333  0.08333333  0.25000000       0.007
   0.41666667  0.08333333  0.25000000       0.007
   0.50000000  0.08333333  0.25000000       0.021
  -0.41666667  0.08333333  0.25000000       0.014
  -0.33333333  0.08333333  0.25000000       0.007
  -0.25000000  0.08333333  0.25000000       0.021
  -0.16666667  0.08333333  0.25000000       0.007
  -0.08333333  0.08333333  0.25000000       0.007
   0.41666667  0.33333333  0.25000000       0.007
  -0.41666667  0.33333333  0.25000000       0.007
  -0.33333333  0.33333333  0.25000000       0.007
  -0.25000000  0.33333333  0.25000000       0.021
  -0.16666667  0.33333333  0.25000000       0.014
  -0.08333333  0.33333333  0.25000000       0.003
  -0.41666667  0.41666667  0.25000000       0.007
  -0.33333333  0.41666667  0.25000000       0.007
  -0.25000000  0.41666667  0.25000000       0.021
  -0.16666667  0.41666667  0.25000000       0.003
  -0.25000000  0.50000000  0.25000000       0.005
  -0.33333333 -0.41666667  0.25000000       0.003
   0.00000000  0.00000000  0.37500000       0.002
   0.08333333  0.00000000  0.37500000       0.003
   0.16666667 -0.00000000  0.37500000       0.003
   0.33333333  0.00000000  0.37500000       0.003
   0.41666667  0.00000000  0.37500000       0.003
  -0.41666667  0.00000000  0.37500000       0.003
  -0.33333333 -0.00000000  0.37500000       0.003
  -0.25000000  0.00000000  0.37500000       0.005
  -0.16666667  0.00000000  0.37500000       0.003
  -0.08333333  0.00000000  0.37500000       0.003
   0.08333333  0.08333333  0.37500000       0.002
   0.16666667  0.08333333  0.37500000       0.003
   0.33333333  0.08333333  0.37500000       0.003
   0.41666667  0.08333333  0.37500000       0.003
  -0.41666667  0.08333333  0.37500000       0.003
  -0.33333333  0.08333333  0.37500000       0.003
  -0.25000000  0.08333333  0.37500000       0.007
  -0.16666667  0.08333333  0.37500000       0.003
  -0.08333333  0.08333333  0.37500000       0.003
   0.16666667  0.16666667  0.37500000       0.002
   0.33333333  0.16666667  0.37500000       0.003
   0.41666667  0.16666667  0.37500000       0.003
  -0.41666667  0.16666667  0.37500000       0.003
  -0.33333333  0.16666667  0.37500000       0.003
  -0.25000000  0.16666667  0.37500000       0.007
  -0.16666667  0.16666667  0.37500000       0.003
  -0.08333333  0.16666667  0.37500000       0.003
   0.33333333  0.33333333  0.37500000       0.002
   0.41666667  0.33333333  0.37500000       0.003
  -0.41666667  0.33333333  0.37500000       0.003
  -0.33333333  0.33333333  0.37500000       0.003
  -0.25000000  0.33333333  0.37500000       0.007
  -0.16666667  0.33333333  0.37500000       0.003
  -0.08333333  0.33333333  0.37500000       0.003
   0.41666667  0.41666667  0.37500000       0.002
  -0.41666667  0.41666667  0.37500000       0.003
  -0.33333333  0.41666667  0.37500000       0.003
  -0.16666667  0.41666667  0.37500000       0.003
  -0.08333333  0.41666667  0.37500000       0.003
  -0.41666667 -0.41666667  0.37500000       0.002
  -0.33333333 -0.41666667  0.37500000       0.003
  -0.16666667 -0.41666667  0.37500000       0.003
  -0.08333333 -0.41666667  0.37500000       0.003
  -0.33333333 -0.33333333  0.37500000       0.002
  -0.16666667 -0.33333333  0.37500000       0.003
  -0.08333333 -0.33333333  0.37500000       0.003
  -0.16666667 -0.25000000  0.37500000       0.007
  -0.16666667 -0.16666667  0.37500000       0.002
  -0.08333333 -0.16666667  0.37500000       0.003
  -0.08333333 -0.08333333  0.37500000       0.002
   0.16666667  0.08333333  0.50000000       0.007
   0.41666667  0.08333333  0.50000000       0.003
  -0.41666667  0.08333333  0.50000000       0.003
  -0.33333333  0.08333333  0.50000000       0.007
  -0.08333333  0.08333333  0.50000000       0.003
   0.33333333  0.16666667  0.50000000       0.003
  -0.33333333  0.16666667  0.50000000       0.003
  -0.16666667  0.16666667  0.50000000       0.003
 
 position of ions in fractional coordinates (direct lattice) 
   0.00000000  0.00000000  0.00000000
   0.25000000  0.25000000  0.24999999
 
 position of ions in cartesian coordinates  (Angst):
   0.00000000  0.00000000  0.00000000
   1.29936775  0.75019032  0.53046464
 


--------------------------------------------------------------------------------------------------------


 k-point  1 :   0.0000 0.0000 0.0000  plane waves:     609
 k-point  2 :   0.0833 0.0000 0.0000  plane waves:     624
 k-point  3 :   0.1667-0.0000-0.0000  plane waves:     637
 k-point  4 :   0.2500 0.0000-0.0000  plane waves:     631
 k-point  5 :   0.3333 0.0000 0.0000  plane waves:     613
 k-point  6 :   0.4167 0.0000-0.0000  plane waves:     628
 k-point  7 :   0.5000 0.0000-0.0000  plane waves:     628
 k-point  8 :   0.0833 0.0833-0.0000  plane waves:     625
 k-point  9 :   0.1667 0.0833-0.0000  plane waves:     632
 k-point 10 :   0.2500 0.0833-0.0000  plane waves:     634
 k-point 11 :   0.3333 0.0833 0.0000  plane waves:     630
 k-point 12 :   0.4167 0.0833-0.0000  plane waves:     632
 k-point 13 :   0.5000 0.0833-0.0000  plane waves:     633
 k-point 14 :  -0.4167 0.0833-0.0000  plane waves:     629
 k-point 15 :  -0.3333 0.0833-0.0000  plane waves:     627
 k-point 16 :  -0.2500 0.0833 0.0000  plane waves:     627
 k-point 17 :  -0.1667 0.0833 0.0000  plane waves:     631
 k-point 18 :  -0.0833 0.0833-0.0000  plane waves:     630
 k-point 19 :   0.1667 0.1667 0.0000  plane waves:     637
 k-point 20 :   0.2500 0.1667-0.0000  plane waves:     627
 k-point 21 :   0.3333 0.1667-0.0000  plane waves:     630
 k-point 22 :   0.4167 0.1667 0.0000  plane waves:     632
 k-point 23 :   0.5000 0.1667-0.0000  plane waves:     640
 k-point 24 :  -0.4167 0.1667 0.0000  plane waves:     641
 k-point 25 :  -0.3333 0.1667 0.0000  plane waves:     631
 k-point 26 :  -0.2500 0.1667 0.0000  plane waves:     635
 k-point 27 :  -0.1667 0.1667 0.0000  plane waves:     630
 k-point 28 :   0.2500 0.2500-0.0000  plane waves:     632
 k-point 29 :   0.3333 0.2500 0.0000  plane waves:     635
 k-point 30 :   0.4167 0.2500-0.0000  plane waves:     642
 k-point 31 :   0.5000 0.2500-0.0000  plane waves:     643
 k-point 32 :  -0.4167 0.2500 0.0000  plane waves:     641
 k-point 33 :  -0.3333 0.2500 0.0000  plane waves:     639
 k-point 34 :  -0.2500 0.2500 0.0000  plane waves:     636
 k-point 35 :   0.3333 0.3333 0.0000  plane waves:     640
 k-point 36 :   0.4167 0.3333-0.0000  plane waves:     640
 k-point 37 :   0.5000 0.3333 0.0000  plane waves:     640
 k-point 38 :  -0.4167 0.3333 0.0000  plane waves:     644
 k-point 39 :  -0.3333 0.3333 0.0000  plane waves:     650
 k-point 40 :   0.4167 0.4167-0.0000  plane waves:     636
 k-point 41 :   0.5000 0.4167-0.0000  plane waves:     640
 k-point 42 :  -0.4167 0.4167-0.0000  plane waves:     640
 k-point 43 :   0.5000 0.5000-0.0000  plane waves:     636
 k-point 44 :   0.0000 0.0000 0.1250  plane waves:     631
 k-point 45 :   0.0833 0.0000 0.1250  plane waves:     628
 k-point 46 :   0.1667-0.0000 0.1250  plane waves:     634
 k-point 47 :   0.2500 0.0000 0.1250  plane waves:     632
 k-point 48 :   0.3333 0.0000 0.1250  plane waves:     632
 k-point 49 :   0.4167 0.0000 0.1250  plane waves:     632
 k-point 50 :   0.5000 0.0000 0.1250  plane waves:     634
 k-point 51 :  -0.4167 0.0000 0.1250  plane waves:     635
 k-point 52 :  -0.3333-0.0000 0.1250  plane waves:     630
 k-point 53 :  -0.2500 0.0000 0.1250  plane waves:     633
 k-point 54 :  -0.1667 0.0000 0.1250  plane waves:     628
 k-point 55 :  -0.0833 0.0000 0.1250  plane waves:     629
 k-point 56 :   0.0833 0.0833 0.1250  plane waves:     626
 k-point 57 :   0.1667 0.0833 0.1250  plane waves:     631
 k-point 58 :   0.2500 0.0833 0.1250  plane waves:     628
 k-point 59 :   0.3333 0.0833 0.1250  plane waves:     631
 k-point 60 :   0.4167 0.0833 0.1250  plane waves:     629
 k-point 61 :   0.5000 0.0833 0.1250  plane waves:     634
 k-point 62 :  -0.4167 0.0833 0.1250  plane waves:     632
 k-point 63 :  -0.3333 0.0833 0.1250  plane waves:     634
 k-point 64 :  -0.2500 0.0833 0.1250  plane waves:     628
 k-point 65 :  -0.1667 0.0833 0.1250  plane waves:     630
 k-point 66 :  -0.0833 0.0833 0.1250  plane waves:     631
 k-point 67 :   0.1667 0.1667 0.1250  plane waves:     634
 k-point 68 :   0.3333 0.1667 0.1250  plane waves:     632
 k-point 69 :   0.4167 0.1667 0.1250  plane waves:     631
 k-point 70 :   0.5000 0.1667 0.1250  plane waves:     634
 k-point 71 :  -0.4167 0.1667 0.1250  plane waves:     638
 k-point 72 :  -0.3333 0.1667 0.1250  plane waves:     637
 k-point 73 :  -0.2500 0.1667 0.1250  plane waves:     629
 k-point 74 :  -0.1667 0.1667 0.1250  plane waves:     631
 k-point 75 :  -0.0833 0.1667 0.1250  plane waves:     634
 k-point 76 :   0.3333 0.2500 0.1250  plane waves:     632
 k-point 77 :   0.4167 0.2500 0.1250  plane waves:     633
 k-point 78 :   0.5000 0.2500 0.1250  plane waves:     640
 k-point 79 :  -0.4167 0.2500 0.1250  plane waves:     642
 k-point 80 :   0.3333 0.3333 0.1250  plane waves:     631
 k-point 81 :   0.4167 0.3333 0.1250  plane waves:     637
 k-point 82 :   0.5000 0.3333 0.1250  plane waves:     646
 k-point 83 :  -0.4167 0.3333 0.1250  plane waves:     643
 k-point 84 :  -0.3333 0.3333 0.1250  plane waves:     643
 k-point 85 :  -0.2500 0.3333 0.1250  plane waves:     644
 k-point 86 :  -0.1667 0.3333 0.1250  plane waves:     641
 k-point 87 :  -0.0833 0.3333 0.1250  plane waves:     633
 k-point 88 :   0.4167 0.4167 0.1250  plane waves:     642
 k-point 89 :   0.5000 0.4167 0.1250  plane waves:     644
 k-point 90 :  -0.4167 0.4167 0.1250  plane waves:     646
 k-point 91 :  -0.3333 0.4167 0.1250  plane waves:     644
 k-point 92 :  -0.2500 0.4167 0.1250  plane waves:     643
 k-point 93 :  -0.1667 0.4167 0.1250  plane waves:     642
 k-point 94 :  -0.0833 0.4167 0.1250  plane waves:     635
 k-point 95 :   0.5000 0.5000 0.1250  plane waves:     644
 k-point 96 :  -0.4167 0.5000 0.1250  plane waves:     641
 k-point 97 :  -0.3333 0.5000 0.1250  plane waves:     641
 k-point 98 :  -0.2500 0.5000 0.1250  plane waves:     643
 k-point 99 :  -0.1667 0.5000 0.1250  plane waves:     643
 k-point ** :  -0.0833 0.5000 0.1250  plane waves:     640
 k-point ** :  -0.4167-0.4167 0.1250  plane waves:     644
 k-point ** :  -0.3333-0.4167 0.1250  plane waves:     641
 k-point ** :  -0.2500-0.4167 0.1250  plane waves:     648
 k-point ** :  -0.1667-0.4167 0.1250  plane waves:     642
 k-point ** :  -0.0833-0.4167 0.1250  plane waves:     642
 k-point ** :  -0.3333-0.3333 0.1250  plane waves:     642
 k-point ** :  -0.2500-0.3333 0.1250  plane waves:     644
 k-point ** :  -0.1667-0.3333 0.1250  plane waves:     638
 k-point ** :  -0.0833-0.3333 0.1250  plane waves:     632
 k-point ** :  -0.2500-0.2500 0.1250  plane waves:     635
 k-point ** :  -0.1667-0.2500 0.1250  plane waves:     634
 k-point ** :  -0.0833-0.2500 0.1250  plane waves:     633
 k-point ** :  -0.1667-0.1667 0.1250  plane waves:     629
 k-point ** :  -0.0833-0.1667 0.1250  plane waves:     631
 k-point ** :  -0.0833-0.0833 0.1250  plane waves:     633
 k-point ** :   0.1667 0.0833 0.2500  plane waves:     630
 k-point ** :   0.3333 0.0833 0.2500  plane waves:     630
 k-point ** :   0.4167 0.0833 0.2500  plane waves:     632
 k-point ** :   0.5000 0.0833 0.2500  plane waves:     638
 k-point ** :  -0.4167 0.0833 0.2500  plane waves:     643
 k-point ** :  -0.3333 0.0833 0.2500  plane waves:     645
 k-point ** :  -0.2500 0.0833 0.2500  plane waves:     638
 k-point ** :  -0.1667 0.0833 0.2500  plane waves:     637
 k-point ** :  -0.0833 0.0833 0.2500  plane waves:     632
 k-point ** :   0.4167 0.3333 0.2500  plane waves:     631
 k-point ** :  -0.4167 0.3333 0.2500  plane waves:     643
 k-point ** :  -0.3333 0.3333 0.2500  plane waves:     645
 k-point ** :  -0.2500 0.3333 0.2500  plane waves:     648
 k-point ** :  -0.1667 0.3333 0.2500  plane waves:     646
 k-point ** :  -0.0833 0.3333 0.2500  plane waves:     641
 k-point ** :  -0.4167 0.4167 0.2500  plane waves:     645
 k-point ** :  -0.3333 0.4167 0.2500  plane waves:     642
 k-point ** :  -0.2500 0.4167 0.2500  plane waves:     642
 k-point ** :  -0.1667 0.4167 0.2500  plane waves:     646
 k-point ** :  -0.2500 0.5000 0.2500  plane waves:     648
 k-point ** :  -0.3333-0.4167 0.2500  plane waves:     647
 k-point ** :   0.0000 0.0000 0.3750  plane waves:     622
 k-point ** :   0.0833 0.0000 0.3750  plane waves:     627
 k-point ** :   0.1667-0.0000 0.3750  plane waves:     626
 k-point ** :   0.3333 0.0000 0.3750  plane waves:     635
 k-point ** :   0.4167 0.0000 0.3750  plane waves:     637
 k-point ** :  -0.4167 0.0000 0.3750  plane waves:     640
 k-point ** :  -0.3333-0.0000 0.3750  plane waves:     645
 k-point ** :  -0.2500 0.0000 0.3750  plane waves:     641
 k-point ** :  -0.1667 0.0000 0.3750  plane waves:     635
 k-point ** :  -0.0833 0.0000 0.3750  plane waves:     627
 k-point ** :   0.0833 0.0833 0.3750  plane waves:     629
 k-point ** :   0.1667 0.0833 0.3750  plane waves:     631
 k-point ** :   0.3333 0.0833 0.3750  plane waves:     635
 k-point ** :   0.4167 0.0833 0.3750  plane waves:     636
 k-point ** :  -0.4167 0.0833 0.3750  plane waves:     643
 k-point ** :  -0.3333 0.0833 0.3750  plane waves:     648
 k-point ** :  -0.2500 0.0833 0.3750  plane waves:     646
 k-point ** :  -0.1667 0.0833 0.3750  plane waves:     644
 k-point ** :  -0.0833 0.0833 0.3750  plane waves:     633
 k-point ** :   0.1667 0.1667 0.3750  plane waves:     635
 k-point ** :   0.3333 0.1667 0.3750  plane waves:     629
 k-point ** :   0.4167 0.1667 0.3750  plane waves:     631
 k-point ** :  -0.4167 0.1667 0.3750  plane waves:     648
 k-point ** :  -0.3333 0.1667 0.3750  plane waves:     643
 k-point ** :  -0.2500 0.1667 0.3750  plane waves:     643
 k-point ** :  -0.1667 0.1667 0.3750  plane waves:     645
 k-point ** :  -0.0833 0.1667 0.3750  plane waves:     638
 k-point ** :   0.3333 0.3333 0.3750  plane waves:     622
 k-point ** :   0.4167 0.3333 0.3750  plane waves:     629
 k-point ** :  -0.4167 0.3333 0.3750  plane waves:     643
 k-point ** :  -0.3333 0.3333 0.3750  plane waves:     644
 k-point ** :  -0.2500 0.3333 0.3750  plane waves:     642
 k-point ** :  -0.1667 0.3333 0.3750  plane waves:     643
 k-point ** :  -0.0833 0.3333 0.3750  plane waves:     643
 k-point ** :   0.4167 0.4167 0.3750  plane waves:     629
 k-point ** :  -0.4167 0.4167 0.3750  plane waves:     641
 k-point ** :  -0.3333 0.4167 0.3750  plane waves:     644
 k-point ** :  -0.1667 0.4167 0.3750  plane waves:     640
 k-point ** :  -0.0833 0.4167 0.3750  plane waves:     643
 k-point ** :  -0.4167-0.4167 0.3750  plane waves:     641
 k-point ** :  -0.3333-0.4167 0.3750  plane waves:     644
 k-point ** :  -0.1667-0.4167 0.3750  plane waves:     646
 k-point ** :  -0.0833-0.4167 0.3750  plane waves:     642
 k-point ** :  -0.3333-0.3333 0.3750  plane waves:     642
 k-point ** :  -0.1667-0.3333 0.3750  plane waves:     646
 k-point ** :  -0.0833-0.3333 0.3750  plane waves:     648
 k-point ** :  -0.1667-0.2500 0.3750  plane waves:     643
 k-point ** :  -0.1667-0.1667 0.3750  plane waves:     638
 k-point ** :  -0.0833-0.1667 0.3750  plane waves:     637
 k-point ** :  -0.0833-0.0833 0.3750  plane waves:     636
 k-point ** :   0.1667 0.0833 0.5000  plane waves:     637
 k-point ** :   0.4167 0.0833 0.5000  plane waves:     644
 k-point ** :  -0.4167 0.0833 0.5000  plane waves:     648
 k-point ** :  -0.3333 0.0833 0.5000  plane waves:     643
 k-point ** :  -0.0833 0.0833 0.5000  plane waves:     636
 k-point ** :   0.3333 0.1667 0.5000  plane waves:     641
 k-point ** :  -0.3333 0.1667 0.5000  plane waves:     642
 k-point ** :  -0.1667 0.1667 0.5000  plane waves:     648

 maximum and minimum number of plane-waves per node :       227      200

 maximum number of plane-waves:       650
 maximum index in each direction: 
   IXMAX=    6   IYMAX=    6   IZMAX=    5
   IXMIN=   -6   IYMIN=   -6   IZMIN=   -6

 WARNING: aliasing errors must be expected set NGX to  26 to avoid them
 WARNING: aliasing errors must be expected set NGY to  26 to avoid them
 NGZ is ok and might be reduce to  24
 aliasing errors are usually negligible using standard VASP settings
 and one can safely disregard these warnings

 parallel 3D FFT for wavefunctions:
    minimum data exchange during FFTs selected (reduces bandwidth)
 parallel 3D FFT for charge:
    minimum data exchange during FFTs selected (reduces bandwidth)


 total amount of memory used by VASP on root node    37640. kBytes
========================================================================

   base      :      30000. kBytes
   nonl-proj :       2838. kBytes
   fftplans  :        773. kBytes
   grid      :       1096. kBytes
   one-center:          3. kBytes
   wavefun   :       2930. kBytes
 
     INWAV:  cpu time    0.00: real time    0.00
 Broyden mixing: mesh for mixing (old mesh)
   NGX = 11   NGY = 11   NGZ = 11
  (NGX  = 48   NGY  = 48   NGZ  = 48)
  gives a total of   1331 points

 initial charge density was supplied:
 charge density of overlapping atoms calculated
 number of electron       8.0000000 magnetization 
 keeping initial charge density in first step


--------------------------------------------------------------------------------------------------------


 Maximum index for augmentation-charges         2123 (set IRDMAX)


--------------------------------------------------------------------------------------------------------


 First call to EWALD:  gamma=   0.766
 Maximum number of real-space cells 3x 3x 3
 Maximum number of reciprocal cells 3x 3x 3

 FEWALD executed in parallel
    FEWALD:  cpu time    0.00: real time    0.00


----------------------------------------- Iteration    1(   1)  ---------------------------------------


    POTLOK:  cpu time    0.04: real time    0.04
    SETDIJ:  cpu time    0.00: real time    0.00
     EDDAV:  cpu time    3.90: real time    3.92
 BZINTS: Fermi energy: 17.016702;  8.000000 electrons
         Band energy:  18.668567;  BLOECHL correction: -0.217792
       DOS:  cpu time    0.04: real time    0.04
    --------------------------------------------
      LOOP:  cpu time    3.98: real time    4.02

 eigenvalue-minimisations  :  3112
 total energy-change (2. order) : 0.7639608E+01  (-0.6338052E+03)
 number of electron       8.0000000 magnetization 
 augmentation part        8.0000000 magnetization 

 Free energy of the ion-electron system (eV)
  ---------------------------------------------------
  alpha Z        PSCENC =        26.26277575
  Ewald energy   TEWEN  =      -337.69891929
  -Hartree energ DENC   =       -19.64257776
  -exchange      EXHF   =         0.00000000
  -V(xc)+E(xc)   XCENC  =        28.04187436
  PAW double counting   =        75.66288619      -77.96384553
  entropy T*S    EENTRO =         0.00000000
  eigenvalues    EBANDS =        18.66856726
  atomic energy  EATOM  =       294.30884690
  ---------------------------------------------------
  free energy    TOTEN  =         7.63960788 eV

  energy without entropy =        7.63960788  energy(sigma->0) =        7.63960788


--------------------------------------------------------------------------------------------------------




----------------------------------------- Iteration    1(   2)  ---------------------------------------


     EDDAV:  cpu time    5.49: real time    5.50
 BZINTS: Fermi energy:  7.281166;  8.000000 electrons
         Band energy:  -7.316309;  BLOECHL correction: -0.000000
       DOS:  cpu time    0.01: real time    0.01
    --------------------------------------------
      LOOP:  cpu time    5.51: real time    5.51

 eigenvalue-minimisations  :  4808
 total energy-change (2. order) :-0.2598488E+02  (-0.2563545E+02)
 number of electron       8.0000000 magnetization 
 augmentation part        8.0000000 magnetization 

 Free energy of the ion-electron system (eV)
  ---------------------------------------------------
  alpha Z        PSCENC =        26.26277575
  Ewald energy   TEWEN  =      -337.69891929
  -Hartree energ DENC   =       -19.64257776
  -exchange      EXHF   =         0.00000000
  -V(xc)+E(xc)   XCENC  =        28.04187436
  PAW double counting   =        75.66288619      -77.96384553
  entropy T*S    EENTRO =         0.00000000
  eigenvalues    EBANDS =        -7.31630937
  atomic energy  EATOM  =       294.30884690
  ---------------------------------------------------
  free energy    TOTEN  =       -18.34526876 eV

  energy without entropy =      -18.34526876  energy(sigma->0) =      -18.34526876


--------------------------------------------------------------------------------------------------------




----------------------------------------- Iteration    1(   3)  ---------------------------------------


     EDDAV:  cpu time    4.17: real time    4.17
 BZINTS: Fermi energy:  7.280279;  8.000000 electrons
         Band energy:  -7.537929;  BLOECHL correction:  0.000000
       DOS:  cpu time    0.01: real time    0.01
    --------------------------------------------
      LOOP:  cpu time    4.19: real time    4.19

 eigenvalue-minimisations  :  3408
 total energy-change (2. order) :-0.2216194E+00  (-0.2216194E+00)
 number of electron       8.0000000 magnetization 
 augmentation part        8.0000000 magnetization 

 Free energy of the ion-electron system (eV)
  ---------------------------------------------------
  alpha Z        PSCENC =        26.26277575
  Ewald energy   TEWEN  =      -337.69891929
  -Hartree energ DENC   =       -19.64257776
  -exchange      EXHF   =         0.00000000
  -V(xc)+E(xc)   XCENC  =        28.04187436
  PAW double counting   =        75.66288619      -77.96384553
  entropy T*S    EENTRO =         0.00000000
  eigenvalues    EBANDS =        -7.53792876
  atomic energy  EATOM  =       294.30884690
  ---------------------------------------------------
  free energy    TOTEN  =       -18.56688815 eV

  energy without entropy =      -18.56688815  energy(sigma->0) =      -18.56688815


--------------------------------------------------------------------------------------------------------




----------------------------------------- Iteration    1(   4)  ---------------------------------------


     EDDAV:  cpu time    5.09: real time    5.09
 BZINTS: Fermi energy:  7.318648;  8.000000 electrons
         Band energy:  -7.538325;  BLOECHL correction:  0.000000
       DOS:  cpu time    0.01: real time    0.01
    --------------------------------------------
      LOOP:  cpu time    5.10: real time    5.11

 eigenvalue-minimisations  :  4448
 total energy-change (2. order) :-0.3958992E-03  (-0.3958992E-03)
 number of electron       8.0000000 magnetization 
 augmentation part        8.0000000 magnetization 

 Free energy of the ion-electron system (eV)
  ---------------------------------------------------
  alpha Z        PSCENC =        26.26277575
  Ewald energy   TEWEN  =      -337.69891929
  -Hartree energ DENC   =       -19.64257776
  -exchange      EXHF   =         0.00000000
  -V(xc)+E(xc)   XCENC  =        28.04187436
  PAW double counting   =        75.66288619      -77.96384553
  entropy T*S    EENTRO =         0.00000000
  eigenvalues    EBANDS =        -7.53832466
  atomic energy  EATOM  =       294.30884690
  ---------------------------------------------------
  free energy    TOTEN  =       -18.56728405 eV

  energy without entropy =      -18.56728405  energy(sigma->0) =      -18.56728405


--------------------------------------------------------------------------------------------------------




----------------------------------------- Iteration    1(   5)  ---------------------------------------


     EDDAV:  cpu time    4.19: real time    4.20
 BZINTS: Fermi energy:  7.317792;  8.000000 electrons
         Band energy:  -7.538325;  BLOECHL correction:  0.000000
       DOS:  cpu time    0.01: real time    0.01
    CHARGE:  cpu time    0.07: real time    0.07
    MIXING:  cpu time    0.00: real time    0.00
    --------------------------------------------
      LOOP:  cpu time    4.28: real time    4.28

 eigenvalue-minimisations  :  3416
 total energy-change (2. order) :-0.3242699E-06  (-0.3242699E-06)
 number of electron       8.0000000 magnetization 
 augmentation part        0.1815286 magnetization 

 Broyden mixing:
  rms(total) = 0.42726E+00    rms(broyden)= 0.42725E+00
  rms(prec ) = 0.16027E+01
  weight for this iteration     100.00

 Free energy of the ion-electron system (eV)
  ---------------------------------------------------
  alpha Z        PSCENC =        26.26277575
  Ewald energy   TEWEN  =      -337.69891929
  -Hartree energ DENC   =       -19.64257776
  -exchange      EXHF   =         0.00000000
  -V(xc)+E(xc)   XCENC  =        28.04187436
  PAW double counting   =        75.66288619      -77.96384553
  entropy T*S    EENTRO =         0.00000000
  eigenvalues    EBANDS =        -7.53832499
  atomic energy  EATOM  =       294.30884690
  ---------------------------------------------------
  free energy    TOTEN  =       -18.56728437 eV

  energy without entropy =      -18.56728437  energy(sigma->0) =      -18.56728437


--------------------------------------------------------------------------------------------------------




----------------------------------------- Iteration    1(   6)  ---------------------------------------


    POTLOK:  cpu time    0.04: real time    0.04
    SETDIJ:  cpu time    0.00: real time    0.00
     EDDAV:  cpu time    4.00: real time    4.01
 BZINTS: Fermi energy:  7.855469;  8.000000 electrons
         Band energy:  -3.888304;  BLOECHL correction:  0.000000
       DOS:  cpu time    0.01: real time    0.01
    CHARGE:  cpu time    0.07: real time    0.07
    MIXING:  cpu time    0.00: real time    0.00
    --------------------------------------------
      LOOP:  cpu time    4.13: real time    4.14

 eigenvalue-minimisations  :  3224
 total energy-change (2. order) : 0.3603940E+00  (-0.2811598E-01)
 number of electron       8.0000000 magnetization 
 augmentation part        0.1774494 magnetization 

 Broyden mixing:
  rms(total) = 0.23717E+00    rms(broyden)= 0.23717E+00
  rms(prec ) = 0.87248E+00
  weight for this iteration     100.00

 eigenvalues of (default mixing * dielectric matrix)
  average eigenvalue GAMMA=   2.1889
  2.1889

 Free energy of the ion-electron system (eV)
  ---------------------------------------------------
  alpha Z        PSCENC =        26.26277575
  Ewald energy   TEWEN  =      -337.69891929
  -Hartree energ DENC   =       -23.14027369
  -exchange      EXHF   =         0.00000000
  -V(xc)+E(xc)   XCENC  =        28.36598349
  PAW double counting   =        94.26535676      -96.68235583
  entropy T*S    EENTRO =         0.00000000
  eigenvalues    EBANDS =        -3.88830446
  atomic energy  EATOM  =       294.30884690
  ---------------------------------------------------
  free energy    TOTEN  =       -18.20689037 eV

  energy without entropy =      -18.20689037  energy(sigma->0) =      -18.20689037


--------------------------------------------------------------------------------------------------------




----------------------------------------- Iteration    1(   7)  ---------------------------------------


    POTLOK:  cpu time    0.04: real time    0.04
    SETDIJ:  cpu time    0.00: real time    0.00
[...]
  band No.  band energies     occupation 
      1      -5.1462      2.00000
      2      -1.5735      2.00000
      3       0.6328      2.00000
      4       2.9209      2.00000
      5      17.3600      0.00000
      6      17.8744      0.00000
      7      19.7836      0.00000
      8      21.9774      0.00000

 k-point   162 :      -0.1667    0.1667    0.3750
  band No.  band energies     occupation 
      1      -6.5024      2.00000
      2      -0.5510      2.00000
      3       1.4136      2.00000
      4       3.7077      2.00000
      5      16.3414      0.00000
      6      17.9806      0.00000
      7      19.0910      0.00000
      8      21.9720      0.00000

 k-point   163 :      -0.0833    0.1667    0.3750
  band No.  band energies     occupation 
      1      -7.6916      2.00000
      2      -0.0694      2.00000
      3       3.1039      2.00000
      4       4.5305      2.00000
      5      14.9315      0.00000
      6      18.5878      0.00000
      7      19.0483      0.00000
      8      20.5915      0.00000

 k-point   164 :       0.3333    0.3333    0.3750
  band No.  band energies     occupation 
      1      -8.7224      2.00000
      2      -0.6760      2.00000
      3       5.9031      2.00000
      4       6.4418      2.00000
      5      16.1887      0.00000
      6      16.2809      0.00000
      7      16.6254      0.00000
      8      22.6081      0.00000

 k-point   165 :       0.4167    0.3333    0.3750
  band No.  band energies     occupation 
      1      -8.1698      2.00000
      2      -1.4136      2.00000
      3       5.4733      2.00000
      4       6.1459      2.00000
      5      16.1106      0.00000
      6      16.5410      0.00000
      7      17.0736      0.00000
      8      22.6153      0.00000

 k-point   166 :      -0.4167    0.3333    0.3750
  band No.  band energies     occupation 
      1      -6.1870      2.00000
      2      -1.9691      2.00000
      3       1.7040      2.00000
      4       4.8758      2.00000
      5      15.5413      0.00000
      6      18.5627      0.00000
      7      20.2518      0.00000
      8      22.2691      0.00000

 k-point   167 :      -0.3333    0.3333    0.3750
  band No.  band energies     occupation 
      1      -4.9270      2.00000
      2      -2.0256      2.00000
      3       0.0993      2.00000
      4       4.0720      2.00000
      5      14.7597      0.00000
      6      20.2974      0.00000
      7      20.9869      0.00000
      8      21.9345      0.00000

 k-point   168 :      -0.2500    0.3333    0.3750
  band No.  band energies     occupation 
      1      -4.0728      2.00000
      2      -2.5876      2.00000
      3       0.1174      2.00000
      4       3.4477      2.00000
      5      14.1455      0.00000
      6      18.6019      0.00000
      7      21.6300      0.00000
      8      22.5960      0.00000

 k-point   169 :      -0.1667    0.3333    0.3750
  band No.  band energies     occupation 
      1      -5.0848      2.00000
      2      -1.7731      2.00000
      3       1.2670      2.00000
      4       3.0949      2.00000
      5      13.7006      0.00000
      6      16.2460      0.00000
      7      22.2655      0.00000
      8      22.9535      0.00000

 k-point   170 :      -0.0833    0.3333    0.3750
  band No.  band energies     occupation 
      1      -6.4287      2.00000
      2      -0.4740      2.00000
      3       2.6041      2.00000
      4       3.0616      2.00000
      5      13.0515      0.00000
      6      15.1074      0.00000
      7      22.3575      0.00000
      8      22.8199      0.00000

 k-point   171 :       0.4167    0.4167    0.3750
  band No.  band energies     occupation 
      1      -7.7537      2.00000
      2      -2.2265      2.00000
      3       5.8730      2.00000
      4       6.0230      2.00000
      5      16.1626      0.00000
      6      16.4431      0.00000
      7      16.7960      0.00000
      8      23.0047      0.00000

 k-point   172 :      -0.4167    0.4167    0.3750
  band No.  band energies     occupation 
      1      -6.1105      2.00000
      2      -2.8116      2.00000
      3       2.8114      2.00000
      4       5.0066      2.00000
      5      15.6967      0.00000
      6      17.9997      0.00000
      7      19.4306      0.00000
      8      22.6675      0.00000

 k-point   173 :      -0.3333    0.4167    0.3750
  band No.  band energies     occupation 
      1      -5.0731      2.00000
      2      -2.5551      2.00000
      3       0.9776      2.00000
      4       4.1651      2.00000
      5      14.8501      0.00000
      6      19.8573      0.00000
      7      20.8617      0.00000
      8      21.6795      0.00000

 k-point   174 :      -0.1667    0.4167    0.3750
  band No.  band energies     occupation 
      1      -4.0016      2.00000
      2      -2.8189      2.00000
      3       1.0097      2.00000
      4       2.9764      2.00000
      5      13.6734      0.00000
      6      16.0185      0.00000
      7      22.7749      0.00000
      8      23.2346      0.00000

 k-point   175 :      -0.0833    0.4167    0.3750
  band No.  band energies     occupation 
      1      -5.3378      2.00000
      2      -1.7143      2.00000
      3       2.3307      2.00000
      4       2.8083      2.00000
      5      13.1640      0.00000
      6      14.4532      0.00000
      7      23.0956      0.00000
      8      23.4340      0.00000

 k-point   176 :      -0.4167   -0.4167    0.3750
  band No.  band energies     occupation 
      1      -5.6875      2.00000
      2      -3.0345      2.00000
      3       2.4377      2.00000
      4       4.7928      2.00000
      5      15.1756      0.00000
      6      19.0034      0.00000
      7      19.5670      0.00000
      8      22.3632      0.00000

 k-point   177 :      -0.3333   -0.4167    0.3750
  band No.  band energies     occupation 
      1      -5.4859      2.00000
      2      -2.3036      2.00000
      3       1.3080      2.00000
      4       4.1471      2.00000
      5      15.7295      0.00000
      6      18.5947      0.00000
      7      20.9407      0.00000
      8      21.9646      0.00000

 k-point   178 :      -0.1667   -0.4167    0.3750
  band No.  band energies     occupation 
      1      -4.5957      2.00000
      2      -1.8505      2.00000
      3       0.9087      2.00000
      4       2.0518      2.00000
      5      16.3986      0.00000
      6      17.7781      0.00000
      7      19.9846      0.00000
      8      22.3115      0.00000

 k-point   179 :      -0.0833   -0.4167    0.3750
  band No.  band energies     occupation 
      1      -3.8924      2.00000
      2      -2.7005      2.00000
      3       0.5478      2.00000
      4       2.7879      2.00000
      5      14.4853      0.00000
      6      17.3340      0.00000
      7      21.8958      0.00000
      8      22.6764      0.00000

 k-point   180 :      -0.3333   -0.3333    0.3750
  band No.  band energies     occupation 
      1      -5.5899      2.00000
      2      -1.6195      2.00000
      3       0.3409      2.00000
      4       4.5703      2.00000
      5      14.9092      0.00000
      6      19.8137      0.00000
      7      21.3024      0.00000
      8      21.9510      0.00000

 k-point   181 :      -0.1667   -0.3333    0.3750
  band No.  band energies     occupation 
      1      -5.1579      2.00000
      2      -2.1496      2.00000
      3       1.2211      2.00000
      4       3.1701      2.00000
      5      16.9127      0.00000
      6      17.7790      0.00000
      7      20.4363      0.00000
      8      21.8606      0.00000

 k-point   182 :      -0.0833   -0.3333    0.3750
  band No.  band energies     occupation 
      1      -4.7401      2.00000
      2      -2.4491      2.00000
      3       0.7808      2.00000
      4       3.4766      2.00000
      5      15.0906      0.00000
      6      19.8602      0.00000
      7      20.0878      0.00000
      8      21.9583      0.00000

 k-point   183 :      -0.1667   -0.2500    0.3750
  band No.  band energies     occupation 
      1      -5.5802      2.00000
      2      -2.9471      2.00000
      3       2.3536      2.00000
      4       4.3593      2.00000
      5      15.8768      0.00000
      6      17.9139      0.00000
      7      20.3698      0.00000
      8      22.2761      0.00000

 k-point   184 :      -0.1667   -0.1667    0.3750
  band No.  band energies     occupation 
      1      -5.9990      2.00000
      2      -3.3291      2.00000
      3       3.5767      2.00000
      4       5.0035      2.00000
      5      15.4166      0.00000
      6      18.3971      0.00000
      7      18.6003      0.00000
      8      22.5391      0.00000

 k-point   185 :      -0.0833   -0.1667    0.3750
  band No.  band energies     occupation 
      1      -6.4278      2.00000
      2      -3.1099      2.00000
      3       4.0988      2.00000
      4       5.1936      2.00000
      5      16.3103      0.00000
      6      16.7710      0.00000
      7      18.6335      0.00000
      8      22.7606      0.00000

 k-point   186 :      -0.0833   -0.0833    0.3750
  band No.  band energies     occupation 
      1      -7.1544      2.00000
      2      -2.8123      2.00000
      3       5.4731      2.00000
      4       5.5624      2.00000
      5      15.9706      0.00000
      6      16.9288      0.00000
      7      17.2409      0.00000
      8      22.9048      0.00000

 k-point   187 :       0.1667    0.0833    0.5000
  band No.  band energies     occupation 
      1      -7.0987      2.00000
      2      -2.2286      2.00000
      3       4.1117      2.00000
      4       5.3640      2.00000
      5      16.1633      0.00000
      6      16.8854      0.00000
      7      18.5915      0.00000
      8      22.3045      0.00000

 k-point   188 :       0.4167    0.0833    0.5000
  band No.  band energies     occupation 
      1      -5.8205      2.00000
      2      -1.0956      2.00000
      3       2.3962      2.00000
      4       2.6660      2.00000
      5      13.4959      0.00000
      6      15.0341      0.00000
      7      22.3795      0.00000
      8      23.1758      0.00000

 k-point   189 :      -0.4167    0.0833    0.5000
  band No.  band energies     occupation 
      1      -3.5224      2.00000
      2      -3.5224      2.00000
      3       2.2536      2.00000
      4       2.2536      2.00000
      5      13.9983      0.00000
      6      13.9983      0.00000
      7      23.4926      0.00000
      8      23.4926      0.00000

 k-point   190 :      -0.3333    0.0833    0.5000
  band No.  band energies     occupation 
      1      -4.4759      2.00000
      2      -2.2614      2.00000
      3       1.1709      2.00000
      4       2.6262      2.00000
      5      14.2726      0.00000
      6      16.1774      0.00000
      7      22.1650      0.00000
      8      23.0699      0.00000

 k-point   191 :      -0.0833    0.0833    0.5000
  band No.  band energies     occupation 
      1      -6.1024      2.00000
      2      -3.5059      2.00000
      3       4.0980      2.00000
      4       5.1327      2.00000
      5      16.3759      0.00000
      6      16.7125      0.00000
      7      18.6469      0.00000
      8      22.9396      0.00000

 k-point   192 :       0.3333    0.1667    0.5000
  band No.  band energies     occupation 
      1      -7.1777      2.00000
      2       0.1845      2.00000
      3       1.7743      2.00000
      4       4.0924      2.00000
      5      15.7476      0.00000
      6      18.1554      0.00000
      7      18.8067      0.00000
      8      21.5774      0.00000

 k-point   193 :      -0.3333    0.1667    0.5000
  band No.  band energies     occupation 
      1      -3.2007      2.00000
      2      -3.2007      2.00000
      3       1.3655      2.00000
      4       1.3655      2.00000
      5      16.2887      0.00000
      6      16.2887      0.00000
      7      21.8753      0.00000
      8      21.8753      0.00000

 k-point   194 :      -0.1667    0.1667    0.5000
  band No.  band energies     occupation 
      1      -4.8460      2.00000
      2      -2.5031      2.00000
      3       1.2119      2.00000
      4       3.0934      2.00000
      5      16.9627      0.00000
      6      17.7516      0.00000
      7      21.0940      0.00000
      8      21.4105      0.00000


--------------------------------------------------------------------------------------------------------


 soft charge-density along one line, spin component           1
         0         1         2         3         4         5         6         7         8         9
 total charge-density along one line
 
 pseudopotential strength for first ion, spin component:           1
  9.510  -0.003   0.000   0.000   0.000  -0.000  -0.000  -0.000
 -0.003  -0.002  -0.000  -0.000  -0.000  -0.000  -0.000  -0.000
  0.000  -0.000  -3.730   0.000   0.000  -0.006   0.000   0.000
  0.000  -0.000   0.000  -3.730   0.000   0.000  -0.006   0.000
  0.000  -0.000   0.000   0.000  -3.730   0.000   0.000  -0.006
 -0.000  -0.000  -0.006   0.000   0.000  -0.759   0.000   0.000
 -0.000  -0.000   0.000  -0.006   0.000   0.000  -0.759   0.000
 -0.000  -0.000   0.000   0.000  -0.006   0.000   0.000  -0.759
 total augmentation occupancy for first ion, spin component:           1
  1.413  -0.882  -0.000  -0.000   0.000  -0.000  -0.000   0.000
 -0.882   0.804   0.000  -0.000  -0.000  -0.000  -0.000   0.000
  0.000   0.000   1.054  -0.000  -0.000   0.162  -0.000  -0.000
  0.000   0.000  -0.000   1.054  -0.000  -0.000   0.162  -0.000
  0.000  -0.000  -0.000  -0.000   1.054  -0.000  -0.000   0.162
  0.000  -0.000   0.162  -0.000  -0.000   0.030  -0.000  -0.000
  0.000  -0.000  -0.000   0.162  -0.000  -0.000   0.030  -0.000
  0.000   0.000  -0.000  -0.000   0.162  -0.000  -0.000   0.030


------------------------ aborting loop because EDIFF is reached ----------------------------------------


    CHARGE:  cpu time    0.07: real time    0.07
    FORLOC:  cpu time    0.00: real time    0.00
    FORNL :  cpu time    0.17: real time    0.17
    STRESS:  cpu time    0.55: real time    0.55
    FORHAR:  cpu time    0.01: real time    0.01
    MIXING:  cpu time    0.00: real time    0.00
    OFIELD:  cpu time    0.00: real time    0.00

 ---------------------------------------------------------------------------------------------

         DFTD3 V3.0 Rev 1        
 IVDW         = 12
 DF pbe       
 parameters
 VDW_S6       =    1.0000
 VDW_S8       =    0.7875
 VDW_A1       =    0.4289
 VDW_A2       =    4.4407
 k1-k3        =   16.0000    1.3333   -4.0000
 VDW_RADIUS   =   50.2022 A
 VDW_CNRADIUS =   21.1671 A
 Edisp (eV)   -0.34997

 E6    (eV) :    -0.2490
 E8    (eV) :    -0.1010
 % E8        : 28.85
    FORVDW:  cpu time    0.03: real time    0.03

  FORCE on cell =-STRESS in cart. coord.  units (eV):
  Direction    XX          YY          ZZ          XY          YZ          ZX
  --------------------------------------------------------------------------------------
  Alpha Z    26.26278    26.26278    26.26278
  Ewald    -112.56635  -112.56636  -112.56636     0.00000     0.00000     0.00000
  Hartree     9.23332     9.23332     9.23332     0.00000     0.00000     0.00000
  E(xc)     -29.32919   -29.32919   -29.32919     0.00000     0.00000     0.00000
  Local     -13.00524   -13.00524   -13.00523    -0.00000    -0.00000    -0.00000
  n-local    -5.90983    -6.27749    -6.28031    -0.36381    -0.01730    -0.07149
  augment    -0.63402    -0.63402    -0.63402     0.00000     0.00000     0.00000
  Kinetic   121.47445   125.07906   124.67056     2.59650     0.71692     0.92268
  Fock        0.00000     0.00000     0.00000     0.00000     0.00000     0.00000
  vdW        -0.34553    -0.34553    -0.34553    -0.00000    -0.00000    -0.00000
  -------------------------------------------------------------------------------------
  Total      -2.79876    -2.79876    -2.79876     0.00000     0.00000     0.00000
  in kB    -361.33066  -361.33066  -361.33066     0.00000     0.00000     0.00000
  external pressure =     -361.33 kB  Pullay stress =        0.00 kB


 VOLUME and BASIS-vectors are now :
 -----------------------------------------------------------------------------
  energy-cutoff  :      800.00
  volume of cell :       12.41
      direct lattice vectors                 reciprocal lattice vectors
     2.598735542  0.000000000  0.000000000     0.384802526 -0.222165842 -0.157094973
     1.299367771  2.250570997  0.000000000     0.000000000  0.444331684 -0.157094973
     1.299367771  0.750190332  2.121858684     0.000000000  0.000000000  0.471284920

  length of vectors
     2.598735542  2.598735542  2.598735542     0.471284920  0.471284920  0.471284920


 FORCES acting on ions
    electron-ion (+dipol)            ewald-force                    non-local-force                 convergence-correction
 -----------------------------------------------------------------------------------------------
   -.408E-05 -.235E-05 -.246E-05   -.152E-05 -.877E-06 -.247E-05   0.118E-15 0.399E-16 -.139E-16   -.204E-09 -.118E-09 -.841E-10
   0.574E-06 0.332E-06 0.533E-05   0.152E-05 0.877E-06 0.247E-05   -.118E-15 -.538E-16 0.139E-16   0.200E-09 0.115E-09 0.878E-10
 -----------------------------------------------------------------------------------------------
   -.350E-05 -.202E-05 0.287E-05   -.647E-17 0.240E-15 -.432E-15   0.000E+00 -.139E-16 0.000E+00   -.447E-11 -.258E-11 0.364E-11
 
 
 POSITION                                       TOTAL-FORCE (eV/Angst)
 -----------------------------------------------------------------------------------
      0.00000      0.00000      0.00000         0.000000      0.000000      0.000000
      1.29937      0.75019      0.53046        -0.000000     -0.000000     -0.000000
 -----------------------------------------------------------------------------------
    total drift:                               -0.000004     -0.000002      0.000003


--------------------------------------------------------------------------------------------------------



  FREE ENERGIE OF THE ION-ELECTRON SYSTEM (eV)
  ---------------------------------------------------
  free  energy   TOTEN  =       -18.43731934 eV

  energy  without entropy=      -18.43731934  energy(sigma->0) =      -18.43731934
 


--------------------------------------------------------------------------------------------------------


    POTLOK:  cpu time    0.05: real time    0.05


--------------------------------------------------------------------------------------------------------




--------------------------------------------------------------------------------------------------------


  
 reached required accuracy - stopping structural energy minimisation
     LOOP+:  cpu time   58.50: real time   58.62
    4ORBIT:  cpu time    0.00: real time    0.00
 BZINTS: Fermi energy:  8.605564;  8.000000 electrons
         Band energy:   0.434978;  BLOECHL correction:  0.000000

 total amount of memory used by VASP on root node    37640. kBytes
========================================================================

   base      :      30000. kBytes
   nonl-proj :       2838. kBytes
   fftplans  :        773. kBytes
   grid      :       1096. kBytes
   one-center:          3. kBytes
   wavefun   :       2930. kBytes
 
  
  
 General timing and accounting informations for this job:
 ========================================================
  
                  Total CPU time used (sec):       60.344
                            User time (sec):       28.207
                          System time (sec):       32.137
                         Elapsed time (sec):       61.017
  
                   Maximum memory used (kb):       50624.
                   Average memory used (kb):           0.
  
                          Minor page faults:       629158
                          Major page faults:            0
                 Voluntary context switches:          762
