 vasp.5.3.5 31Mar14 (build Nov 02 2014 15:17:37) complex                        
  
 executed on        ion-Intel-MKL date 2017.06.05  18:28:13
 running on    4 total cores
 distrk:  each k-point on    4 cores,    1 groups
 distr:  one band on NCORES_PER_BAND=   2 cores,    2 groups


--------------------------------------------------------------------------------------------------------


 INCAR:
 POTCAR:  PAW_PBE H 15Jun2001                     
 POTCAR:  PAW_PBE C 08Apr2002                     
 POTCAR:  PAW_PBE H 15Jun2001                     
   VRHFIN =H: ultrasoft test                                                    
   LEXCH  = PE                                                                  
   EATOM  =    12.4884 eV,     .9179 Ry                                         
                                                                                
   TITEL  = PAW_PBE H 15Jun2001                                                 
   LULTRA =        F    use ultrasoft PP ?                                      
   IUNSCR =        0    unscreen: 0-lin 1-nonlin 2-no                           
   RPACOR =     .000    partial core radius                                     
   POMASS =    1.000; ZVAL   =    1.000    mass and valenz                      
   RCORE  =    1.100    outmost cutoff radius                                   
   RWIGS  =     .700; RWIGS  =     .370    wigner-seitz radius (au A)           
   ENMAX  =  250.000; ENMIN  =  200.000 eV                                      
   RCLOC  =     .701    cutoff for local pot                                    
   LCOR   =        T    correct aug charges                                     
   LPAW   =        T    paw PP                                                  
   EAUG   =  400.000                                                            
   RMAX   =    2.174    core radius for proj-oper                               
   RAUG   =    1.200    factor for augmentation sphere                          
   RDEP   =    1.112    radius for radial grids                                 
   QCUT   =   -5.749; QGAM   =   11.498    optimization parameters              
                                                                                
   Description                                                                  
     l     E      TYP  RCUT    TYP  RCUT                                        
     0   .000     23  1.100                                                     
     0   .500     23  1.100                                                     
     1  -.300     23  1.100                                                     
  local pseudopotential read in
  atomic valenz-charges read in
  non local Contribution for L=           0  read in
    real space projection operators read in
  non local Contribution for L=           0  read in
    real space projection operators read in
  non local Contribution for L=           1  read in
    real space projection operators read in
    PAW grid and wavefunctions read in
 
   number of l-projection  operators is LMAX  =           3
   number of lm-projection operators is LMMAX =           5
 
 POTCAR:  PAW_PBE C 08Apr2002                     
   VRHFIN =C: s2p2                                                              
   LEXCH  = PE                                                                  
   EATOM  =   147.1560 eV,   10.8157 Ry                                         
                                                                                
   TITEL  = PAW_PBE C 08Apr2002                                                 
   LULTRA =        F    use ultrasoft PP ?                                      
   IUNSCR =        0    unscreen: 0-lin 1-nonlin 2-no                           
   RPACOR =     .000    partial core radius                                     
   POMASS =   12.011; ZVAL   =    4.000    mass and valenz                      
   RCORE  =    1.500    outmost cutoff radius                                   
   RWIGS  =    1.630; RWIGS  =     .863    wigner-seitz radius (au A)           
   ENMAX  =  400.000; ENMIN  =  300.000 eV                                      
   ICORE  =        2    local potential                                         
   LCOR   =        T    correct aug charges                                     
   LPAW   =        T    paw PP                                                  
   EAUG   =  644.873                                                            
   DEXC   =     .000                                                            
   RMAX   =    2.266    core radius for proj-oper                               
   RAUG   =    1.300    factor for augmentation sphere                          
   RDEP   =    1.501    radius for radial grids                                 
   RDEPT  =    1.300    core radius for aug-charge                              
   QCUT   =   -5.516; QGAM   =   11.032    optimization parameters              
                                                                                
   Description                                                                  
     l     E      TYP  RCUT    TYP  RCUT                                        
     0   .000     23  1.200                                                     
     0   .000     23  1.200                                                     
     1   .000     23  1.500                                                     
     1  2.500     23  1.500                                                     
     2   .000      7  1.500                                                     
  local pseudopotential read in
  atomic valenz-charges read in
  non local Contribution for L=           0  read in
    real space projection operators read in
  non local Contribution for L=           0  read in
    real space projection operators read in
  non local Contribution for L=           1  read in
    real space projection operators read in
  non local Contribution for L=           1  read in
    real space projection operators read in
    PAW grid and wavefunctions read in
 
   number of l-projection  operators is LMAX  =           4
   number of lm-projection operators is LMMAX =           8
 

 ----------------------------------------------------------------------------- 
|                                                                             |
|  ADVICE TO THIS USER RUNNING 'VASP/VAMP'   (HEAR YOUR MASTER'S VOICE ...):  |
|                                                                             |
|      You have a (more or less) 'large supercell' and for larger cells       |
|      it might be more efficient to use real space projection operators      |
|      So try LREAL= Auto  in the INCAR   file.                               |
|      Mind: If you want to do a very accurate calculations keep the          |
|      reciprocal projection scheme          (i.e. LREAL=.FALSE.)             |
|                                                                             |
 ----------------------------------------------------------------------------- 

PAW_PBE H 15Jun2001                     :
 energy of atom  1       EATOM=  -12.4884
 kinetic energy error for atom=    0.0004 (will be added to EATOM!!)
PAW_PBE C 08Apr2002                     :
 energy of atom  2       EATOM= -147.1560
 kinetic energy error for atom=    0.0057 (will be added to EATOM!!)
 
 
 POSCAR: methane-high                            
  positions in direct lattice
  No initial velocities read in
 exchange correlation table for  LEXCH =        8
   RHO(1)=    0.500       N(1)  =     2000
   RHO(2)=  100.500       N(2)  =     4000
 


--------------------------------------------------------------------------------------------------------


 ion  position               nearest neighbor table
   1  0.801  0.580  0.934-  65 1.03
   2  0.199  0.420  0.066-  66 1.03
   3  0.199  0.920  0.434-  67 1.03
   4  0.801  0.080  0.566-  68 1.03
   5  0.199  0.080  0.566-  67 1.03
   6  0.801  0.920  0.434-  68 1.03
   7  0.801  0.420  0.066-  65 1.03
   8  0.199  0.580  0.934-  66 1.03
   9  0.301  0.080  0.934-  69 1.03
  10  0.699  0.920  0.066-  70 1.03
  11  0.699  0.420  0.434-  71 1.03
  12  0.301  0.580  0.566-  72 1.03
  13  0.699  0.580  0.566-  71 1.03
  14  0.301  0.420  0.434-  72 1.03
  15  0.301  0.920  0.066-  69 1.03
  16  0.699  0.080  0.934-  70 1.03
  17  0.699  0.566  0.080-  65 1.03
  18  0.301  0.434  0.920-  66 1.03
  19  0.301  0.934  0.580-  67 1.03
  20  0.699  0.066  0.420-  68 1.03
  21  0.301  0.066  0.420-  67 1.03
  22  0.699  0.934  0.580-  68 1.03
  23  0.699  0.434  0.920-  65 1.03
  24  0.301  0.566  0.080-  66 1.03
  25  0.199  0.066  0.080-  69 1.03
  26  0.801  0.934  0.920-  70 1.03
  27  0.801  0.434  0.580-  71 1.03
  28  0.199  0.566  0.420-  72 1.03
  29  0.801  0.566  0.420-  71 1.03
  30  0.199  0.434  0.580-  72 1.03
  31  0.199  0.934  0.920-  69 1.03
  32  0.801  0.066  0.080-  70 1.03
  33  0.073  0.785  0.182-  57 1.04
  34  0.927  0.215  0.818-  58 1.04
  35  0.927  0.715  0.682-  59 1.04
  36  0.073  0.285  0.318-  60 1.04
  37  0.927  0.285  0.318-  60 1.04
  38  0.073  0.715  0.682-  59 1.04
  39  0.073  0.215  0.818-  58 1.04
  40  0.927  0.785  0.182-  57 1.04
  41  0.573  0.285  0.182-  61 1.04
  42  0.427  0.715  0.818-  62 1.04
  43  0.427  0.215  0.682-  63 1.04
  44  0.573  0.785  0.318-  64 1.04
  45  0.427  0.785  0.318-  64 1.04
  46  0.573  0.215  0.682-  63 1.04
  47  0.573  0.715  0.818-  62 1.04
  48  0.427  0.285  0.182-  61 1.04
  49  0.000  0.606  0.199-  57 1.04
  50  0.000  0.394  0.801-  58 1.04
  51  0.000  0.894  0.699-  59 1.04
  52  0.000  0.106  0.301-  60 1.04
  53  0.500  0.106  0.199-  61 1.04
  54  0.500  0.894  0.801-  62 1.04
  55  0.500  0.394  0.699-  63 1.04
  56  0.500  0.606  0.301-  64 1.04
  57  0.000  0.730  0.230-  40 1.04  33 1.04  49 1.04
  58  0.000  0.270  0.770-  34 1.04  39 1.04  50 1.04
  59  0.000  0.770  0.730-  35 1.04  38 1.04  51 1.04
  60  0.000  0.230  0.270-  37 1.04  36 1.04  52 1.04
  61  0.500  0.230  0.230-  41 1.04  48 1.04  53 1.04
  62  0.500  0.770  0.770-  47 1.04  42 1.04  54 1.04
  63  0.500  0.270  0.730-  46 1.04  43 1.04  55 1.04
  64  0.500  0.730  0.270-  44 1.04  45 1.04  56 1.04
  65  0.750  0.500  0.000-   1 1.03   7 1.03  17 1.03  23 1.03
  66  0.250  0.500  0.000-   2 1.03   8 1.03  18 1.03  24 1.03
  67  0.250  0.000  0.500-   3 1.03   5 1.03  19 1.03  21 1.03
  68  0.750  0.000  0.500-   4 1.03   6 1.03  20 1.03  22 1.03
  69  0.250  0.000  0.000-   9 1.03  15 1.03  25 1.03  31 1.03
  70  0.750  0.000  0.000-  10 1.03  16 1.03  26 1.03  32 1.03
  71  0.750  0.500  0.500-  11 1.03  13 1.03  27 1.03  29 1.03
  72  0.250  0.500  0.500-  12 1.03  14 1.03  28 1.03  30 1.03
 
  LATTYP: Found a simple orthorhombic cell.
 ALAT       =     8.1292711100
 B/A-ratio  =     1.0006230659
 C/A-ratio  =     1.4305490624
  
  Lattice vectors:
  
 A1 = (   0.0000000000,   0.0000000000,  -8.1292711100)
 A2 = (   0.0000000000,  -8.1343361820,   0.0000000000)
 A3 = ( -11.6293211648,   0.0000000000,   0.0000000000)


Analysis of symmetry for initial positions (statically):
=====================================================================
 Subroutine PRICEL returns following result:
 
  LATTYP: Found a base centered orthorhombic cell.
 ALAT       =     8.1343361820
 B/A-ratio  =     1.4296582910
 C/A-ratio  =     0.9993773220
  
  Lattice vectors:
  
 A1 = (   5.8146605824,  -4.0671680910,   0.0000000000)
 A2 = (  -5.8146605824,  -4.0671680910,   0.0000000000)
 A3 = (   0.0000000000,   0.0000000000,  -8.1292711100)
 
   2 primitive cells build up your supercell.
 

 Routine SETGRP: Setting up the symmetry group for a 
 simple orthorhombic supercell.


 Subroutine GETGRP returns: Found  8 space group operations
 (whereof  4 operations were pure point group operations)
 out of a pool of  8 trial point group operations.


The static configuration has the point symmetry C_2h.
 The point group associated with its full space group is D_2h.


Analysis of symmetry for dynamics (positions and initial velocities):
=====================================================================
 Subroutine PRICEL returns following result:
 
  LATTYP: Found a base centered orthorhombic cell.
 ALAT       =     8.1343361820
 B/A-ratio  =     1.4296582910
 C/A-ratio  =     0.9993773220
  
  Lattice vectors:
  
 A1 = (   5.8146605824,  -4.0671680910,   0.0000000000)
 A2 = (  -5.8146605824,  -4.0671680910,   0.0000000000)
 A3 = (   0.0000000000,   0.0000000000,  -8.1292711100)
 
   2 primitive cells build up your supercell.
 

 Routine SETGRP: Setting up the symmetry group for a 
 simple orthorhombic supercell.


 Subroutine GETGRP returns: Found  8 space group operations
 (whereof  4 operations were pure point group operations)
 out of a pool of  8 trial point group operations.


The dynamic configuration has the point symmetry C_2h.
 The point group associated with its full space group is D_2h.
 
 
 KPOINTS: B4C B11C-CBC                            

Automatic generation of k-mesh.
Space group operators:
 irot       det(A)        alpha          n_x          n_y          n_z        tau_x        tau_y        tau_z
    1     1.000000     0.000000     1.000000     0.000000     0.000000     0.000000     0.000000     0.000000
    2    -1.000000     0.000000     1.000000     0.000000     0.000000     0.000000     0.000000     0.000000
    3     1.000000   180.000000     1.000000     0.000000     0.000000     0.000000     0.000000     0.000000
    4    -1.000000   180.000000     1.000000     0.000000     0.000000     0.000000     0.000000     0.000000
    5     1.000000   180.000000     0.000000     1.000000     0.000000     0.000000    -0.500000    -0.500000
    6    -1.000000   180.000000     0.000000     1.000000     0.000000     0.000000    -0.500000    -0.500000
    7     1.000000   180.000000     0.000000     0.000000     1.000000     0.000000    -0.500000    -0.500000
    8    -1.000000   180.000000     0.000000     0.000000     1.000000     0.000000    -0.500000    -0.500000
 
 Subroutine IBZKPT returns following result:
 ===========================================
 
 Found     27 irreducible k-points:
 
 Following reciprocal coordinates:
            Coordinates               Weight
  0.000000  0.000000  0.000000      1.000000
  0.250000  0.000000  0.000000      2.000000
  0.500000  0.000000  0.000000      1.000000
  0.000000  0.250000  0.000000      2.000000
  0.250000  0.250000  0.000000      4.000000
  0.500000  0.250000  0.000000      2.000000
  0.000000  0.500000  0.000000      1.000000
  0.250000  0.500000  0.000000      2.000000
  0.500000  0.500000  0.000000      1.000000
  0.000000  0.000000  0.250000      2.000000
  0.250000  0.000000  0.250000      4.000000
  0.500000  0.000000  0.250000      2.000000
  0.000000  0.250000  0.250000      4.000000
  0.250000  0.250000  0.250000      8.000000
  0.500000  0.250000  0.250000      4.000000
  0.000000  0.500000  0.250000      2.000000
  0.250000  0.500000  0.250000      4.000000
  0.500000  0.500000  0.250000      2.000000
  0.000000  0.000000  0.500000      1.000000
  0.250000  0.000000  0.500000      2.000000
  0.500000  0.000000  0.500000      1.000000
  0.000000  0.250000  0.500000      2.000000
  0.250000  0.250000  0.500000      4.000000
  0.500000  0.250000  0.500000      2.000000
  0.000000  0.500000  0.500000      1.000000
  0.250000  0.500000  0.500000      2.000000
  0.500000  0.500000  0.500000      1.000000
 
 Following cartesian coordinates:
            Coordinates               Weight
  0.000000  0.000000  0.000000      1.000000
  0.021353  0.000000  0.000000      2.000000
  0.042706  0.000000  0.000000      1.000000
  0.000000  0.030528  0.000000      2.000000
  0.021353  0.030528  0.000000      4.000000
  0.042706  0.030528  0.000000      2.000000
  0.000000  0.061055  0.000000      1.000000
  0.021353  0.061055  0.000000      2.000000
  0.042706  0.061055  0.000000      1.000000
  0.000000  0.000000  0.030547      2.000000
  0.021353  0.000000  0.030547      4.000000
  0.042706  0.000000  0.030547      2.000000
  0.000000  0.030528  0.030547      4.000000
  0.021353  0.030528  0.030547      8.000000
  0.042706  0.030528  0.030547      4.000000
  0.000000  0.061055  0.030547      2.000000
  0.021353  0.061055  0.030547      4.000000
  0.042706  0.061055  0.030547      2.000000
  0.000000  0.000000  0.061093      1.000000
  0.021353  0.000000  0.061093      2.000000
  0.042706  0.000000  0.061093      1.000000
  0.000000  0.030528  0.061093      2.000000
  0.021353  0.030528  0.061093      4.000000
  0.042706  0.030528  0.061093      2.000000
  0.000000  0.061055  0.061093      1.000000
  0.021353  0.061055  0.061093      2.000000
  0.042706  0.061055  0.061093      1.000000
 
 TETIRR: Found    192 inequivalent tetrahedra from      384


--------------------------------------------------------------------------------------------------------




 Dimension of arrays:
   k-points           NKPTS =     27   k-points in BZ     NKDIM =     27   number of bands    NBANDS=     98
   number of dos      NEDOS =    301   number of ions     NIONS =     72
   non local maximal  LDIM  =      4   non local SUM 2l+1 LMDIM =      8
   total plane-waves  NPLWV = 175000
   max r-space proj   IRMAX =      1   max aug-charges    IRDMAX=   2885
   dimension x,y,z NGX =    70 NGY =   50 NGZ =   50
   dimension x,y,z NGXF=   140 NGYF=  100 NGZF=  100
   support grid    NGXF=   140 NGYF=  100 NGZF=  100
   ions per type =              56  16
 NGX,Y,Z   is equivalent  to a cutoff of  10.01, 10.22, 10.23 a.u.
 NGXF,Y,Z  is equivalent  to a cutoff of  20.01, 20.44, 20.45 a.u.


 I would recommend the setting:
   dimension x,y,z NGX =    70 NGY =   49 NGZ =   49
 SYSTEM =  diamond                                 
 POSCAR =  methane-high                            

 Startparameter for this run:
   NWRITE =      2    write-flag & timer
   PREC   = normal    normal or accurate (medium, high low for compatibility)
   ISTART =      0    job   : 0-new  1-cont  2-samecut
   ICHARG =      2    charge: 1-file 2-atom 10-const
   ISPIN  =      1    spin polarized calculation?
   LNONCOLLINEAR =      F non collinear calculations
   LSORBIT =      F    spin-orbit coupling
   INIWAV =      1    electr: 0-lowe 1-rand  2-diag
   LASPH  =      F    aspherical Exc in radial PAW
   METAGGA=      F    non-selfconsistent MetaGGA calc.

 Electronic Relaxation 1
   ENCUT  =  600.0 eV  44.10 Ry    6.64 a.u.  23.23 16.25 16.24*2*pi/ulx,y,z
   ENINI  =  600.0     initial cutoff
   ENAUG  =  644.9 eV  augmentation charge cutoff
   NELM   =    200;   NELMIN=  2; NELMDL=  0     # of ELM steps 
   EDIFF  = 0.1E-05   stopping-criterion for ELM
   LREAL  =      F    real-space projection
   NLSPLINE    = F    spline interpolate recip. space projectors
   LCOMPAT=      F    compatible to vasp.4.4
   GGA_COMPAT  = T    GGA compatible to vasp.4.4-vasp.4.6
   LMAXPAW     = -100 max onsite density
   LMAXMIX     =    2 max onsite mixed and CHGCAR
   VOSKOWN=      0    Vosko Wilk Nusair interpolation
   ROPT   =    0.00000   0.00000
 Ionic relaxation
   EDIFFG = 0.1E-02   stopping-criterion for IOM
   NSW    =    200    number of steps for IOM
   NBLOCK =      1;   KBLOCK =    200    inner block; outer block 
   IBRION =      2    ionic relax: 0-MD 1-quasi-New 2-CG
   NFREE  =      1    steps in history (QN), initial steepest desc. (CG)
   ISIF   =      2    stress and relaxation
   IWAVPR =     11    prediction:  0-non 1-charg 2-wave 3-comb
   ISYM   =      2    0-nonsym 1-usesym 2-fastsym
   LCORR  =      T    Harris-Foulkes like correction to forces

   POTIM  = 0.5000    time-step for ionic-motion
   TEIN   =    0.0    initial temperature
   TEBEG  =    0.0;   TEEND  =   0.0 temperature during run
   SMASS  =  -3.00    Nose mass-parameter (am)
   estimated Nose-frequenzy (Omega)   =  0.10E-29 period in steps =****** mass=  -0.309E-26a.u.
   SCALEE = 1.0000    scale energy and forces
   NPACO  =    256;   APACO  = 16.0  distance and # of slots for P.C.
   PSTRESS=    0.0 pullay stress

  Mass of Ions in am
   POMASS =   1.00 12.01
  Ionic Valenz
   ZVAL   =   1.00  4.00
  Atomic Wigner-Seitz radii
   RWIGS  =  -1.00 -1.00
  virtual crystal weights 
   VCA    =   1.00  1.00
   NELECT =     120.0000    total number of electrons
   NUPDOWN=      -1.0000    fix difference up-down

 DOS related values:
   EMIN   =  10.00;   EMAX   =-10.00  energy-range for DOS
   EFERMI =   0.00
   ISMEAR =    -5;   SIGMA  =   0.20  broadening in eV -4-tet -1-fermi 0-gaus

 Electronic relaxation 2 (details)
   IALGO  =     38    algorithm
   LDIAG  =      T    sub-space diagonalisation (order eigenvalues)
   LSUBROT=      F    optimize rotation matrix (better conditioning)
   TURBO    =      0    0=normal 1=particle mesh
   IRESTART =      0    0=no restart 2=restart with 2 vectors
   NREBOOT  =      0    no. of reboots
   NMIN     =      0    reboot dimension
   EREF     =   0.00    reference energy to select bands
   IMIX   =      4    mixing-type and parameters
     AMIX     =   0.40;   BMIX     =  1.00
     AMIX_MAG =   1.60;   BMIX_MAG =  1.00
     AMIN     =   0.10
     WC   =   100.;   INIMIX=   1;  MIXPRE=   1;  MAXMIX= -45

 Intra band minimization:
   WEIMIN = 0.0010     energy-eigenvalue tresh-hold
   EBREAK =  0.26E-08  absolut break condition
   DEPER  =   0.30     relativ break condition  

   TIME   =   0.40     timestep for ELM

  volume/ion in A,a.u.               =      10.68        72.08
  Fermi-wavevector in a.u.,A,eV,Ry     =   0.881372  1.665551 10.569230  0.776816
  Thomas-Fermi vector in A             =   2.001859
 
 Write flags
   LWAVE  =      F    write WAVECAR
   LCHARG =      F    write CHGCAR
   LVTOT  =      F    write LOCPOT, total local potential
   LVHAR  =      F    write LOCPOT, Hartree potential only
   LELF   =      F    write electronic localiz. function (ELF)
   LORBIT =      0    0 simple, 1 ext, 2 COOP (PROOUT)


 Dipole corrections
   LMONO  =      F    monopole corrections only (constant potential shift)
   LDIPOL =      F    correct potential (dipole corrections)
   IDIPOL =      0    1-x, 2-y, 3-z, 4-all directions 
   EPSILON=  1.0000000 bulk dielectric constant

 Exchange correlation treatment:
   GGA     =    PE    GGA type
   LEXCH   =     8    internal setting for exchange type
   VOSKOWN=      0    Vosko Wilk Nusair interpolation
   LHFCALC =     F    Hartree Fock is set to
   LHFONE  =     F    Hartree Fock one center treatment
   AEXX    =    0.0000 exact exchange contribution

 Linear response parameters
   LEPSILON=     F    determine dielectric tensor
   LRPA    =     F    only Hartree local field effects (RPA)
   LNABLA  =     F    use nabla operator in PAW spheres
   LVEL    =     F    velocity operator in full k-point grid
   LINTERFAST=   F  fast interpolation
   KINTER  =     0    interpolate to denser k-point grid
   CSHIFT  =0.1000    complex shift for real part using Kramers Kronig
   OMEGAMAX=  -1.0    maximum frequency
   DEG_THRESHOLD= 0.2000000E-02 threshold for treating states as degnerate
   RTIME   =    0.100 relaxation time in fs

 Orbital magnetization related:
   ORBITALMAG=     F  switch on orbital magnetization
   LCHIMAG   =     F  perturbation theory with respect to B field
   DQ        =  0.001000  dq finite difference perturbation B field



--------------------------------------------------------------------------------------------------------


 conjugate gradient relaxation of ions
 charge density and potential will be updated during run
 non-spin polarized calculation
 Variant of blocked Davidson
 Davidson routine will perform the subspace rotation
 perform sub-space diagonalisation
    after iterative eigenvector-optimisation
 modified Broyden-mixing scheme, WC =      100.0
 initial mixing is a Kerker type mixing with AMIX =  0.4000 and BMIX =      1.0000
 Hartree-type preconditioning will be used
 using additional bands           38
 reciprocal scheme for non local part
 calculate Harris-corrections to forces 
   (improved forces if not selfconsistent)
 use gradient corrections 
 use of overlap-Matrix (Vanderbilt PP)
 Fermi weights with tetrahedron method with Bloechl corrections


--------------------------------------------------------------------------------------------------------


  energy-cutoff  :      600.00
  volume of cell :      769.00
      direct lattice vectors                 reciprocal lattice vectors
    11.629321165  0.000000000  0.000000000     0.085989542  0.000000000  0.000000000
     0.000000000  8.134336182  0.000000000     0.000000000  0.122935662  0.000000000
     0.000000000  0.000000000  8.129271110     0.000000000  0.000000000  0.123012259

  length of vectors
    11.629321165  8.134336182  8.129271110     0.085989542  0.122935662  0.123012259


 
 k-points in units of 2pi/SCALE and weight: B4C B11C-CBC                            
   0.00000000  0.00000000  0.00000000       0.016
   0.02135310  0.00000000  0.00000000       0.031
   0.04270621  0.00000000  0.00000000       0.016
   0.00000000  0.03052764  0.00000000       0.031
   0.02135310  0.03052764  0.00000000       0.062
   0.04270621  0.03052764  0.00000000       0.031
   0.00000000  0.06105528  0.00000000       0.016
   0.02135310  0.06105528  0.00000000       0.031
   0.04270621  0.06105528  0.00000000       0.016
   0.00000000  0.00000000  0.03054666       0.031
   0.02135310  0.00000000  0.03054666       0.062
   0.04270621  0.00000000  0.03054666       0.031
   0.00000000  0.03052764  0.03054666       0.062
   0.02135310  0.03052764  0.03054666       0.125
   0.04270621  0.03052764  0.03054666       0.062
   0.00000000  0.06105528  0.03054666       0.031
   0.02135310  0.06105528  0.03054666       0.062
   0.04270621  0.06105528  0.03054666       0.031
   0.00000000  0.00000000  0.06109332       0.016
   0.02135310  0.00000000  0.06109332       0.031
   0.04270621  0.00000000  0.06109332       0.016
   0.00000000  0.03052764  0.06109332       0.031
   0.02135310  0.03052764  0.06109332       0.062
   0.04270621  0.03052764  0.06109332       0.031
   0.00000000  0.06105528  0.06109332       0.016
   0.02135310  0.06105528  0.06109332       0.031
   0.04270621  0.06105528  0.06109332       0.016
 
 k-points in reciprocal lattice and weights: B4C B11C-CBC                            
   0.00000000  0.00000000  0.00000000       0.016
   0.25000000  0.00000000  0.00000000       0.031
   0.50000000  0.00000000  0.00000000       0.016
   0.00000000  0.25000000  0.00000000       0.031
   0.25000000  0.25000000  0.00000000       0.062
   0.50000000  0.25000000  0.00000000       0.031
   0.00000000  0.50000000  0.00000000       0.016
   0.25000000  0.50000000  0.00000000       0.031
   0.50000000  0.50000000  0.00000000       0.016
   0.00000000  0.00000000  0.25000000       0.031
   0.25000000  0.00000000  0.25000000       0.062
   0.50000000  0.00000000  0.25000000       0.031
   0.00000000  0.25000000  0.25000000       0.062
   0.25000000  0.25000000  0.25000000       0.125
   0.50000000  0.25000000  0.25000000       0.062
   0.00000000  0.50000000  0.25000000       0.031
   0.25000000  0.50000000  0.25000000       0.062
   0.50000000  0.50000000  0.25000000       0.031
   0.00000000  0.00000000  0.50000000       0.016
   0.25000000  0.00000000  0.50000000       0.031
   0.50000000  0.00000000  0.50000000       0.016
   0.00000000  0.25000000  0.50000000       0.031
   0.25000000  0.25000000  0.50000000       0.062
   0.50000000  0.25000000  0.50000000       0.031
   0.00000000  0.50000000  0.50000000       0.016
   0.25000000  0.50000000  0.50000000       0.031
   0.50000000  0.50000000  0.50000000       0.016
 
 position of ions in fractional coordinates (direct lattice) 
   0.80100000  0.57950002  0.93360001
   0.19900000  0.42049998  0.06639999
   0.19900000  0.92049998  0.43360001
   0.80100000  0.07950002  0.56639999
   0.19900000  0.07950002  0.56639999
   0.80100000  0.92049998  0.43360001
   0.80100000  0.42049998  0.06639999
   0.19900000  0.57950002  0.93360001
   0.30100000  0.07950002  0.93360001
   0.69900000  0.92049998  0.06639999
   0.69900000  0.42049998  0.43360001
   0.30100000  0.57950002  0.56639999
   0.69900000  0.57950002  0.56639999
   0.30100000  0.42049998  0.43360001
   0.30100000  0.92049998  0.06639999
   0.69900000  0.07950002  0.93360001
   0.69859999  0.56629997  0.07959998
   0.30140001  0.43370003  0.92040002
   0.30140001  0.93370003  0.57959998
   0.69859999  0.06629997  0.42040002
   0.30140001  0.06629997  0.42040002
   0.69859999  0.93370003  0.57959998
   0.69859999  0.43370003  0.92040002
   0.30140001  0.56629997  0.07959998
   0.19859999  0.06629997  0.07959998
   0.80140001  0.93370003  0.92040002
   0.80140001  0.43370003  0.57959998
   0.19859999  0.56629997  0.42040002
   0.80140001  0.56629997  0.42040002
   0.19859999  0.43370003  0.57959998
   0.19859999  0.93370003  0.92040002
   0.80140001  0.06629997  0.07959998
   0.07280000  0.78549999  0.18230000
   0.92720002  0.21450001  0.81770003
   0.92720002  0.71450001  0.68229997
   0.07280000  0.28549999  0.31770000
   0.92720002  0.28549999  0.31770000
   0.07280000  0.71450001  0.68229997
   0.07280000  0.21450001  0.81770003
   0.92720002  0.78549999  0.18230000
   0.57279998  0.28549999  0.18230000
   0.42719999  0.71450001  0.81770003
   0.42719999  0.21450001  0.68229997
   0.57279998  0.78549999  0.31770000
   0.42719999  0.78549999  0.31770000
   0.57279998  0.21450001  0.68229997
   0.57279998  0.71450001  0.81770003
   0.42719999  0.28549999  0.18230000
   0.00000000  0.60589999  0.19920000
   0.00000000  0.39410001  0.80079997
   0.00000000  0.89410001  0.69920003
   0.00000000  0.10589999  0.30080000
   0.50000000  0.10589999  0.19920000
   0.50000000  0.89410001  0.80079997
   0.50000000  0.39410001  0.69920003
   0.50000000  0.60589999  0.30080000
   0.00000000  0.72960001  0.23029999
   0.00000000  0.27039999  0.76969999
   0.00000000  0.77039999  0.73030001
   0.00000000  0.22960001  0.26969999
   0.50000000  0.22960001  0.23029999
   0.50000000  0.77039999  0.76969999
   0.50000000  0.27039999  0.73030001
   0.50000000  0.72960001  0.26969999
   0.74980003  0.50000000  0.00000000
   0.25019997  0.50000000  0.00000000
   0.25019997  0.00000000  0.50000000
   0.74980003  0.00000000  0.50000000
   0.24980003  0.00000000  0.00000000
   0.75019997  0.00000000  0.00000000
   0.75019997  0.50000000  0.50000000
   0.24980003  0.50000000  0.50000000
 
 position of ions in cartesian coordinates  (Angst):
   9.31508624  4.71384798  7.58948757
   2.31423492  3.42048820  0.53978354
   2.31423492  7.48765629  3.52485202
   9.31508624  0.64667989  4.60441909
   2.31423492  0.64667989  4.60441909
   9.31508624  7.48765629  3.52485202
   9.31508624  3.42048820  0.53978354
   2.31423492  4.71384798  7.58948757
   3.50042566  0.64667989  7.58948757
   8.12889551  7.48765629  0.53978354
   8.12889551  3.42048820  3.52485202
   3.50042566  4.71384798  4.60441909
   8.12889551  4.71384798  4.60441909
   3.50042566  3.42048820  3.52485202
   3.50042566  7.48765629  0.53978354
   8.12889551  0.64667989  7.58948757
   8.12424370  4.60647438  0.64708979
   3.50507747  3.52786181  7.48218132
   3.50507747  7.59502990  4.71172535
   8.12424370  0.53930629  3.41754576
   3.50507747  0.53930629  3.41754576
   8.12424370  7.59502990  4.71172535
   8.12424370  3.52786181  7.48218132
   3.50507747  4.60647438  0.64708979
   2.30958311  0.53930629  0.64708979
   9.31973805  7.59502990  7.48218132
   9.31973805  3.52786181  4.71172535
   2.30958311  4.60647438  3.41754576
   9.31973805  4.60647438  3.41754576
   2.30958311  3.52786181  4.71172535
   2.30958311  7.59502990  7.48218132
   9.31973805  0.53930629  0.64708979
   0.84661462  6.38952099  1.48196613
  10.78270681  1.74481519  6.64730521
  10.78270681  5.81198328  5.54660145
   0.84661462  2.32235290  2.58266942
  10.78270681  2.32235290  2.58266942
   0.84661462  5.81198328  5.54660145
   0.84661462  1.74481519  6.64730521
  10.78270681  6.38952099  1.48196613
   6.66127494  2.32235290  1.48196613
   4.96804589  5.81198328  6.64730521
   4.96804589  1.74481519  5.54660145
   6.66127494  6.38952099  2.58266942
   4.96804589  6.38952099  2.58266942
   6.66127494  1.74481519  5.54660145
   6.66127494  5.81198328  6.64730521
   4.96804589  2.32235290  1.48196613
   0.00000000  4.92859421  1.61935084
   0.00000000  3.20574197  6.50992003
   0.00000000  7.27291006  5.68398664
   0.00000000  0.86142612  2.44528472
   5.81466058  0.86142612  1.61935084
   5.81466058  7.27291006  6.50992003
   5.81466058  3.20574197  5.68398664
   5.81466058  4.92859421  2.44528472
   0.00000000  5.93481178  1.87217109
   0.00000000  2.19952441  6.25709990
   0.00000000  6.26669250  5.93680676
   0.00000000  1.86764369  2.19246435
   5.81466058  1.86764369  1.87217109
   5.81466058  6.26669250  6.25709990
   5.81466058  2.19952441  5.93680676
   5.81466058  5.93481178  2.19246435
   8.71966531  4.06716809  0.00000000
   2.90965585  4.06716809  0.00000000
   2.90965585  0.00000000  4.06463556
   8.71966531  0.00000000  4.06463556
   2.90500473  0.00000000  0.00000000
   8.72431644  0.00000000  0.00000000
   8.72431644  4.06716809  4.06463556
   2.90500473  4.06716809  4.06463556
 


--------------------------------------------------------------------------------------------------------


 k-point  1 :   0.0000 0.0000 0.0000  plane waves:   25655
 k-point  2 :   0.2500 0.0000 0.0000  plane waves:   25698
 k-point  3 :   0.5000 0.0000 0.0000  plane waves:   25662
 k-point  4 :   0.0000 0.2500 0.0000  plane waves:   25648
 k-point  5 :   0.2500 0.2500 0.0000  plane waves:   25642
 k-point  6 :   0.5000 0.2500 0.0000  plane waves:   25668
 k-point  7 :   0.0000 0.5000 0.0000  plane waves:   25640
 k-point  8 :   0.2500 0.5000 0.0000  plane waves:   25686
 k-point  9 :   0.5000 0.5000 0.0000  plane waves:   25704
 k-point 10 :   0.0000 0.0000 0.2500  plane waves:   25654
 k-point 11 :   0.2500 0.0000 0.2500  plane waves:   25642
 k-point 12 :   0.5000 0.0000 0.2500  plane waves:   25676
 k-point 13 :   0.0000 0.2500 0.2500  plane waves:   25673
 k-point 14 :   0.2500 0.2500 0.2500  plane waves:   25642
 k-point 15 :   0.5000 0.2500 0.2500  plane waves:   25654
 k-point 16 :   0.0000 0.5000 0.2500  plane waves:   25626
 k-point 17 :   0.2500 0.5000 0.2500  plane waves:   25672
 k-point 18 :   0.5000 0.5000 0.2500  plane waves:   25676
 k-point 19 :   0.0000 0.0000 0.5000  plane waves:   25632
 k-point 20 :   0.2500 0.0000 0.5000  plane waves:   25690
 k-point 21 :   0.5000 0.0000 0.5000  plane waves:   25712
 k-point 22 :   0.0000 0.2500 0.5000  plane waves:   25634
 k-point 23 :   0.2500 0.2500 0.5000  plane waves:   25672
 k-point 24 :   0.5000 0.2500 0.5000  plane waves:   25660
 k-point 25 :   0.0000 0.5000 0.5000  plane waves:   25644
 k-point 26 :   0.2500 0.5000 0.5000  plane waves:   25644
 k-point 27 :   0.5000 0.5000 0.5000  plane waves:   25632

 maximum and minimum number of plane-waves per node :     12856    12804

 maximum number of plane-waves:     25712
 maximum index in each direction: 
   IXMAX=   23   IYMAX=   16   IZMAX=   16
   IXMIN=  -23   IYMIN=  -16   IZMIN=  -16

 WARNING: aliasing errors must be expected set NGX to  94 to avoid them
 WARNING: aliasing errors must be expected set NGY to  66 to avoid them
 WARNING: aliasing errors must be expected set NGZ to  66 to avoid them
 aliasing errors are usually negligible using standard VASP settings
 and one can safely disregard these warnings

 parallel 3D FFT for wavefunctions:
    minimum data exchange during FFTs selected (reduces bandwidth)
 parallel 3D FFT for charge:
    minimum data exchange during FFTs selected (reduces bandwidth)


 total amount of memory used by VASP on root node   403904. kBytes
========================================================================

   base      :      30000. kBytes
   nonl-proj :      59240. kBytes
   fftplans  :      14692. kBytes
   grid      :      23408. kBytes
   one-center:        110. kBytes
   wavefun   :     276454. kBytes
 
     INWAV:  cpu time    0.00: real time    0.00
 Broyden mixing: mesh for mixing (old mesh)
   NGX = 47   NGY = 33   NGZ = 33
  (NGX  =140   NGY  =100   NGZ  =100)
  gives a total of  51183 points

 initial charge density was supplied:
 charge density of overlapping atoms calculated
 number of electron     120.0000000 magnetization 
 keeping initial charge density in first step


--------------------------------------------------------------------------------------------------------


 Maximum index for augmentation-charges          666 (set IRDMAX)


--------------------------------------------------------------------------------------------------------


 First call to EWALD:  gamma=   0.193
 Maximum number of real-space cells 2x 3x 3
 Maximum number of reciprocal cells 3x 2x 2

 FEWALD executed in parallel
    FEWALD:  cpu time    0.01: real time    0.01


----------------------------------------- Iteration    1(   1)  ---------------------------------------


    POTLOK:  cpu time    0.29: real time    0.29
    SETDIJ:  cpu time    0.03: real time    0.03
     EDDAV:  cpu time  112.48: real time  112.54
 BZINTS: Fermi energy:  5.319239;120.000000 electrons
         Band energy:-700.129994;  BLOECHL correction: -0.097053
       DOS:  cpu time    0.04: real time    0.04
    --------------------------------------------
      LOOP:  cpu time  112.84: real time  112.91

 eigenvalue-minimisations  :  5308
 total energy-change (2. order) : 0.4674477E+03  (-0.5223078E+04)
 number of electron     120.0000000 magnetization 
 augmentation part      120.0000000 magnetization 

 Free energy of the ion-electron system (eV)
  ---------------------------------------------------
  alpha Z        PSCENC =        72.14763151
  Ewald energy   TEWEN  =     -1149.77697145
  -Hartree energ DENC   =     -1137.71426290
  -exchange      EXHF   =         0.00000000
  -V(xc)+E(xc)   XCENC  =       348.10146603
  PAW double counting   =       649.05732928     -667.96943662
  entropy T*S    EENTRO =         0.00000000
  eigenvalues    EBANDS =      -700.12999400
  atomic energy  EATOM  =      3053.73195627
  ---------------------------------------------------
  free energy    TOTEN  =       467.44771814 eV

  energy without entropy =      467.44771814  energy(sigma->0) =      467.44771814


--------------------------------------------------------------------------------------------------------




----------------------------------------- Iteration    1(   2)  ---------------------------------------


     EDDAV:  cpu time  131.21: real time  131.27
 BZINTS: Fermi energy: -3.866401;120.000000 electrons
         Band energy:***********;  BLOECHL correction: -0.007749
       DOS:  cpu time    0.04: real time    0.04
    --------------------------------------------
      LOOP:  cpu time  131.25: real time  131.31

 eigenvalue-minimisations  :  6484
 total energy-change (2. order) :-0.7617273E+03  (-0.7411271E+03)
 number of electron     120.0000000 magnetization 
 augmentation part      120.0000000 magnetization 

 Free energy of the ion-electron system (eV)
  ---------------------------------------------------
  alpha Z        PSCENC =        72.14763151
  Ewald energy   TEWEN  =     -1149.77697145
  -Hartree energ DENC   =     -1137.71426290
  -exchange      EXHF   =         0.00000000
  -V(xc)+E(xc)   XCENC  =       348.10146603
  PAW double counting   =       649.05732928     -667.96943662
  entropy T*S    EENTRO =         0.00000000
  eigenvalues    EBANDS =     -1461.85725476
  atomic energy  EATOM  =      3053.73195627
  ---------------------------------------------------
  free energy    TOTEN  =      -294.27954263 eV

  energy without entropy =     -294.27954263  energy(sigma->0) =     -294.27954263


--------------------------------------------------------------------------------------------------------




----------------------------------------- Iteration    1(   3)  ---------------------------------------


     EDDAV:  cpu time  134.38: real time  134.45
 BZINTS: Fermi energy: -4.952360;120.000000 electrons
         Band energy:***********;  BLOECHL correction: -0.000150
       DOS:  cpu time    0.03: real time    0.03
    --------------------------------------------
      LOOP:  cpu time  134.42: real time  134.49

 eigenvalue-minimisations  :  6656
 total energy-change (2. order) :-0.8455204E+02  (-0.8385736E+02)
 number of electron     120.0000000 magnetization 
 augmentation part      120.0000000 magnetization 

 Free energy of the ion-electron system (eV)
  ---------------------------------------------------
  alpha Z        PSCENC =        72.14763151
  Ewald energy   TEWEN  =     -1149.77697145
  -Hartree energ DENC   =     -1137.71426290
  -exchange      EXHF   =         0.00000000
  -V(xc)+E(xc)   XCENC  =       348.10146603
  PAW double counting   =       649.05732928     -667.96943662
  entropy T*S    EENTRO =         0.00000000
  eigenvalues    EBANDS =     -1546.40929261
  atomic energy  EATOM  =      3053.73195627
  ---------------------------------------------------
  free energy    TOTEN  =      -378.83158048 eV

  energy without entropy =     -378.83158048  energy(sigma->0) =     -378.83158048


--------------------------------------------------------------------------------------------------------




----------------------------------------- Iteration    1(   4)  ---------------------------------------


     EDDAV:  cpu time  133.46: real time  133.53
 BZINTS: Fermi energy: -4.987765;120.000000 electrons
         Band energy:***********;  BLOECHL correction:  0.000000
       DOS:  cpu time    0.01: real time    0.01
    --------------------------------------------
      LOOP:  cpu time  133.47: real time  133.54

 eigenvalue-minimisations  :  6592
 total energy-change (2. order) :-0.2346642E+01  (-0.2342694E+01)
 number of electron     120.0000000 magnetization 
 augmentation part      120.0000000 magnetization 

 Free energy of the ion-electron system (eV)
  ---------------------------------------------------
  alpha Z        PSCENC =        72.14763151
  Ewald energy   TEWEN  =     -1149.77697145
  -Hartree energ DENC   =     -1137.71426290
  -exchange      EXHF   =         0.00000000
  -V(xc)+E(xc)   XCENC  =       348.10146603
  PAW double counting   =       649.05732928     -667.96943662
  entropy T*S    EENTRO =         0.00000000
  eigenvalues    EBANDS =     -1548.75593433
  atomic energy  EATOM  =      3053.73195627
  ---------------------------------------------------
  free energy    TOTEN  =      -381.17822220 eV

  energy without entropy =     -381.17822220  energy(sigma->0) =     -381.17822220


--------------------------------------------------------------------------------------------------------




----------------------------------------- Iteration    1(   5)  ---------------------------------------


     EDDAV:  cpu time  137.08: real time  137.15
 BZINTS: Fermi energy: -4.983771;120.000000 electrons
         Band energy:***********;  BLOECHL correction:  0.000000
       DOS:  cpu time    0.01: real time    0.01
    CHARGE:  cpu time    1.85: real time    1.85
    MIXING:  cpu time    0.01: real time    0.01
    --------------------------------------------
      LOOP:  cpu time  138.95: real time  139.02

 eigenvalue-minimisations  :  6776
 total energy-change (2. order) :-0.5596010E-01  (-0.5593473E-01)
 number of electron     120.0000041 magnetization 
 augmentation part        3.5435849 magnetization 

 Broyden mixing:
  rms(total) = 0.35488E+01    rms(broyden)= 0.35486E+01
  rms(prec ) = 0.46137E+01
  weight for this iteration     100.00

 Free energy of the ion-electron system (eV)
  ---------------------------------------------------
  alpha Z        PSCENC =        72.14763151
  Ewald energy   TEWEN  =     -1149.77697145
  -Hartree energ DENC   =     -1137.71426290
  -exchange      EXHF   =         0.00000000
  -V(xc)+E(xc)   XCENC  =       348.10146603
  PAW double counting   =       649.05732928     -667.96943662
  entropy T*S    EENTRO =         0.00000000
  eigenvalues    EBANDS =     -1548.81189443
  atomic energy  EATOM  =      3053.73195627
  ---------------------------------------------------
  free energy    TOTEN  =      -381.23418230 eV

  energy without entropy =     -381.23418230  energy(sigma->0) =     -381.23418230


--------------------------------------------------------------------------------------------------------




----------------------------------------- Iteration    1(   6)  ---------------------------------------


    POTLOK:  cpu time    0.29: real time    0.29
    SETDIJ:  cpu time    0.03: real time    0.03
     EDDAV:  cpu time  116.59: real time  116.65
 BZINTS: Fermi energy: -3.369200;120.000000 electrons
         Band energy:***********;  BLOECHL correction:  0.000000
       DOS:  cpu time    0.01: real time    0.01
    CHARGE:  cpu time    2.06: real time    2.06
    MIXING:  cpu time    0.01: real time    0.01
    --------------------------------------------
      LOOP:  cpu time  118.99: real time  119.05

 eigenvalue-minimisations  :  5594
 total energy-change (2. order) : 0.4570162E+02  (-0.8258225E+01)
 number of electron     120.0000046 magnetization 
 augmentation part        3.0944057 magnetization 

 Broyden mixing:
  rms(total) = 0.15351E+01    rms(broyden)= 0.15350E+01
  rms(prec ) = 0.18951E+01
  weight for this iteration     100.00

 eigenvalues of (default mixing * dielectric matrix)
  average eigenvalue GAMMA=   1.3867
  1.3867

 Free energy of the ion-electron system (eV)
  ---------------------------------------------------
  alpha Z        PSCENC =        72.14763151
  Ewald energy   TEWEN  =     -1149.77697145
  -Hartree energ DENC   =     -1393.96896306
  -exchange      EXHF   =         0.00000000
  -V(xc)+E(xc)   XCENC  =       367.87334602
  PAW double counting   =      1112.60506175    -1135.07682441
  entropy T*S    EENTRO =         0.00000000
  eigenvalues    EBANDS =     -1263.06779896
  atomic energy  EATOM  =      3053.73195627
  ---------------------------------------------------
  free energy    TOTEN  =      -335.53256233 eV

  energy without entropy =     -335.53256233  energy(sigma->0) =     -335.53256233


--------------------------------------------------------------------------------------------------------




----------------------------------------- Iteration    1(   7)  ---------------------------------------


    POTLOK:  cpu time    0.29: real time    0.29
    SETDIJ:  cpu time    0.03: real time    0.03
     EDDAV:  cpu time  128.05: real time  128.12
 BZINTS: Fermi energy: -2.792253;120.000000 electrons
         Band energy:***********;  BLOECHL correction:  0.000000
       DOS:  cpu time    0.01: real time    0.01
    CHARGE:  cpu time    1.84: real time    1.84
    MIXING:  cpu time    0.01: real time    0.01
    --------------------------------------------
      LOOP:  cpu time  130.23: real time  130.30

 eigenvalue-minimisations  :  6272
 total energy-change (2. order) : 0.6477838E+01  (-0.1462787E+01)
 number of electron     120.0000047 magnetization 
 augmentation part        2.9455189 magnetization 

 Broyden mixing:
  rms(total) = 0.72069E+00    rms(broyden)= 0.72066E+00
  rms(prec ) = 0.83413E+00
  weight for this iteration     100.00

 eigenvalues of (default mixing * dielectric matrix)
  average eigenvalue GAMMA=   1.9032
  1.3880  2.4184

 Free energy of the ion-electron system (eV)
  ---------------------------------------------------
  alpha Z        PSCENC =        72.14763151
  Ewald energy   TEWEN  =     -1149.77697145
  -Hartree energ DENC   =     -1532.64246454
  -exchange      EXHF   =         0.00000000
  -V(xc)+E(xc)   XCENC  =       380.32351731
  PAW double counting   =      1408.92127263    -1432.35885379
  entropy T*S    EENTRO =         0.00000000
  eigenvalues    EBANDS =     -1129.40081224
  atomic energy  EATOM  =      3053.73195627
  ---------------------------------------------------
  free energy    TOTEN  =      -329.05472429 eV

  energy without entropy =     -329.05472429  energy(sigma->0) =     -329.05472429


--------------------------------------------------------------------------------------------------------




----------------------------------------- Iteration    1(   8)  ---------------------------------------


    POTLOK:  cpu time    0.29: real time    0.29
    SETDIJ:  cpu time    0.03: real time    0.03
     EDDAV:  cpu time  131.85: real time  131.92
 BZINTS: Fermi energy: -2.845256;120.000000 electrons
         Band energy:***********;  BLOECHL correction:  0.000000
       DOS:  cpu time    0.01: real time    0.01
    CHARGE:  cpu time    2.02: real time    2.02
    MIXING:  cpu time    0.01: real time    0.01
    --------------------------------------------
      LOOP:  cpu time  134.20: real time  134.28

 eigenvalue-minimisations  :  6520
 total energy-change (2. order) : 0.9140993E+00  (-0.1964600E+00)
 number of electron     120.0000046 magnetization 
 augmentation part        2.9217483 magnetization 

 Broyden mixing:
  rms(total) = 0.10290E+00    rms(broyden)= 0.10289E+00
  rms(prec ) = 0.13140E+00
  weight for this iteration     100.00

 eigenvalues of (default mixing * dielectric matrix)
  average eigenvalue GAMMA=   1.5121
  2.3110  0.8918  1.3334

 Free energy of the ion-electron system (eV)
  ---------------------------------------------------
  alpha Z        PSCENC =        72.14763151
  Ewald energy   TEWEN  =     -1149.77697145
  -Hartree energ DENC   =     -1576.93061864
  -exchange      EXHF   =         0.00000000
  -V(xc)+E(xc)   XCENC  =       386.67886301
  PAW double counting   =      1527.06700757    -1550.01828121
  entropy T*S    EENTRO =         0.00000000
  eigenvalues    EBANDS =     -1091.04021208
  atomic energy  EATOM  =      3053.73195627
  ---------------------------------------------------
  free energy    TOTEN  =      -328.14062501 eV

  energy without entropy =     -328.14062501  energy(sigma->0) =     -328.14062501


--------------------------------------------------------------------------------------------------------




----------------------------------------- Iteration    1(   9)  ---------------------------------------


    POTLOK:  cpu time    0.28: real time    0.28
    SETDIJ:  cpu time    0.03: real time    0.03
     EDDAV:  cpu time  131.25: real time  131.32
 BZINTS: Fermi energy: -2.788662;120.000000 electrons
         Band energy:***********;  BLOECHL correction:  0.000000
       DOS:  cpu time    0.01: real time    0.01
    CHARGE:  cpu time    1.85: real time    1.85
    MIXING:  cpu time    0.01: real time    0.01
    --------------------------------------------
      LOOP:  cpu time  133.43: real time  133.50

 eigenvalue-minimisations  :  6476
 total energy-change (2. order) : 0.1342737E-01  (-0.1272611E-01)
 number of electron     120.0000046 magnetization 
 augmentation part        2.9177216 magnetization 

 Broyden mixing:
  rms(total) = 0.46829E-01    rms(broyden)= 0.46828E-01
  rms(prec ) = 0.60008E-01
  weight for this iteration     100.00

 eigenvalues of (default mixing * dielectric matrix)
  average eigenvalue GAMMA=   1.6875
  2.4134  1.1132  1.1946  2.0288

 Free energy of the ion-electron system (eV)
  ---------------------------------------------------
  alpha Z        PSCENC =        72.14763151
  Ewald energy   TEWEN  =     -1149.77697145
  -Hartree energ DENC   =     -1581.58548774
  -exchange      EXHF   =         0.00000000
  -V(xc)+E(xc)   XCENC  =       386.88822393
  PAW double counting   =      1530.53724596    -1553.56727556
  entropy T*S    EENTRO =         0.00000000
  eigenvalues    EBANDS =     -1086.50252056
  atomic energy  EATOM  =      3053.73195627
  ---------------------------------------------------
  free energy    TOTEN  =      -328.12719763 eV

  energy without entropy =     -328.12719763  energy(sigma->0) =     -328.12719763


--------------------------------------------------------------------------------------------------------




----------------------------------------- Iteration    1(  10)  ---------------------------------------


    POTLOK:  cpu time    0.29: real time    0.29
    SETDIJ:  cpu time    0.03: real time    0.03
     EDDAV:  cpu time  120.37: real time  120.43
 BZINTS: Fermi energy: -2.750553;120.000000 electrons
         Band energy:***********;  BLOECHL correction:  0.000000
       DOS:  cpu time    0.01: real time    0.01
    CHARGE:  cpu time    1.85: real time    1.85
    MIXING:  cpu time    0.01: real time    0.01
    --------------------------------------------
      LOOP:  cpu time  122.56: real time  122.63

 eigenvalue-minimisations  :  5848
 total energy-change (2. order) :-0.1625365E-01  (-0.4101903E-02)
 number of electron     120.0000046 magnetization 
 augmentation part        2.9128017 magnetization 

 Broyden mixing:
  rms(total) = 0.17544E-01    rms(broyden)= 0.17543E-01
  rms(prec ) = 0.22023E-01
  weight for this iteration     100.00

 eigenvalues of (default mixing * dielectric matrix)
  average eigenvalue GAMMA=   1.5497
  2.3438  2.3438  1.2150  0.9647  0.8811

 Free energy of the ion-electron system (eV)
  ---------------------------------------------------
  alpha Z        PSCENC =        72.14763151
  Ewald energy   TEWEN  =     -1149.77697145
  -Hartree energ DENC   =     -1585.92224114
  -exchange      EXHF   =         0.00000000
  -V(xc)+E(xc)   XCENC  =       387.31930902
  PAW double counting   =      1530.58161958    -1553.60858133
  entropy T*S    EENTRO =         0.00000000
  eigenvalues    EBANDS =     -1082.61617375
  atomic energy  EATOM  =      3053.73195627
  ---------------------------------------------------
  free energy    TOTEN  =      -328.14345129 eV

  energy without entropy =     -328.14345129  energy(sigma->0) =     -328.14345129


--------------------------------------------------------------------------------------------------------




----------------------------------------- Iteration    1(  11)  ---------------------------------------


    POTLOK:  cpu time    0.29: real time    0.29
    SETDIJ:  cpu time    0.03: real time    0.03
     EDDAV:  cpu time  132.44: real time  132.51
 BZINTS: Fermi energy: -2.754965;120.000000 electrons
         Band energy:***********;  BLOECHL correction:  0.000000
       DOS:  cpu time    0.01: real time    0.01
    CHARGE:  cpu time    1.82: real time    1.82
    MIXING:  cpu time    0.01: real time    0.01
    --------------------------------------------
      LOOP:  cpu time  134.60: real time  134.67

 eigenvalue-minimisations  :  6598
 total energy-change (2. order) :-0.1097150E-02  (-0.1780970E-03)
 number of electron     120.0000046 magnetization 
 augmentation part        2.9136079 magnetization 

 Broyden mixing:
  rms(total) = 0.10799E-01    rms(broyden)= 0.10799E-01
  rms(prec ) = 0.13674E-01
  weight for this iteration     100.00

 eigenvalues of (default mixing * dielectric matrix)
  average eigenvalue GAMMA=   1.6215
  2.7474  1.9934  1.5168  1.4279  1.0218  1.0218

 Free energy of the ion-electron system (eV)
  ---------------------------------------------------
  alpha Z        PSCENC =        72.14763151
  Ewald energy   TEWEN  =     -1149.77697145
  -Hartree energ DENC   =     -1585.67242163
  -exchange      EXHF   =         0.00000000
  -V(xc)+E(xc)   XCENC  =       387.29993364
  PAW double counting   =      1528.50294809    -1551.51788859
  entropy T*S    EENTRO =         0.00000000
  eigenvalues    EBANDS =     -1082.85973629
  atomic energy  EATOM  =      3053.73195627
  ---------------------------------------------------
  free energy    TOTEN  =      -328.14454844 eV

  energy without entropy =     -328.14454844  energy(sigma->0) =     -328.14454844


--------------------------------------------------------------------------------------------------------




----------------------------------------- Iteration    1(  12)  ---------------------------------------


    POTLOK:  cpu time    0.28: real time    0.28
    SETDIJ:  cpu time    0.03: real time    0.03
     EDDAV:  cpu time  126.62: real time  126.69
 BZINTS: Fermi energy: -2.766835;120.000000 electrons
         Band energy:***********;  BLOECHL correction:  0.000000
       DOS:  cpu time    0.01: real time    0.01
    CHARGE:  cpu time    1.86: real time    1.86
    MIXING:  cpu time    0.01: real time    0.01
    --------------------------------------------
      LOOP:  cpu time  128.82: real time  128.88

 eigenvalue-minimisations  :  6248
 total energy-change (2. order) :-0.6809370E-03  (-0.1987294E-03)
 number of electron     120.0000046 magnetization 
 augmentation part        2.9144857 magnetization 

 Broyden mixing:
  rms(total) = 0.45996E-02    rms(broyden)= 0.45992E-02
  rms(prec ) = 0.56082E-02
  weight for this iteration     100.00

 eigenvalues of (default mixing * dielectric matrix)
  average eigenvalue GAMMA=   1.6078
  2.7056  2.5422  1.2850  1.2850  0.9655  1.2356  1.2356

 Free energy of the ion-electron system (eV)
  ---------------------------------------------------
  alpha Z        PSCENC =        72.14763151
  Ewald energy   TEWEN  =     -1149.77697145
  -Hartree energ DENC   =     -1585.84612002
  -exchange      EXHF   =         0.00000000
  -V(xc)+E(xc)   XCENC  =       387.34789158
  PAW double counting   =      1527.66814890    -1550.66466332
  entropy T*S    EENTRO =         0.00000000
  eigenvalues    EBANDS =     -1082.75310285
  atomic energy  EATOM  =      3053.73195627
  ---------------------------------------------------
  free energy    TOTEN  =      -328.14522937 eV

  energy without entropy =     -328.14522937  energy(sigma->0) =     -328.14522937


--------------------------------------------------------------------------------------------------------




----------------------------------------- Iteration    1(  13)  ---------------------------------------


    POTLOK:  cpu time    0.28: real time    0.28
    SETDIJ:  cpu time    0.03: real time    0.03
     EDDAV:  cpu time  129.25: real time  129.31
 BZINTS: Fermi energy: -2.766387;120.000000 electrons
         Band energy:***********;  BLOECHL correction:  0.000000
       DOS:  cpu time    0.01: real time    0.01
    CHARGE:  cpu time    2.05: real time    2.06
    MIXING:  cpu time    0.01: real time    0.01
    --------------------------------------------
      LOOP:  cpu time  131.64: real time  131.71

 eigenvalue-minimisations  :  6368
 total energy-change (2. order) :-0.6587631E-04  (-0.3461497E-04)
 number of electron     120.0000046 magnetization 
 augmentation part        2.9142143 magnetization 

 Broyden mixing:
  rms(total) = 0.12701E-02    rms(broyden)= 0.12700E-02
  rms(prec ) = 0.16517E-02
  weight for this iteration     100.00

 eigenvalues of (default mixing * dielectric matrix)
  average eigenvalue GAMMA=   1.6500
  2.9258  2.5006  2.1346  1.3343  1.2027  1.2027  0.9495  0.9495

 Free energy of the ion-electron system (eV)
  ---------------------------------------------------
  alpha Z        PSCENC =        72.14763151
  Ewald energy   TEWEN  =     -1149.77697145
  -Hartree energ DENC   =     -1585.88297296
  -exchange      EXHF   =         0.00000000
  -V(xc)+E(xc)   XCENC  =       387.33798863
  PAW double counting   =      1527.11075059    -1550.11108270
  entropy T*S    EENTRO =         0.00000000
  eigenvalues    EBANDS =     -1082.70259515
  atomic energy  EATOM  =      3053.73195627
  ---------------------------------------------------
  free energy    TOTEN  =      -328.14529525 eV

  energy without entropy =     -328.14529525  energy(sigma->0) =     -328.14529525


--------------------------------------------------------------------------------------------------------




----------------------------------------- Iteration    1(  14)  ---------------------------------------


    POTLOK:  cpu time    0.27: real time    0.27
    SETDIJ:  cpu time    0.03: real time    0.03
     EDDAV:  cpu time  111.69: real time  111.75
 BZINTS: Fermi energy: -2.766024;120.000000 electrons
         Band energy:***********;  BLOECHL correction:  0.000000
       DOS:  cpu time    0.01: real time    0.01
    CHARGE:  cpu time    1.61: real time    1.61
    MIXING:  cpu time    0.01: real time    0.01
    --------------------------------------------
      LOOP:  cpu time  113.62: real time  113.68

 eigenvalue-minimisations  :  5840
 total energy-change (2. order) :-0.1949528E-04  (-0.3966014E-05)
 number of electron     120.0000046 magnetization 
 augmentation part        2.9141730 magnetization 

 Broyden mixing:
  rms(total) = 0.39197E-03    rms(broyden)= 0.39195E-03
  rms(prec ) = 0.56022E-03
  weight for this iteration     100.00

 eigenvalues of (default mixing * dielectric matrix)
  average eigenvalue GAMMA=   1.6316
  3.1605  2.5287  1.9391  1.4495  1.4495  1.1394  1.1394  0.9391  0.9391

 Free energy of the ion-electron system (eV)
  ---------------------------------------------------
  alpha Z        PSCENC =        72.14763151
  Ewald energy   TEWEN  =     -1149.77697145
  -Hartree energ DENC   =     -1585.94975117
  -exchange      EXHF   =         0.00000000
  -V(xc)+E(xc)   XCENC  =       387.34599893
  PAW double counting   =      1527.19237669    -1550.19282649
  entropy T*S    EENTRO =         0.00000000
  eigenvalues    EBANDS =     -1082.64372905
  atomic energy  EATOM  =      3053.73195627
  ---------------------------------------------------
  free energy    TOTEN  =      -328.14531474 eV

  energy without entropy =     -328.14531474  energy(sigma->0) =     -328.14531474


--------------------------------------------------------------------------------------------------------




----------------------------------------- Iteration    1(  15)  ---------------------------------------


    POTLOK:  cpu time    0.26: real time    0.26
    SETDIJ:  cpu time    0.03: real time    0.03
     EDDAV:  cpu time  117.55: real time  117.61
 BZINTS: Fermi energy: -2.765939;120.000000 electrons
         Band energy:***********;  BLOECHL correction:  0.000000
       DOS:  cpu time    0.01: real time    0.01
    CHARGE:  cpu time    2.04: real time    2.05
    MIXING:  cpu time    0.02: real time    0.02
    --------------------------------------------
      LOOP:  cpu time  119.91: real time  119.97

 eigenvalue-minimisations  :  5936
 total energy-change (2. order) :-0.1489896E-05  (-0.3548415E-06)
 number of electron     120.0000046 magnetization 
 augmentation part        2.9141473 magnetization 

 Broyden mixing:
  rms(total) = 0.39463E-03    rms(broyden)= 0.39462E-03
  rms(prec ) = 0.49727E-03
  weight for this iteration     100.00

 eigenvalues of (default mixing * dielectric matrix)
  average eigenvalue GAMMA=   1.6919
  3.3139  2.6815  2.1362  2.1362  1.2055  1.2055  1.3141  1.0169  1.0169  0.8926

 Free energy of the ion-electron system (eV)
  ---------------------------------------------------
  alpha Z        PSCENC =        72.14763151
  Ewald energy   TEWEN  =     -1149.77697145
  -Hartree energ DENC   =     -1585.96867982
  -exchange      EXHF   =         0.00000000
  -V(xc)+E(xc)   XCENC  =       387.34668646
  PAW double counting   =      1527.20206602    -1550.20272481
  entropy T*S    EENTRO =         0.00000000
  eigenvalues    EBANDS =     -1082.62528043
  atomic energy  EATOM  =      3053.73195627
  ---------------------------------------------------
  free energy    TOTEN  =      -328.14531623 eV

  energy without entropy =     -328.14531623  energy(sigma->0) =     -328.14531623


--------------------------------------------------------------------------------------------------------




----------------------------------------- Iteration    1(  16)  ---------------------------------------


    POTLOK:  cpu time    0.29: real time    0.29
    SETDIJ:  cpu time    0.03: real time    0.03
     EDDAV:  cpu time  104.73: real time  104.78
 BZINTS: Fermi energy: -2.766118;120.000000 electrons
         Band energy:***********;  BLOECHL correction:  0.000000
       DOS:  cpu time    0.01: real time    0.01
    --------------------------------------------
      LOOP:  cpu time  105.06: real time  105.12

 eigenvalue-minimisations  :  4816
 total energy-change (2. order) :-0.4001818E-06  (-0.2428394E-06)
 number of electron     120.0000046 magnetization 
 augmentation part        2.9141473 magnetization 

 Free energy of the ion-electron system (eV)
  ---------------------------------------------------
  alpha Z        PSCENC =        72.14763151
  Ewald energy   TEWEN  =     -1149.77697145
  -Hartree energ DENC   =     -1585.95171168
  -exchange      EXHF   =         0.00000000
  -V(xc)+E(xc)   XCENC  =       387.34554258
  PAW double counting   =      1527.20746204    -1550.20775384
  entropy T*S    EENTRO =         0.00000000
  eigenvalues    EBANDS =     -1082.64147208
  atomic energy  EATOM  =      3053.73195627
  ---------------------------------------------------
  free energy    TOTEN  =      -328.14531663 eV

  energy without entropy =     -328.14531663  energy(sigma->0) =     -328.14531663


--------------------------------------------------------------------------------------------------------




 average (electrostatic) potential at core
  the test charge radii are     0.5201  0.6991
  (the norm of the test charge is              1.0000)
       1 -39.5614       2 -39.5614       3 -39.5614       4 -39.5614       5 -39.5614
       6 -39.5614       7 -39.5614       8 -39.5614       9 -39.5614      10 -39.5614
      11 -39.5614      12 -39.5614      13 -39.5614      14 -39.5614      15 -39.5614
      16 -39.5614      17 -39.5636      18 -39.5636      19 -39.5636      20 -39.5636
      21 -39.5636      22 -39.5636      23 -39.5636      24 -39.5636      25 -39.5636
      26 -39.5636      27 -39.5636      28 -39.5636      29 -39.5636      30 -39.5636
      31 -39.5636      32 -39.5636      33 -40.1307      34 -40.1307      35 -40.1307
      36 -40.1307      37 -40.1307      38 -40.1307      39 -40.1307      40 -40.1307
      41 -40.1307      42 -40.1307      43 -40.1307      44 -40.1307      45 -40.1307
      46 -40.1307      47 -40.1307      48 -40.1307      49 -40.1179      50 -40.1179
      51 -40.1179      52 -40.1179      53 -40.1179      54 -40.1179      55 -40.1179
      56 -40.1179      57 -56.4114      58 -56.4114      59 -56.4114      60 -56.4114
      61 -56.4114      62 -56.4114      63 -56.4114      64 -56.4114      65 -55.0790
      66 -55.0790      67 -55.0790      68 -55.0790      69 -55.0790      70 -55.0790
      71 -55.0790      72 -55.0790
 
 
 
 E-fermi :  -2.7661     XC(G=0):  -6.2534     alpha+bet : -4.0995


 k-point     1 :       0.0000    0.0000    0.0000
  band No.  band energies     occupation 
      1     -15.2000      2.00000
      2     -15.0706      2.00000
      3     -14.9614      2.00000
      4     -14.9522      2.00000
      5     -14.9478      2.00000
      6     -14.9458      2.00000
      7     -14.8403      2.00000
      8     -14.8375      2.00000
      9     -14.8311      2.00000
     10     -14.7576      2.00000
     11     -14.7524      2.00000
     12     -14.7037      2.00000
     13     -14.6981      2.00000
     14     -14.6832      2.00000
     15     -14.6415      2.00000
     16     -14.6291      2.00000
     17      -8.0579      2.00000
     18      -7.9758      2.00000
     19      -7.9522      2.00000
     20      -7.9480      2.00000
     21      -7.9460      2.00000
     22      -7.8797      2.00000
     23      -7.8136      2.00000
     24      -7.6445      2.00000
     25      -7.5892      2.00000
     26      -7.5890      2.00000
     27      -7.5520      2.00000
     28      -7.5173      2.00000
     29      -7.4628      2.00000
     30      -7.4216      2.00000
     31      -7.4181      2.00000
     32      -7.3607      2.00000
     33      -7.3255      2.00000
     34      -7.3242      2.00000
     35      -7.3092      2.00000
     36      -7.3021      2.00000
     37      -7.2498      2.00000
     38      -7.2023      2.00000
     39      -7.1961      2.00000
     40      -7.1448      2.00000
     41      -7.1223      2.00000
     42      -7.0780      2.00000
     43      -7.0770      2.00000
     44      -7.0097      2.00000
     45      -6.9905      2.00000
     46      -6.9830      2.00000
     47      -6.9083      2.00000
     48      -6.8916      2.00000
     49      -6.8807      2.00000
     50      -6.8533      2.00000
     51      -6.8404      2.00000
     52      -6.8081      2.00000
     53      -6.7935      2.00000
     54      -6.7899      2.00000
     55      -6.7894      2.00000
     56      -6.7845      2.00000
     57      -3.2979      2.00000
     58      -3.1401      2.00000
     59      -3.0609      2.00000
     60      -2.9877      2.00000
     61      -2.4001      0.00000
     62      -2.3744      0.00000
     63      -2.3162      0.00000
     64      -2.3131      0.00000
     65       1.6633      0.00000
     66       2.8492      0.00000
     67       3.0204      0.00000
     68       3.2329      0.00000
     69       3.5016      0.00000
     70       3.7950      0.00000
     71       3.8242      0.00000
     72       3.8321      0.00000
     73       3.8383      0.00000
     74       3.9814      0.00000
     75       3.9954      0.00000
     76       4.0016      0.00000
     77       4.0017      0.00000
     78       4.2133      0.00000
     79       4.4834      0.00000
     80       4.5078      0.00000
     81       4.7160      0.00000
     82       4.9969      0.00000
     83       5.0550      0.00000
     84       5.1340      0.00000
     85       5.1637      0.00000
     86       5.2006      0.00000
     87       5.2313      0.00000
     88       5.2926      0.00000
     89       5.3277      0.00000
     90       5.6019      0.00000
     91       5.7004      0.00000
     92       5.7320      0.00000
     93       5.7492      0.00000
     94       5.7542      0.00000
     95       5.8040      0.00000
     96       6.1579      0.00000
     97       6.1757      0.00000
     98       6.2622      0.00000

 k-point     2 :       0.2500    0.0000    0.0000
  band No.  band energies     occupation 
      1     -15.1859      2.00000
      2     -15.0978      2.00000
      3     -14.9596      2.00000
      4     -14.9522      2.00000
      5     -14.9490      2.00000
      6     -14.9466      2.00000
      7     -14.8396      2.00000
      8     -14.8379      2.00000
      9     -14.8015      2.00000
     10     -14.7568      2.00000
     11     -14.7532      2.00000
     12     -14.7029      2.00000
     13     -14.7000      2.00000
     14     -14.6990      2.00000
     15     -14.6396      2.00000
     16     -14.6309      2.00000
     17      -8.0357      2.00000
     18      -7.9492      2.00000
     19      -7.9398      2.00000
     20      -7.9165      2.00000
     21      -7.9155      2.00000
     22      -7.9109      2.00000
     23      -7.8289      2.00000
     24      -7.7127      2.00000
     25      -7.6992      2.00000
     26      -7.6937      2.00000
     27      -7.5470      2.00000
     28      -7.5224      2.00000
     29      -7.4122      2.00000
     30      -7.3752      2.00000
     31      -7.3505      2.00000
     32      -7.3204      2.00000
     33      -7.3147      2.00000
     34      -7.3073      2.00000
     35      -7.3031      2.00000
     36      -7.2844      2.00000
     37      -7.2596      2.00000
     38      -7.1856      2.00000
     39      -7.1608      2.00000
     40      -7.1333      2.00000
     41      -7.1288      2.00000
     42      -7.1123      2.00000
     43      -7.0480      2.00000
     44      -7.0432      2.00000
     45      -6.9902      2.00000
     46      -6.9835      2.00000
     47      -6.9057      2.00000
     48      -6.9039      2.00000
     49      -6.8931      2.00000
     50      -6.8805      2.00000
     51      -6.8462      2.00000
     52      -6.8142      2.00000
     53      -6.7927      2.00000
     54      -6.7898      2.00000
     55      -6.7888      2.00000
     56      -6.7851      2.00000
     57      -3.2749      2.00000
     58      -3.1633      2.00000
     59      -3.0502      2.00000
     60      -2.9984      2.00000
     61      -2.3964      0.00000
     62      -2.3782      0.00000
     63      -2.3156      0.00000
     64      -2.3134      0.00000
     65       1.7593      0.00000
     66       2.4436      0.00000
     67       3.3142      0.00000
     68       3.3882      0.00000
     69       3.5469      0.00000
     70       3.7773      0.00000
     71       3.7775      0.00000
     72       3.8199      0.00000
     73       3.8651      0.00000
     74       3.8713      0.00000
     75       3.9450      0.00000
     76       3.9875      0.00000
     77       4.1064      0.00000
     78       4.3100      0.00000
     79       4.4584      0.00000
     80       4.5595      0.00000
     81       4.7872      0.00000
     82       4.8605      0.00000
     83       4.9104      0.00000
     84       5.0429      0.00000
     85       5.0872      0.00000
     86       5.2118      0.00000
     87       5.2157      0.00000
     88       5.2378      0.00000
     89       5.2599      0.00000
     90       5.5245      0.00000
     91       5.7361      0.00000
     92       5.7492      0.00000
     93       5.7643      0.00000
     94       5.7907      0.00000
     95       5.9341      0.00000
     96       6.0344      0.00000
     97       6.1177      0.00000
     98       6.1727      0.00000

 k-point     3 :       0.5000    0.0000    0.0000
  band No.  band energies     occupation 
      1     -15.1474      2.00000
      2     -15.1474      2.00000
      3     -14.9553      2.00000
      4     -14.9553      2.00000
      5     -14.9484      2.00000
      6     -14.9484      2.00000
      7     -14.8388      2.00000
      8     -14.8388      2.00000
      9     -14.7550      2.00000
     10     -14.7550      2.00000
     11     -14.7452      2.00000
     12     -14.7452      2.00000
     13     -14.7009      2.00000
     14     -14.7009      2.00000
     15     -14.6352      2.00000
     16     -14.6352      2.00000
     17      -7.9775      2.00000
     18      -7.9775      2.00000
     19      -7.9170      2.00000
     20      -7.9170      2.00000
     21      -7.8293      2.00000
     22      -7.8293      2.00000
     23      -7.8283      2.00000
     24      -7.8283      2.00000
     25      -7.8133      2.00000
     26      -7.8133      2.00000
     27      -7.5347      2.00000
     28      -7.5347      2.00000
     29      -7.3963      2.00000
     30      -7.3963      2.00000
     31      -7.3112      2.00000
     32      -7.3112      2.00000
     33      -7.2838      2.00000
     34      -7.2838      2.00000
     35      -7.2389      2.00000
     36      -7.2389      2.00000
     37      -7.2082      2.00000
     38      -7.2082      2.00000
     39      -7.1597      2.00000
     40      -7.1597      2.00000
     41      -7.1418      2.00000
     42      -7.1418      2.00000
     43      -7.0022      2.00000
     44      -7.0022      2.00000
     45      -6.9753      2.00000
     46      -6.9753      2.00000
     47      -6.9702      2.00000
     48      -6.9702      2.00000
     49      -6.8974      2.00000
     50      -6.8974      2.00000
     51      -6.8296      2.00000
     52      -6.8296      2.00000
     53      -6.7910      2.00000
     54      -6.7910      2.00000
     55      -6.7868      2.00000
     56      -6.7868      2.00000
     57      -3.2191      2.00000
     58      -3.2191      2.00000
     59      -3.0243      2.00000
     60      -3.0243      2.00000
     61      -2.3873      0.00000
     62      -2.3873      0.00000
     63      -2.3143      0.00000
     64      -2.3143      0.00000
     65       2.0334      0.00000
     66       2.0334      0.00000
     67       3.5379      0.00000
     68       3.5379      0.00000
     69       3.6608      0.00000
     70       3.6608      0.00000
     71       3.6710      0.00000
     72       3.6710      0.00000
     73       3.9064      0.00000
     74       3.9064      0.00000
     75       3.9359      0.00000
     76       3.9359      0.00000
     77       4.3021      0.00000
     78       4.3021      0.00000
     79       4.5675      0.00000
     80       4.5675      0.00000
     81       4.7036      0.00000
     82       4.7036      0.00000
     83       4.9778      0.00000
     84       4.9778      0.00000
     85       5.0214      0.00000
     86       5.0215      0.00000
     87       5.1969      0.00000
     88       5.1969      0.00000
     89       5.3065      0.00000
     90       5.3065      0.00000
     91       5.8056      0.00000
     92       5.8056      0.00000
     93       5.8439      0.00000
     94       5.8439      0.00000
     95       5.9833      0.00000
     96       5.9833      0.00000
     97       6.0324      0.00000
     98       6.0324      0.00000

 k-point     4 :       0.0000    0.2500    0.0000
  band No.  band energies     occupation 
      1     -15.1700      2.00000
      2     -15.0529      2.00000
      3     -14.9988      2.00000
      4     -14.9647      2.00000
      5     -14.9451      2.00000
      6     -14.9321      2.00000
      7     -14.8606      2.00000
      8     -14.8541      2.00000
      9     -14.8127      2.00000
     10     -14.7413      2.00000
     11     -14.7324      2.00000
     12     -14.7185      2.00000
     13     -14.6919      2.00000
     14     -14.6805      2.00000
     15     -14.6585      2.00000
     16     -14.6466      2.00000
     17      -7.9733      2.00000
     18      -7.9179      2.00000
     19      -7.9081      2.00000
     20      -7.9055      2.00000
     21      -7.8869      2.00000
     22      -7.8063      2.00000
     23      -7.7424      2.00000
     24      -7.6798      2.00000
     25      -7.6637      2.00000
     26      -7.6429      2.00000
     27      -7.5780      2.00000
     28      -7.5444      2.00000
     29      -7.5264      2.00000
     30      -7.5097      2.00000
     31      -7.4440      2.00000
     32      -7.3889      2.00000
     33      -7.3425      2.00000
     34      -7.2916      2.00000
     35      -7.2583      2.00000
     36      -7.2544      2.00000
     37      -7.2516      2.00000
     38      -7.1869      2.00000
     39      -7.1426      2.00000
     40      -7.1124      2.00000
     41      -7.0896      2.00000
     42      -7.0860      2.00000
     43      -7.0226      2.00000
     44      -7.0216      2.00000
     45      -6.9997      2.00000
     46      -6.9874      2.00000
     47      -6.9353      2.00000
     48      -6.8993      2.00000
     49      -6.8917      2.00000
     50      -6.8880      2.00000
     51      -6.8834      2.00000
     52      -6.8668      2.00000
     53      -6.8656      2.00000
     54      -6.8509      2.00000
     55      -6.8027      2.00000
     56      -6.7968      2.00000
     57      -3.2516      2.00000
     58      -3.1280      2.00000
     59      -3.0719      2.00000
     60      -3.0324      2.00000
     61      -2.3864      0.00000
     62      -2.3645      0.00000
     63      -2.3266      0.00000
     64      -2.3208      0.00000
     65       1.8603      0.00000
     66       2.9932      0.00000
     67       3.1569      0.00000
     68       3.1772      0.00000
     69       3.3591      0.00000
     70       3.6462      0.00000
     71       3.6960      0.00000
     72       3.7921      0.00000
     73       3.7930      0.00000
     74       4.0060      0.00000
     75       4.1302      0.00000
     76       4.1837      0.00000
     77       4.3713      0.00000
     78       4.4193      0.00000
     79       4.6005      0.00000
     80       4.6494      0.00000
     81       4.8006      0.00000
     82       4.9891      0.00000
[...]
  Hartree   541.85104   549.54889   357.56559    -0.00000    -0.00000    -0.00000
  E(xc)    -400.38239  -400.46323  -404.52187     0.00000     0.00000     0.00000
  Local   -1278.26170 -1292.86967  -492.85323     0.00000     0.00000    -0.00000
  n-local  -221.18856  -221.01603  -208.76359     0.00035    -0.00815     0.00035
  augment     1.55903     1.56845     1.89891    -0.00000    -0.00000    -0.00000
  Kinetic  1501.98963  1502.67498  1563.08621    -0.00305     0.02972    -0.00126
  Fock        0.00000     0.00000     0.00000     0.00000     0.00000     0.00000
  vdW        -2.90226    -2.90080    -2.97240     0.00000     0.00000    -0.00000
  -------------------------------------------------------------------------------------
  Total      -1.02091    -1.54860   -10.63956     0.00000     0.00000     0.00000
  in kB      -2.12700    -3.22643   -22.16696     0.00000     0.00000     0.00000
  external pressure =       -9.17 kB  Pullay stress =        0.00 kB


 VOLUME and BASIS-vectors are now :
 -----------------------------------------------------------------------------
  energy-cutoff  :      600.00
  volume of cell :      769.00
      direct lattice vectors                 reciprocal lattice vectors
    11.629321165  0.000000000  0.000000000     0.085989542  0.000000000  0.000000000
     0.000000000  8.134336182  0.000000000     0.000000000  0.122935662  0.000000000
     0.000000000  0.000000000  8.129271110     0.000000000  0.000000000  0.123012259

  length of vectors
    11.629321165  8.134336182  8.129271110     0.085989542  0.122935662  0.123012259


 FORCES acting on ions
    electron-ion (+dipol)            ewald-force                    non-local-force                 convergence-correction
 -----------------------------------------------------------------------------------------------
   -.259E+02 -.275E+02 0.228E+02   0.291E+02 0.310E+02 -.256E+02   -.325E+01 -.346E+01 0.282E+01   -.146E-03 -.189E-03 0.149E-03
   0.259E+02 0.275E+02 -.228E+02   -.291E+02 -.310E+02 0.256E+02   0.325E+01 0.346E+01 -.282E+01   0.146E-03 0.189E-03 -.149E-03
   0.259E+02 0.275E+02 0.228E+02   -.291E+02 -.310E+02 -.256E+02   0.325E+01 0.346E+01 0.282E+01   0.146E-03 0.189E-03 0.149E-03
   -.259E+02 -.275E+02 -.228E+02   0.291E+02 0.310E+02 0.256E+02   -.325E+01 -.346E+01 -.282E+01   -.146E-03 -.189E-03 -.149E-03
   0.259E+02 -.275E+02 -.228E+02   -.291E+02 0.310E+02 0.256E+02   0.325E+01 -.346E+01 -.282E+01   0.146E-03 -.189E-03 -.149E-03
   -.259E+02 0.275E+02 0.228E+02   0.291E+02 -.310E+02 -.256E+02   -.325E+01 0.346E+01 0.282E+01   -.146E-03 0.189E-03 0.149E-03
   -.259E+02 0.275E+02 -.228E+02   0.291E+02 -.310E+02 0.256E+02   -.325E+01 0.346E+01 -.282E+01   -.146E-03 0.189E-03 -.149E-03
   0.259E+02 -.275E+02 0.228E+02   -.291E+02 0.310E+02 -.256E+02   0.325E+01 -.346E+01 0.282E+01   0.146E-03 -.189E-03 0.149E-03
   -.259E+02 -.275E+02 0.228E+02   0.291E+02 0.310E+02 -.256E+02   -.325E+01 -.346E+01 0.282E+01   -.146E-03 -.189E-03 0.149E-03
   0.259E+02 0.275E+02 -.228E+02   -.291E+02 -.310E+02 0.256E+02   0.325E+01 0.346E+01 -.282E+01   0.146E-03 0.189E-03 -.149E-03
   0.259E+02 0.275E+02 0.228E+02   -.291E+02 -.310E+02 -.256E+02   0.325E+01 0.346E+01 0.282E+01   0.146E-03 0.189E-03 0.149E-03
   -.259E+02 -.275E+02 -.228E+02   0.291E+02 0.310E+02 0.256E+02   -.325E+01 -.346E+01 -.282E+01   -.146E-03 -.189E-03 -.149E-03
   0.259E+02 -.275E+02 -.228E+02   -.291E+02 0.310E+02 0.256E+02   0.325E+01 -.346E+01 -.282E+01   0.146E-03 -.189E-03 -.149E-03
   -.259E+02 0.275E+02 0.228E+02   0.291E+02 -.310E+02 -.256E+02   -.325E+01 0.346E+01 0.282E+01   -.146E-03 0.189E-03 0.149E-03
   -.259E+02 0.275E+02 -.228E+02   0.291E+02 -.310E+02 0.256E+02   -.325E+01 0.346E+01 -.282E+01   -.146E-03 0.189E-03 -.149E-03
   0.259E+02 -.275E+02 0.228E+02   -.291E+02 0.310E+02 -.256E+02   0.325E+01 -.346E+01 0.282E+01   0.146E-03 -.189E-03 0.149E-03
   0.259E+02 -.230E+02 -.271E+02   -.291E+02 0.259E+02 0.305E+02   0.320E+01 -.291E+01 -.343E+01   0.178E-03 -.124E-03 -.140E-03
   -.259E+02 0.230E+02 0.271E+02   0.291E+02 -.259E+02 -.305E+02   -.320E+01 0.291E+01 0.343E+01   -.178E-03 0.124E-03 0.140E-03
   -.259E+02 0.230E+02 -.271E+02   0.291E+02 -.259E+02 0.305E+02   -.320E+01 0.291E+01 -.343E+01   -.178E-03 0.124E-03 -.140E-03
   0.259E+02 -.230E+02 0.271E+02   -.291E+02 0.259E+02 -.305E+02   0.320E+01 -.291E+01 0.343E+01   0.178E-03 -.124E-03 0.140E-03
   -.259E+02 -.230E+02 0.271E+02   0.291E+02 0.259E+02 -.305E+02   -.320E+01 -.291E+01 0.343E+01   -.178E-03 -.124E-03 0.140E-03
   0.259E+02 0.230E+02 -.271E+02   -.291E+02 -.259E+02 0.305E+02   0.320E+01 0.291E+01 -.343E+01   0.178E-03 0.124E-03 -.140E-03
   0.259E+02 0.230E+02 0.271E+02   -.291E+02 -.259E+02 -.305E+02   0.320E+01 0.291E+01 0.343E+01   0.178E-03 0.124E-03 0.140E-03
   -.259E+02 -.230E+02 -.271E+02   0.291E+02 0.259E+02 0.305E+02   -.320E+01 -.291E+01 -.343E+01   -.178E-03 -.124E-03 -.140E-03
   0.259E+02 -.230E+02 -.271E+02   -.291E+02 0.259E+02 0.305E+02   0.320E+01 -.291E+01 -.343E+01   0.178E-03 -.124E-03 -.140E-03
   -.259E+02 0.230E+02 0.271E+02   0.291E+02 -.259E+02 -.305E+02   -.320E+01 0.291E+01 0.343E+01   -.178E-03 0.124E-03 0.140E-03
   -.259E+02 0.230E+02 -.271E+02   0.291E+02 -.259E+02 0.305E+02   -.320E+01 0.291E+01 -.343E+01   -.178E-03 0.124E-03 -.140E-03
   0.259E+02 -.230E+02 0.271E+02   -.291E+02 0.259E+02 -.305E+02   0.320E+01 -.291E+01 0.343E+01   0.178E-03 -.124E-03 0.140E-03
   -.259E+02 -.230E+02 0.271E+02   0.291E+02 0.259E+02 -.305E+02   -.320E+01 -.291E+01 0.343E+01   -.178E-03 -.124E-03 0.140E-03
   0.259E+02 0.230E+02 -.271E+02   -.291E+02 -.259E+02 0.305E+02   0.320E+01 0.291E+01 -.343E+01   0.178E-03 0.124E-03 -.140E-03
   0.259E+02 0.230E+02 0.271E+02   -.291E+02 -.259E+02 -.305E+02   0.320E+01 0.291E+01 0.343E+01   0.178E-03 0.124E-03 0.140E-03
   -.259E+02 -.230E+02 -.271E+02   0.291E+02 0.259E+02 0.305E+02   -.320E+01 -.291E+01 -.343E+01   -.178E-03 -.124E-03 -.140E-03
   -.342E+02 -.200E+02 0.184E+01   0.393E+02 0.229E+02 -.222E+01   -.510E+01 -.290E+01 0.371E+00   0.132E-03 0.679E-04 0.357E-04
   0.342E+02 0.200E+02 -.184E+01   -.393E+02 -.229E+02 0.222E+01   0.510E+01 0.290E+01 -.371E+00   -.132E-03 -.679E-04 -.357E-04
   0.342E+02 0.200E+02 0.184E+01   -.393E+02 -.229E+02 -.222E+01   0.510E+01 0.290E+01 0.371E+00   -.132E-03 -.679E-04 0.357E-04
   -.342E+02 -.200E+02 -.184E+01   0.393E+02 0.229E+02 0.222E+01   -.510E+01 -.290E+01 -.371E+00   0.132E-03 0.679E-04 -.357E-04
   0.342E+02 -.200E+02 -.184E+01   -.393E+02 0.229E+02 0.222E+01   0.510E+01 -.290E+01 -.371E+00   -.132E-03 0.679E-04 -.357E-04
   -.342E+02 0.200E+02 0.184E+01   0.393E+02 -.229E+02 -.222E+01   -.510E+01 0.290E+01 0.371E+00   0.132E-03 -.679E-04 0.357E-04
   -.342E+02 0.200E+02 -.184E+01   0.393E+02 -.229E+02 0.222E+01   -.510E+01 0.290E+01 -.371E+00   0.132E-03 -.679E-04 -.357E-04
   0.342E+02 -.200E+02 0.184E+01   -.393E+02 0.229E+02 -.222E+01   0.510E+01 -.290E+01 0.371E+00   -.132E-03 0.679E-04 0.357E-04
   -.342E+02 -.200E+02 0.184E+01   0.393E+02 0.229E+02 -.222E+01   -.510E+01 -.290E+01 0.371E+00   0.132E-03 0.679E-04 0.357E-04
   0.342E+02 0.200E+02 -.184E+01   -.393E+02 -.229E+02 0.222E+01   0.510E+01 0.290E+01 -.371E+00   -.132E-03 -.679E-04 -.357E-04
   0.342E+02 0.200E+02 0.184E+01   -.393E+02 -.229E+02 -.222E+01   0.510E+01 0.290E+01 0.371E+00   -.132E-03 -.679E-04 0.357E-04
   -.342E+02 -.200E+02 -.184E+01   0.393E+02 0.229E+02 0.222E+01   -.510E+01 -.290E+01 -.371E+00   0.132E-03 0.679E-04 -.357E-04
   0.342E+02 -.200E+02 -.184E+01   -.393E+02 0.229E+02 0.222E+01   0.510E+01 -.290E+01 -.371E+00   -.132E-03 0.679E-04 -.357E-04
   -.342E+02 0.200E+02 0.184E+01   0.393E+02 -.229E+02 -.222E+01   -.510E+01 0.290E+01 0.371E+00   0.132E-03 -.679E-04 0.357E-04
   -.342E+02 0.200E+02 -.184E+01   0.393E+02 -.229E+02 0.222E+01   -.510E+01 0.290E+01 -.371E+00   0.132E-03 -.679E-04 -.357E-04
   0.342E+02 -.200E+02 0.184E+01   -.393E+02 0.229E+02 -.222E+01   0.510E+01 -.290E+01 0.371E+00   -.132E-03 0.679E-04 0.357E-04
   0.150E-07 0.405E+02 -.369E+01   -.702E-06 -.463E+02 0.416E+01   0.106E-21 0.586E+01 -.480E+00   -.889E-11 -.154E-03 0.476E-04
   0.150E-07 -.405E+02 0.369E+01   -.702E-06 0.463E+02 -.416E+01   0.000E+00 -.586E+01 0.480E+00   -.888E-11 0.154E-03 -.476E-04
   0.150E-07 -.405E+02 -.369E+01   -.702E-06 0.463E+02 0.416E+01   0.132E-21 -.586E+01 -.480E+00   -.888E-11 0.154E-03 0.476E-04
   0.150E-07 0.405E+02 0.369E+01   -.702E-06 -.463E+02 -.416E+01   -.132E-21 0.586E+01 0.480E+00   -.891E-11 -.154E-03 -.476E-04
   -.160E-07 0.405E+02 -.369E+01   0.747E-06 -.463E+02 0.416E+01   0.106E-21 0.586E+01 -.480E+00   0.320E-11 -.154E-03 0.476E-04
   -.160E-07 -.405E+02 0.369E+01   0.747E-06 0.463E+02 -.416E+01   -.106E-21 -.586E+01 0.480E+00   0.316E-11 0.154E-03 -.476E-04
   -.160E-07 -.405E+02 -.369E+01   0.747E-06 0.463E+02 0.416E+01   0.185E-21 -.586E+01 -.480E+00   0.318E-11 0.154E-03 0.476E-04
   -.160E-07 0.405E+02 0.369E+01   0.747E-06 -.463E+02 -.416E+01   -.132E-21 0.586E+01 0.480E+00   0.319E-11 -.154E-03 -.476E-04
   -.247E-06 -.101E+01 -.209E+01   0.124E-04 0.960E+00 0.218E+01   0.794E-21 0.668E-01 -.932E-01   -.678E-11 0.999E-04 0.373E-03
   -.247E-06 0.101E+01 0.209E+01   0.124E-04 -.960E+00 -.218E+01   0.847E-21 -.668E-01 0.932E-01   -.679E-11 -.999E-04 -.373E-03
   -.247E-06 0.101E+01 -.209E+01   0.124E-04 -.960E+00 0.218E+01   -.847E-21 -.668E-01 -.932E-01   -.674E-11 -.999E-04 0.373E-03
   -.247E-06 -.101E+01 0.209E+01   0.124E-04 0.960E+00 -.218E+01   -.847E-21 0.668E-01 0.932E-01   -.689E-11 0.999E-04 -.373E-03
   0.341E-06 -.101E+01 -.209E+01   -.170E-04 0.960E+00 0.218E+01   0.847E-21 0.668E-01 -.932E-01   -.262E-10 0.999E-04 0.373E-03
   0.341E-06 0.101E+01 0.209E+01   -.170E-04 -.960E+00 -.218E+01   0.244E-20 -.668E-01 0.932E-01   -.264E-10 -.999E-04 -.373E-03
   0.341E-06 0.101E+01 -.209E+01   -.170E-04 -.960E+00 0.218E+01   -.254E-20 -.668E-01 -.932E-01   -.263E-10 -.999E-04 0.373E-03
   0.341E-06 -.101E+01 0.209E+01   -.170E-04 0.960E+00 -.218E+01   -.847E-21 0.668E-01 0.932E-01   -.263E-10 0.999E-04 -.373E-03
   0.132E+01 -.305E-07 -.322E-07   -.123E+01 -.131E-06 -.274E-06   -.676E-01 0.508E-20 -.136E-19   0.345E-03 -.506E-11 -.158E-09
   -.132E+01 0.361E-07 0.442E-07   0.123E+01 -.131E-06 -.274E-06   0.676E-01 0.678E-20 -.339E-19   -.345E-03 -.487E-11 -.158E-09
   -.132E+01 -.315E-07 0.371E-07   0.123E+01 -.842E-07 0.407E-07   0.676E-01 0.508E-20 0.237E-19   -.345E-03 -.403E-11 0.208E-09
   0.132E+01 0.351E-07 -.394E-07   -.123E+01 -.842E-07 0.407E-07   -.676E-01 0.508E-20 0.339E-20   0.345E-03 -.392E-11 0.207E-09
   0.132E+01 -.305E-07 -.322E-07   -.123E+01 -.131E-06 -.274E-06   -.676E-01 -.169E-20 -.136E-19   0.345E-03 -.488E-11 -.158E-09
   -.132E+01 0.361E-07 0.443E-07   0.123E+01 -.131E-06 -.274E-06   0.676E-01 0.339E-20 -.678E-20   -.345E-03 -.470E-11 -.158E-09
   -.132E+01 -.315E-07 0.371E-07   0.123E+01 -.842E-07 0.407E-07   0.676E-01 -.169E-20 0.169E-19   -.345E-03 -.395E-11 0.207E-09
   0.132E+01 0.351E-07 -.394E-07   -.123E+01 -.842E-07 0.407E-07   -.676E-01 -.169E-20 -.339E-20   0.345E-03 -.390E-11 0.208E-09
 -----------------------------------------------------------------------------------------------
   0.918E-05 0.578E-05 0.115E-03   -.167E-13 -.753E-15 -.190E-13   -.357E-14 0.445E-14 0.958E-15   -.393E-10 -.707E-10 -.969E-10
 
 
 POSITION                                       TOTAL-FORCE (eV/Angst)
 -----------------------------------------------------------------------------------
      9.35644      4.75470      7.56349        -0.024021     -0.013418      0.006914
      2.27288      3.37964      0.56579         0.024021      0.013418     -0.006914
      2.27288      7.44680      3.49885         0.024021      0.013418      0.006914
      9.35644      0.68753      4.63042        -0.024021     -0.013418     -0.006914
      2.27288      0.68753      4.63042         0.024021     -0.013418     -0.006914
      9.35644      7.44680      3.49885        -0.024021      0.013418      0.006914
      9.35644      3.37964      0.56579        -0.024021      0.013418     -0.006914
      2.27288      4.75470      7.56349         0.024021     -0.013418      0.006914
      3.54178      0.68753      7.56349        -0.024021     -0.013418      0.006914
      8.08755      7.44680      0.56579         0.024021      0.013418     -0.006914
      8.08755      3.37964      3.49885         0.024021      0.013418      0.006914
      3.54178      4.75470      4.63042        -0.024021     -0.013418     -0.006914
      8.08755      4.75470      4.63042         0.024021     -0.013418     -0.006914
      3.54178      3.37964      3.49885        -0.024021      0.013418      0.006914
      3.54178      7.44680      0.56579        -0.024021      0.013418     -0.006914
      8.08755      0.68753      7.56349         0.024021     -0.013418      0.006914
      8.08210      4.64306      0.68436         0.005957     -0.013141     -0.001321
      3.54722      3.49128      7.44491        -0.005957      0.013141      0.001321
      3.54722      7.55845      4.74899        -0.005957      0.013141     -0.001321
      8.08210      0.57589      3.38028         0.005957     -0.013141      0.001321
      3.54722      0.57589      3.38028        -0.005957     -0.013141      0.001321
      8.08210      7.55845      4.74899         0.005957      0.013141     -0.001321
      8.08210      3.49128      7.44491         0.005957      0.013141      0.001321
      3.54722      4.64306      0.68436        -0.005957     -0.013141     -0.001321
      2.26744      0.57589      0.68436         0.005957     -0.013141     -0.001321
      9.36188      7.55845      7.44491        -0.005957      0.013141      0.001321
      9.36188      3.49128      4.74899        -0.005957      0.013141     -0.001321
      2.26744      4.64306      3.38028         0.005957     -0.013141      0.001321
      9.36188      4.64306      3.38028        -0.005957     -0.013141      0.001321
      2.26744      3.49128      4.74899         0.005957      0.013141     -0.001321
      2.26744      7.55845      7.44491         0.005957      0.013141      0.001321
      9.36188      0.57589      0.68436        -0.005957     -0.013141     -0.001321
      0.94139      6.45517      1.55533        -0.001580      0.016865     -0.014913
     10.68793      1.67916      6.57394         0.001580     -0.016865      0.014913
     10.68793      5.74633      5.61997         0.001580     -0.016865     -0.014913
      0.94139      2.38800      2.50931        -0.001580      0.016865      0.014913
     10.68793      2.38800      2.50931         0.001580      0.016865      0.014913
      0.94139      5.74633      5.61997        -0.001580     -0.016865     -0.014913
      0.94139      1.67916      6.57394        -0.001580     -0.016865      0.014913
     10.68793      6.45517      1.55533         0.001580      0.016865     -0.014913
      6.75605      2.38800      1.55533        -0.001580      0.016865     -0.014913
      4.87327      5.74633      6.57394         0.001580     -0.016865      0.014913
      4.87327      1.67916      5.61997         0.001580     -0.016865     -0.014913
      6.75605      6.45517      2.50931        -0.001580      0.016865      0.014913
      4.87327      6.45517      2.50931         0.001580      0.016865      0.014913
      6.75605      1.67916      5.61997        -0.001580     -0.016865     -0.014913
      6.75605      5.74633      6.57394        -0.001580     -0.016865      0.014913
      4.87327      2.38800      1.55533         0.001580      0.016865     -0.014913
      0.00000      4.83564      1.71026         0.000000     -0.001414     -0.015279
      0.00000      3.29870      6.41901         0.000000      0.001414      0.015279
      0.00000      7.36587      5.77490         0.000000      0.001414     -0.015279
      0.00000      0.76847      2.35437         0.000000     -0.001414      0.015279
      5.81466      0.76847      1.71026         0.000000     -0.001414     -0.015279
      5.81466      7.36587      6.41901         0.000000      0.001414      0.015279
      5.81466      3.29870      5.77490         0.000000      0.001414     -0.015279
      5.81466      4.83564      2.35437         0.000000     -0.001414      0.015279
      0.00000      5.91800      1.61906         0.000000      0.018366      0.003416
      0.00000      2.21633      6.51021         0.000000     -0.018366     -0.003416
      0.00000      6.28350      5.68369         0.000000     -0.018366      0.003416
      0.00000      1.85083      2.44558         0.000000      0.018366     -0.003416
      5.81466      1.85083      1.61906         0.000000      0.018366      0.003416
      5.81466      6.28350      6.51021         0.000000     -0.018366     -0.003416
      5.81466      2.21633      5.68369         0.000000     -0.018366      0.003416
      5.81466      5.91800      2.44558         0.000000      0.018366     -0.003416
      8.71628      4.06717      0.00000         0.020937     -0.000000      0.000000
      2.91304      4.06717      0.00000        -0.020937     -0.000000      0.000000
      2.91304     -0.00000      4.06464        -0.020937     -0.000000     -0.000000
      8.71628     -0.00000      4.06464         0.020937     -0.000000     -0.000000
      2.90162     -0.00000      0.00000         0.020937     -0.000000      0.000000
      8.72770     -0.00000      0.00000        -0.020937     -0.000000      0.000000
      8.72770      4.06717      4.06464        -0.020937     -0.000000     -0.000000
      2.90162      4.06717      4.06464         0.020937     -0.000000     -0.000000
 -----------------------------------------------------------------------------------
    total drift:                                0.000009      0.000006      0.000115


--------------------------------------------------------------------------------------------------------



  FREE ENERGIE OF THE ION-ELECTRON SYSTEM (eV)
  ---------------------------------------------------
  free  energy   TOTEN  =      -337.43830678 eV

  energy  without entropy=     -337.43830678  energy(sigma->0) =     -337.43830678
 
 d Force = 0.2311476E-03[ 0.314E-05, 0.459E-03]  d Energy = 0.2293615E-03 0.179E-05
 d Force = 0.1530135E+00[ 0.154E+00, 0.152E+00]  d Ewald  = 0.1530132E+00 0.321E-06


--------------------------------------------------------------------------------------------------------


    POTLOK:  cpu time    0.32: real time    0.32


--------------------------------------------------------------------------------------------------------




--------------------------------------------------------------------------------------------------------


  
 reached required accuracy - stopping structural energy minimisation
     LOOP+:  cpu time  806.84: real time  807.26
    4ORBIT:  cpu time    0.00: real time    0.00
 BZINTS: Fermi energy: -1.964606;120.000000 electrons
         Band energy:***********;  BLOECHL correction:  0.000000

 total amount of memory used by VASP on root node   403904. kBytes
========================================================================

   base      :      30000. kBytes
   nonl-proj :      59240. kBytes
   fftplans  :      14692. kBytes
   grid      :      23408. kBytes
   one-center:        110. kBytes
   wavefun   :     276454. kBytes
 
  
  
 General timing and accounting informations for this job:
 ========================================================
  
                  Total CPU time used (sec):    17168.012
                            User time (sec):    15921.679
                          System time (sec):     1246.334
                         Elapsed time (sec):    17177.086
  
                   Maximum memory used (kb):      544240.
                   Average memory used (kb):           0.
  
                          Minor page faults:    214246541
                          Major page faults:            0
                 Voluntary context switches:         2598
