<?xml version="1.0" encoding="ISO-8859-1"?>
<modeling>
 <generator>
  <i name="program" type="string">vasp </i>
  <i name="version" type="string">5.3.5  </i>
  <i name="subversion" type="string">31Mar14 (build Nov 02 2014 15:17:37) complex                          parallel </i>
  <i name="platform" type="string">ion-Intel-MKL </i>
  <i name="date" type="string">2017 07 05 </i>
  <i name="time" type="string">11:22:46 </i>
 </generator>
 <incar>
  <i type="string" name="SYSTEM">diamond</i>
  <i type="string" name="PREC">normal</i>
  <i type="int" name="NELM">   200</i>
  <i type="int" name="IBRION">     2</i>
  <i name="EDIFF">      0.00000100</i>
  <i name="EDIFFG">      0.00100000</i>
  <i type="int" name="NSW">   200</i>
  <i type="int" name="ISIF">     2</i>
  <i name="ENCUT">    600.00000000</i>
  <i type="int" name="ISMEAR">    -5</i>
  <i type="logical" name="LWAVE"> F  </i>
  <i type="logical" name="LCHARG"> F  </i>
  <i type="int" name="NELM">   200</i>
  <i type="string" name="GGA">PE</i>
 </incar>
 <kpoints>
  <generation param="Gamma">
   <v type="int" name="divisions">       4        4        4 </v>
   <v name="usershift">      0.00000000       0.00000000       0.00000000 </v>
   <v name="genvec1">      0.25000000       0.00000000       0.00000000 </v>
   <v name="genvec2">      0.00000000       0.25000000       0.00000000 </v>
   <v name="genvec3">      0.00000000       0.00000000       0.25000000 </v>
   <v name="shift">      0.00000000       0.00000000       0.00000000 </v>
  </generation>
  <varray name="kpointlist" >
   <v>       0.00000000       0.00000000       0.00000000 </v>
   <v>       0.25000000       0.00000000       0.00000000 </v>
   <v>       0.50000000       0.00000000       0.00000000 </v>
   <v>       0.00000000       0.25000000       0.00000000 </v>
   <v>       0.25000000       0.25000000       0.00000000 </v>
   <v>       0.50000000       0.25000000       0.00000000 </v>
   <v>       0.00000000       0.50000000       0.00000000 </v>
   <v>       0.25000000       0.50000000       0.00000000 </v>
   <v>       0.50000000       0.50000000       0.00000000 </v>
   <v>       0.00000000       0.00000000       0.25000000 </v>
   <v>       0.25000000       0.00000000       0.25000000 </v>
   <v>       0.50000000       0.00000000       0.25000000 </v>
   <v>       0.00000000       0.25000000       0.25000000 </v>
   <v>       0.25000000       0.25000000       0.25000000 </v>
   <v>       0.50000000       0.25000000       0.25000000 </v>
   <v>       0.00000000       0.50000000       0.25000000 </v>
   <v>       0.25000000       0.50000000       0.25000000 </v>
   <v>       0.50000000       0.50000000       0.25000000 </v>
   <v>       0.00000000       0.00000000       0.50000000 </v>
   <v>       0.25000000       0.00000000       0.50000000 </v>
   <v>       0.50000000       0.00000000       0.50000000 </v>
   <v>       0.00000000       0.25000000       0.50000000 </v>
   <v>       0.25000000       0.25000000       0.50000000 </v>
   <v>       0.50000000       0.25000000       0.50000000 </v>
   <v>       0.00000000       0.50000000       0.50000000 </v>
   <v>       0.25000000       0.50000000       0.50000000 </v>
   <v>       0.50000000       0.50000000       0.50000000 </v>
  </varray>
  <varray name="weights" >
   <v>       0.01562500 </v>
   <v>       0.03125000 </v>
   <v>       0.01562500 </v>
   <v>       0.03125000 </v>
   <v>       0.06250000 </v>
   <v>       0.03125000 </v>
   <v>       0.01562500 </v>
   <v>       0.03125000 </v>
   <v>       0.01562500 </v>
   <v>       0.03125000 </v>
   <v>       0.06250000 </v>
   <v>       0.03125000 </v>
   <v>       0.06250000 </v>
   <v>       0.12500000 </v>
   <v>       0.06250000 </v>
   <v>       0.03125000 </v>
   <v>       0.06250000 </v>
   <v>       0.03125000 </v>
   <v>       0.01562500 </v>
   <v>       0.03125000 </v>
   <v>       0.01562500 </v>
   <v>       0.03125000 </v>
   <v>       0.06250000 </v>
   <v>       0.03125000 </v>
   <v>       0.01562500 </v>
   <v>       0.03125000 </v>
   <v>       0.01562500 </v>
  </varray>
  <varray name="tetrahedronlist"  type="int" >
   <v type="int" >        2        1        2        5       10 </v>
   <v type="int" >        2        1        4        5       10 </v>
   <v type="int" >        2        4        5       10       13 </v>
   <v type="int" >        2        2        5       10       11 </v>
   <v type="int" >        2        5       10       11       14 </v>
   <v type="int" >        2        5       10       13       14 </v>
   <v type="int" >        2        2        3        6       11 </v>
   <v type="int" >        2        2        5        6       11 </v>
   <v type="int" >        2        5        6       11       14 </v>
   <v type="int" >        2        3        6       11       12 </v>
   <v type="int" >        2        6       11       12       15 </v>
   <v type="int" >        2        6       11       14       15 </v>
   <v type="int" >        2        2        3        5       12 </v>
   <v type="int" >        2        3        5        6       12 </v>
   <v type="int" >        2        5        6       12       15 </v>
   <v type="int" >        2        2        5       11       12 </v>
   <v type="int" >        2        5       11       12       14 </v>
   <v type="int" >        2        5       12       14       15 </v>
   <v type="int" >        2        1        2        4       11 </v>
   <v type="int" >        2        2        4        5       11 </v>
   <v type="int" >        2        4        5       11       14 </v>
   <v type="int" >        2        1        4       10       11 </v>
   <v type="int" >        2        4       10       11       13 </v>
   <v type="int" >        2        4       11       13       14 </v>
   <v type="int" >        2        4        5        8       13 </v>
   <v type="int" >        2        4        7        8       13 </v>
   <v type="int" >        2        7        8       13       16 </v>
   <v type="int" >        2        5        8       13       14 </v>
   <v type="int" >        2        8       13       14       17 </v>
   <v type="int" >        2        8       13       16       17 </v>
   <v type="int" >        2        5        6        9       14 </v>
   <v type="int" >        2        5        8        9       14 </v>
   <v type="int" >        2        8        9       14       17 </v>
   <v type="int" >        2        6        9       14       15 </v>
   <v type="int" >        2        9       14       15       18 </v>
   <v type="int" >        2        9       14       17       18 </v>
   <v type="int" >        2        5        6        8       15 </v>
   <v type="int" >        2        6        8        9       15 </v>
   <v type="int" >        2        8        9       15       18 </v>
   <v type="int" >        2        5        8       14       15 </v>
   <v type="int" >        2        8       14       15       17 </v>
   <v type="int" >        2        8       15       17       18 </v>
   <v type="int" >        2        4        5        7       14 </v>
   <v type="int" >        2        5        7        8       14 </v>
   <v type="int" >        2        7        8       14       17 </v>
   <v type="int" >        2        4        7       13       14 </v>
   <v type="int" >        2        7       13       14       16 </v>
   <v type="int" >        2        7       14       16       17 </v>
   <v type="int" >        2        5        7        8       16 </v>
   <v type="int" >        2        4        5        7       16 </v>
   <v type="int" >        2        4        5       13       16 </v>
   <v type="int" >        2        5        8       16       17 </v>
   <v type="int" >        2        5       14       16       17 </v>
   <v type="int" >        2        5       13       14       16 </v>
   <v type="int" >        2        6        8        9       17 </v>
   <v type="int" >        2        5        6        8       17 </v>
   <v type="int" >        2        5        6       14       17 </v>
   <v type="int" >        2        6        9       17       18 </v>
   <v type="int" >        2        6       15       17       18 </v>
   <v type="int" >        2        6       14       15       17 </v>
   <v type="int" >        2        5        8        9       18 </v>
   <v type="int" >        2        5        6        9       18 </v>
   <v type="int" >        2        5        6       15       18 </v>
   <v type="int" >        2        5        8       17       18 </v>
   <v type="int" >        2        5       14       17       18 </v>
   <v type="int" >        2        5       14       15       18 </v>
   <v type="int" >        2        4        7        8       17 </v>
   <v type="int" >        2        4        5        8       17 </v>
   <v type="int" >        2        4        5       14       17 </v>
   <v type="int" >        2        4        7       16       17 </v>
   <v type="int" >        2        4       13       16       17 </v>
   <v type="int" >        2        4       13       14       17 </v>
   <v type="int" >        2        2        4        5       13 </v>
   <v type="int" >        2        1        2        4       13 </v>
   <v type="int" >        2        1        2       10       13 </v>
   <v type="int" >        2        2        5       13       14 </v>
   <v type="int" >        2        2       11       13       14 </v>
   <v type="int" >        2        2       10       11       13 </v>
   <v type="int" >        2        3        5        6       14 </v>
   <v type="int" >        2        2        3        5       14 </v>
   <v type="int" >        2        2        3       11       14 </v>
   <v type="int" >        2        3        6       14       15 </v>
   <v type="int" >        2        3       12       14       15 </v>
   <v type="int" >        2        3       11       12       14 </v>
   <v type="int" >        2        2        5        6       15 </v>
   <v type="int" >        2        2        3        6       15 </v>
   <v type="int" >        2        2        3       12       15 </v>
   <v type="int" >        2        2        5       14       15 </v>
   <v type="int" >        2        2       11       14       15 </v>
   <v type="int" >        2        2       11       12       15 </v>
   <v type="int" >        2        1        4        5       14 </v>
   <v type="int" >        2        1        2        5       14 </v>
   <v type="int" >        2        1        2       11       14 </v>
   <v type="int" >        2        1        4       13       14 </v>
   <v type="int" >        2        1       10       13       14 </v>
   <v type="int" >        2        1       10       11       14 </v>
   <v type="int" >        2       10       11       14       19 </v>
   <v type="int" >        2       10       13       14       19 </v>
   <v type="int" >        2       13       14       19       22 </v>
   <v type="int" >        2       11       14       19       20 </v>
   <v type="int" >        2       14       19       20       23 </v>
   <v type="int" >        2       14       19       22       23 </v>
   <v type="int" >        2       11       12       15       20 </v>
   <v type="int" >        2       11       14       15       20 </v>
   <v type="int" >        2       14       15       20       23 </v>
   <v type="int" >        2       12       15       20       21 </v>
   <v type="int" >        2       15       20       21       24 </v>
   <v type="int" >        2       15       20       23       24 </v>
   <v type="int" >        2       11       12       14       21 </v>
   <v type="int" >        2       12       14       15       21 </v>
   <v type="int" >        2       14       15       21       24 </v>
   <v type="int" >        2       11       14       20       21 </v>
   <v type="int" >        2       14       20       21       23 </v>
   <v type="int" >        2       14       21       23       24 </v>
   <v type="int" >        2       10       11       13       20 </v>
   <v type="int" >        2       11       13       14       20 </v>
   <v type="int" >        2       13       14       20       23 </v>
   <v type="int" >        2       10       13       19       20 </v>
   <v type="int" >        2       13       19       20       22 </v>
   <v type="int" >        2       13       20       22       23 </v>
   <v type="int" >        2       13       14       17       22 </v>
   <v type="int" >        2       13       16       17       22 </v>
   <v type="int" >        2       16       17       22       25 </v>
   <v type="int" >        2       14       17       22       23 </v>
   <v type="int" >        2       17       22       23       26 </v>
   <v type="int" >        2       17       22       25       26 </v>
   <v type="int" >        2       14       15       18       23 </v>
   <v type="int" >        2       14       17       18       23 </v>
   <v type="int" >        2       17       18       23       26 </v>
   <v type="int" >        2       15       18       23       24 </v>
   <v type="int" >        2       18       23       24       27 </v>
   <v type="int" >        2       18       23       26       27 </v>
   <v type="int" >        2       14       15       17       24 </v>
   <v type="int" >        2       15       17       18       24 </v>
   <v type="int" >        2       17       18       24       27 </v>
   <v type="int" >        2       14       17       23       24 </v>
   <v type="int" >        2       17       23       24       26 </v>
   <v type="int" >        2       17       24       26       27 </v>
   <v type="int" >        2       13       14       16       23 </v>
   <v type="int" >        2       14       16       17       23 </v>
   <v type="int" >        2       16       17       23       26 </v>
   <v type="int" >        2       13       16       22       23 </v>
   <v type="int" >        2       16       22       23       25 </v>
   <v type="int" >        2       16       23       25       26 </v>
   <v type="int" >        2       14       16       17       25 </v>
   <v type="int" >        2       13       14       16       25 </v>
   <v type="int" >        2       13       14       22       25 </v>
   <v type="int" >        2       14       17       25       26 </v>
   <v type="int" >        2       14       23       25       26 </v>
   <v type="int" >        2       14       22       23       25 </v>
   <v type="int" >        2       15       17       18       26 </v>
   <v type="int" >        2       14       15       17       26 </v>
   <v type="int" >        2       14       15       23       26 </v>
   <v type="int" >        2       15       18       26       27 </v>
   <v type="int" >        2       15       24       26       27 </v>
   <v type="int" >        2       15       23       24       26 </v>
   <v type="int" >        2       14       17       18       27 </v>
   <v type="int" >        2       14       15       18       27 </v>
   <v type="int" >        2       14       15       24       27 </v>
   <v type="int" >        2       14       17       26       27 </v>
   <v type="int" >        2       14       23       26       27 </v>
   <v type="int" >        2       14       23       24       27 </v>
   <v type="int" >        2       13       16       17       26 </v>
   <v type="int" >        2       13       14       17       26 </v>
   <v type="int" >        2       13       14       23       26 </v>
   <v type="int" >        2       13       16       25       26 </v>
   <v type="int" >        2       13       22       25       26 </v>
   <v type="int" >        2       13       22       23       26 </v>
   <v type="int" >        2       11       13       14       22 </v>
   <v type="int" >        2       10       11       13       22 </v>
   <v type="int" >        2       10       11       19       22 </v>
   <v type="int" >        2       11       14       22       23 </v>
   <v type="int" >        2       11       20       22       23 </v>
   <v type="int" >        2       11       19       20       22 </v>
   <v type="int" >        2       12       14       15       23 </v>
   <v type="int" >        2       11       12       14       23 </v>
   <v type="int" >        2       11       12       20       23 </v>
   <v type="int" >        2       12       15       23       24 </v>
   <v type="int" >        2       12       21       23       24 </v>
   <v type="int" >        2       12       20       21       23 </v>
   <v type="int" >        2       11       14       15       24 </v>
   <v type="int" >        2       11       12       15       24 </v>
   <v type="int" >        2       11       12       21       24 </v>
   <v type="int" >        2       11       14       23       24 </v>
   <v type="int" >        2       11       20       23       24 </v>
   <v type="int" >        2       11       20       21       24 </v>
   <v type="int" >        2       10       13       14       23 </v>
   <v type="int" >        2       10       11       14       23 </v>
   <v type="int" >        2       10       11       20       23 </v>
   <v type="int" >        2       10       13       22       23 </v>
   <v type="int" >        2       10       19       22       23 </v>
   <v type="int" >        2       10       19       20       23 </v>
  </varray>
  <i name="volumeweight">      0.00260417 </i>
 </kpoints>
 <parameters>
  <separator name="general" >
   <i type="string" name="SYSTEM">diamond</i>
   <i type="logical" name="LCOMPAT"> F  </i>
  </separator>
  <separator name="electronic" >
   <i type="string" name="PREC">normal</i>
   <i name="ENMAX">    600.00000000</i>
   <i name="ENAUG">    644.87300000</i>
   <i name="EDIFF">      0.00000100</i>
   <i type="int" name="IALGO">    38</i>
   <i type="int" name="IWAVPR">    11</i>
   <i type="int" name="NBANDS">   106</i>
   <i name="NELECT">    128.00000000</i>
   <i type="int" name="TURBO">     0</i>
   <i type="int" name="IRESTART">     0</i>
   <i type="int" name="NREBOOT">     0</i>
   <i type="int" name="NMIN">     0</i>
   <i name="EREF">      0.00000000</i>
   <separator name="electronic smearing" >
    <i type="int" name="ISMEAR">    -5</i>
    <i name="SIGMA">      0.20000000</i>
    <i name="KSPACING">      0.50000000</i>
    <i type="logical" name="KGAMMA"> T  </i>
   </separator>
   <separator name="electronic projectors" >
    <i type="logical" name="LREAL"> F  </i>
    <v name="ROPT">      0.00000000      0.00000000</v>
    <i type="int" name="LMAXPAW">  -100</i>
    <i type="int" name="LMAXMIX">     2</i>
    <i type="logical" name="NLSPLINE"> F  </i>
   </separator>
   <separator name="electronic startup" >
    <i type="int" name="ISTART">     0</i>
    <i type="int" name="ICHARG">     2</i>
    <i type="int" name="INIWAV">     1</i>
   </separator>
   <separator name="electronic spin" >
    <i type="int" name="ISPIN">     1</i>
    <i type="logical" name="LNONCOLLINEAR"> F  </i>
    <v name="MAGMOM">      1.00000000      1.00000000      1.00000000      1.00000000      1.00000000      1.00000000      1.00000000      1.00000000      1.00000000      1.00000000      1.00000000      1.00000000      1.00000000      1.00000000      1.00000000      1.00000000      1.00000000      1.00000000      1.00000000      1.00000000
      1.00000000      1.00000000      1.00000000      1.00000000      1.00000000      1.00000000      1.00000000      1.00000000      1.00000000      1.00000000      1.00000000      1.00000000      1.00000000      1.00000000      1.00000000      1.00000000      1.00000000      1.00000000      1.00000000      1.00000000
      1.00000000      1.00000000      1.00000000      1.00000000      1.00000000      1.00000000      1.00000000      1.00000000      1.00000000      1.00000000      1.00000000      1.00000000      1.00000000      1.00000000      1.00000000      1.00000000      1.00000000      1.00000000      1.00000000      1.00000000
      1.00000000      1.00000000      1.00000000      1.00000000      1.00000000      1.00000000      1.00000000      1.00000000      1.00000000      1.00000000      1.00000000      1.00000000      1.00000000      1.00000000      1.00000000      1.00000000      1.00000000      1.00000000      1.00000000      1.00000000
</v>
    <i name="NUPDOWN">     -1.00000000</i>
    <i type="logical" name="LSORBIT"> F  </i>
    <v name="SAXIS">      0.00000000      0.00000000      1.00000000</v>
    <i type="logical" name="LSPIRAL"> F  </i>
    <v name="QSPIRAL">      0.00000000      0.00000000      0.00000000</v>
    <i type="logical" name="LZEROZ"> F  </i>
   </separator>
   <separator name="electronic exchange-correlation" >
    <i type="logical" name="LASPH"> F  </i>
    <i type="logical" name="LMETAGGA"> F  </i>
   </separator>
   <separator name="electronic convergence" >
    <i type="int" name="NELM">   200</i>
    <i type="int" name="NELMDL">     0</i>
    <i type="int" name="NELMIN">     2</i>
    <i name="ENINI">    600.00000000</i>
    <separator name="electronic convergence detail" >
     <i type="logical" name="LDIAG"> T  </i>
     <i type="logical" name="LSUBROT"> F  </i>
     <i name="WEIMIN">      0.00100000</i>
     <i name="EBREAK">      0.00000000</i>
     <i name="DEPER">      0.30000000</i>
     <i type="int" name="NRMM">     4</i>
     <i name="TIME">      0.40000000</i>
    </separator>
   </separator>
   <separator name="electronic mixer" >
    <i name="AMIX">      0.40000000</i>
    <i name="BMIX">      1.00000000</i>
    <i name="AMIN">      0.10000000</i>
    <i name="AMIX_MAG">      1.60000000</i>
    <i name="BMIX_MAG">      1.00000000</i>
    <separator name="electronic mixer details" >
     <i type="int" name="IMIX">     4</i>
     <i type="int" name="MAXMIX">   -45</i>
     <i name="WC">    100.00000000</i>
     <i type="int" name="INIMIX">     1</i>
     <i type="int" name="MIXPRE">     1</i>
     <i type="int" name="MREMOVE">     5</i>
    </separator>
   </separator>
   <separator name="electronic dipolcorrection" >
    <i type="logical" name="LDIPOL"> F  </i>
    <i type="logical" name="LMONO"> F  </i>
    <i type="int" name="IDIPOL">     0</i>
    <i name="EPSILON">      1.00000000</i>
    <v name="DIPOL">   -100.00000000   -100.00000000   -100.00000000</v>
    <i name="EFIELD">      0.00000000</i>
   </separator>
  </separator>
  <separator name="grids" >
   <i type="int" name="NGX">    70</i>
   <i type="int" name="NGY">    50</i>
   <i type="int" name="NGZ">    50</i>
   <i type="int" name="NGXF">   140</i>
   <i type="int" name="NGYF">   100</i>
   <i type="int" name="NGZF">   100</i>
   <i type="logical" name="ADDGRID"> F  </i>
  </separator>
  <separator name="ionic" >
   <i type="int" name="NSW">   200</i>
   <i type="int" name="IBRION">     2</i>
   <i type="int" name="ISIF">     2</i>
   <i name="PSTRESS">      0.00000000</i>
   <i name="EDIFFG">      0.00100000</i>
   <i type="int" name="NFREE">     1</i>
   <i name="POTIM">      0.50000000</i>
   <i name="SMASS">     -3.00000000</i>
   <i name="SCALEE">      1.00000000</i>
  </separator>
  <separator name="ionic md" >
   <i name="TEBEG">      0.00010000</i>
   <i name="TEEND">      0.00010000</i>
   <i type="int" name="NBLOCK">     1</i>
   <i type="int" name="KBLOCK">   200</i>
   <i type="int" name="NPACO">   256</i>
   <i name="APACO">     16.00000000</i>
  </separator>
  <separator name="symmetry" >
   <i type="int" name="ISYM">     2</i>
   <i name="SYMPREC">      0.00001000</i>
  </separator>
  <separator name="dos" >
   <i type="logical" name="LORBIT"> F  </i>
   <v name="RWIGS">     -1.00000000     -1.00000000</v>
   <i type="int" name="NEDOS">   301</i>
   <i name="EMIN">     10.00000000</i>
   <i name="EMAX">    -10.00000000</i>
   <i name="EFERMI">      0.00000000</i>
  </separator>
  <separator name="writing" >
   <i type="int" name="NWRITE">     2</i>
   <i type="logical" name="LWAVE"> F  </i>
   <i type="logical" name="LCHARG"> F  </i>
   <i type="logical" name="LPARD"> F  </i>
   <i type="logical" name="LVTOT"> F  </i>
   <i type="logical" name="LVHAR"> F  </i>
   <i type="logical" name="LELF"> F  </i>
   <i type="logical" name="LOPTICS"> F  </i>
   <v name="STM">      0.00000000      0.00000000      0.00000000      0.00000000      0.00000000      0.00000000      0.00000000</v>
  </separator>
  <separator name="performance" >
   <i type="int" name="NPAR">     2</i>
   <i type="int" name="NSIM">     4</i>
   <i type="int" name="NBLK">    -1</i>
   <i type="logical" name="LPLANE"> T  </i>
   <i type="logical" name="LSCALAPACK"> T  </i>
   <i type="logical" name="LSCAAWARE"> F  </i>
   <i type="logical" name="LSCALU"> F  </i>
   <i type="logical" name="LASYNC"> F  </i>
   <i type="logical" name="LORBITALREAL"> F  </i>
  </separator>
  <separator name="miscellaneous" >
   <i type="int" name="IDIOT">     3</i>
   <i type="logical" name="LMUSIC"> F  </i>
   <v name="POMASS">      1.00000000     12.01100000</v>
   <v name="DARWINR">      0.00000000      0.00000000</v>
   <v name="DARWINV">      1.00000000      1.00000000</v>
   <i type="logical" name="LCORR"> T  </i>
  </separator>
  <i type="logical" name="GGA_COMPAT"> T  </i>
  <i type="logical" name="LBERRY"> F  </i>
  <i type="int" name="ICORELEVEL">     0</i>
  <i type="logical" name="LDAU"> F  </i>
  <i type="int" name="I_CONSTRAINED_M">     0</i>
  <separator name="electronic exchange-correlation" >
   <i type="string" name="GGA">PE</i>
   <i type="int" name="VOSKOWN">     0</i>
   <i type="logical" name="LHFCALC"> F  </i>
   <i type="string" name="PRECFOCK"></i>
   <i type="logical" name="LSYMGRAD"> F  </i>
   <i type="logical" name="LHFONE"> F  </i>
   <i type="logical" name="LRHFCALC"> F  </i>
   <i type="logical" name="LTHOMAS"> F  </i>
   <i type="logical" name="LMODELHF"> F  </i>
   <i name="ENCUT4O">     -1.00000000</i>
   <i type="int" name="EXXOEP">     0</i>
   <i type="int" name="FOURORBIT">     0</i>
   <i name="AEXX">      0.00000000</i>
   <i name="HFALPHA">      0.00000000</i>
   <i name="MCALPHA">      0.00000000</i>
   <i name="ALDAX">      1.00000000</i>
   <i name="AGGAX">      1.00000000</i>
   <i name="ALDAC">      1.00000000</i>
   <i name="AGGAC">      1.00000000</i>
   <i type="int" name="NKREDX">     1</i>
   <i type="int" name="NKREDY">     1</i>
   <i type="int" name="NKREDZ">     1</i>
   <i type="logical" name="SHIFTRED"> F  </i>
   <i type="logical" name="ODDONLY"> F  </i>
   <i type="logical" name="EVENONLY"> F  </i>
   <i type="int" name="LMAXFOCK">     0</i>
   <i type="int" name="NMAXFOCKAE">     0</i>
   <i type="logical" name="LFOCKAEDFT"> F  </i>
   <i name="HFSCREEN">      0.00000000</i>
   <i name="HFSCREENC">      0.00000000</i>
   <i type="int" name="NBANDSGWLOW">     0</i>
  </separator>
  <separator name="vdW DFT" >
   <i type="logical" name="LUSE_VDW"> F  </i>
   <i name="Zab_VDW">     -0.84910000</i>
   <i name="PARAM1">      0.12340000</i>
   <i name="PARAM2">      1.00000000</i>
   <i name="PARAM3">      0.00000000</i>
  </separator>
  <separator name="model GW" >
   <i type="int" name="MODEL_GW">     0</i>
   <i name="MODEL_EPS0">      5.76752323</i>
   <i name="MODEL_ALPHA">      1.00000000</i>
  </separator>
  <separator name="linear response parameters" >
   <i type="logical" name="LEPSILON"> F  </i>
   <i type="logical" name="LRPA"> F  </i>
   <i type="logical" name="LNABLA"> F  </i>
   <i type="logical" name="LVEL"> F  </i>
   <i type="int" name="KINTER">     0</i>
   <i name="CSHIFT">      0.10000000</i>
   <i name="OMEGAMAX">     -1.00000000</i>
   <i name="DEG_THRESHOLD">      0.00200000</i>
  </separator>
  <separator name="orbital magnetization" >
   <i type="logical" name="NUCIND"> F  </i>
   <v name="MAGPOS">      0.00000000      0.00000000      0.00000000</v>
   <i type="logical" name="LNICSALL"> T  </i>
   <i type="logical" name="ORBITALMAG"> F  </i>
   <i type="logical" name="LMAGBLOCH"> F  </i>
   <i type="logical" name="LCHIMAG"> F  </i>
   <i type="logical" name="LGAUGE"> T  </i>
   <i type="int" name="MAGATOM">     0</i>
   <v name="MAGDIPOL">      0.00000000      0.00000000      0.00000000</v>
   <v name="AVECCONST">      0.00000000      0.00000000      0.00000000</v>
  </separator>
  <separator name="response functions" >
   <i type="logical" name="LADDER"> F  </i>
   <i type="logical" name="LFXC"> F  </i>
   <i type="logical" name="LHARTREE"> T  </i>
   <i type="int" name="IBSE">     0</i>
   <i type="logical" name="LTCTE"> F  </i>
   <i type="logical" name="LTETE"> F  </i>
   <i type="logical" name="LTRIPLET"> F  </i>
   <i type="logical" name="LFXCEPS"> F  </i>
   <i type="logical" name="LFXHEG"> F  </i>
   <i type="logical" name="L2ORDER"> F  </i>
   <i type="logical" name="LUSEW"> F  </i>
   <i name="ENCUTGW">     -2.00000000</i>
   <i name="ENCUTGWSOFT">     -2.00000000</i>
   <i name="ENCUTLF">     -1.00000000</i>
   <i type="int" name="LMAXMP2">    -1</i>
   <i name="SCISSOR">      0.00000000</i>
   <i type="int" name="NOMEGA">     0</i>
   <i type="int" name="NOMEGAR">     0</i>
   <i type="int" name="NBANDSGW">    -1</i>
   <i type="int" name="NBANDSO">    -1</i>
   <i type="int" name="NBANDSV">    -1</i>
   <i type="int" name="NELM">   200</i>
   <i type="int" name="DIM">     3</i>
   <i type="int" name="ANTIRES">     0</i>
   <i name="OMEGAMAX">    -30.00000000</i>
   <i name="OMEGAMIN">    -30.00000000</i>
   <i name="OMEGATL">   -200.00000000</i>
   <i type="int" name="OMEGAGRID">     0</i>
   <i name="CSHIFT">     -0.10000000</i>
   <i type="logical" name="SELFENERGY"> F  </i>
   <i type="logical" name="LSPECTRAL"> F  </i>
   <i type="logical" name="ODDONLYGW"> F  </i>
   <i type="logical" name="EVENONLYGW"> F  </i>
   <i type="int" name="NKREDLFX">     1</i>
   <i type="int" name="NKREDLFY">     1</i>
   <i type="int" name="NKREDLFZ">     1</i>
   <i type="int" name="MAXMEM">  1800</i>
   <i type="int" name="TELESCOPE">     0</i>
   <i type="int" name="TAUPAR">     1</i>
  </separator>
  <separator name="External order field" >
   <i name="OFIELD_KAPPA">      0.00000000</i>
   <v name="OFIELD_K">      0.00000000      0.00000000      0.00000000</v>
   <i name="OFIELD_Q6_NEAR">      0.00000000</i>
   <i name="OFIELD_Q6_FAR">      0.00000000</i>
   <i name="OFIELD_A">      0.00000000</i>
  </separator>
 </parameters>
 <atominfo>
  <atoms>      80 </atoms>
  <types>       2 </types>
  <array name="atoms" >
   <dimension dim="1">ion</dimension>
   <field type="string">element</field>
   <field type="int">atomtype</field>
   <set>
    <rc><c>H </c><c>   1</c></rc>
    <rc><c>H </c><c>   1</c></rc>
    <rc><c>H </c><c>   1</c></rc>
    <rc><c>H </c><c>   1</c></rc>
    <rc><c>H </c><c>   1</c></rc>
    <rc><c>H </c><c>   1</c></rc>
    <rc><c>H </c><c>   1</c></rc>
    <rc><c>H </c><c>   1</c></rc>
    <rc><c>H </c><c>   1</c></rc>
    <rc><c>H </c><c>   1</c></rc>
    <rc><c>H </c><c>   1</c></rc>
    <rc><c>H </c><c>   1</c></rc>
    <rc><c>H </c><c>   1</c></rc>
    <rc><c>H </c><c>   1</c></rc>
    <rc><c>H </c><c>   1</c></rc>
    <rc><c>H </c><c>   1</c></rc>
    <rc><c>H </c><c>   1</c></rc>
    <rc><c>H </c><c>   1</c></rc>
    <rc><c>H </c><c>   1</c></rc>
    <rc><c>H </c><c>   1</c></rc>
    <rc><c>H </c><c>   1</c></rc>
    <rc><c>H </c><c>   1</c></rc>
    <rc><c>H </c><c>   1</c></rc>
    <rc><c>H </c><c>   1</c></rc>
    <rc><c>H </c><c>   1</c></rc>
    <rc><c>H </c><c>   1</c></rc>
    <rc><c>H </c><c>   1</c></rc>
    <rc><c>H </c><c>   1</c></rc>
    <rc><c>H </c><c>   1</c></rc>
    <rc><c>H </c><c>   1</c></rc>
    <rc><c>H </c><c>   1</c></rc>
    <rc><c>H </c><c>   1</c></rc>
    <rc><c>H </c><c>   1</c></rc>
    <rc><c>H </c><c>   1</c></rc>
    <rc><c>H </c><c>   1</c></rc>
    <rc><c>H </c><c>   1</c></rc>
    <rc><c>H </c><c>   1</c></rc>
    <rc><c>H </c><c>   1</c></rc>
    <rc><c>H </c><c>   1</c></rc>
    <rc><c>H </c><c>   1</c></rc>
    <rc><c>H </c><c>   1</c></rc>
    <rc><c>H </c><c>   1</c></rc>
    <rc><c>H </c><c>   1</c></rc>
    <rc><c>H </c><c>   1</c></rc>
    <rc><c>H </c><c>   1</c></rc>
    <rc><c>H </c><c>   1</c></rc>
    <rc><c>H </c><c>   1</c></rc>
    <rc><c>H </c><c>   1</c></rc>
    <rc><c>H </c><c>   1</c></rc>
    <rc><c>H </c><c>   1</c></rc>
    <rc><c>H </c><c>   1</c></rc>
    <rc><c>H </c><c>   1</c></rc>
    <rc><c>H </c><c>   1</c></rc>
    <rc><c>H </c><c>   1</c></rc>
    <rc><c>H </c><c>   1</c></rc>
    <rc><c>H </c><c>   1</c></rc>
    <rc><c>H </c><c>   1</c></rc>
    <rc><c>H </c><c>   1</c></rc>
    <rc><c>H </c><c>   1</c></rc>
    <rc><c>H </c><c>   1</c></rc>
    <rc><c>H </c><c>   1</c></rc>
    <rc><c>H </c><c>   1</c></rc>
    <rc><c>H </c><c>   1</c></rc>
    <rc><c>H </c><c>   1</c></rc>
    <rc><c>C </c><c>   2</c></rc>
    <rc><c>C </c><c>   2</c></rc>
    <rc><c>C </c><c>   2</c></rc>
    <rc><c>C </c><c>   2</c></rc>
    <rc><c>C </c><c>   2</c></rc>
    <rc><c>C </c><c>   2</c></rc>
    <rc><c>C </c><c>   2</c></rc>
    <rc><c>C </c><c>   2</c></rc>
    <rc><c>C </c><c>   2</c></rc>
    <rc><c>C </c><c>   2</c></rc>
    <rc><c>C </c><c>   2</c></rc>
    <rc><c>C </c><c>   2</c></rc>
    <rc><c>C </c><c>   2</c></rc>
    <rc><c>C </c><c>   2</c></rc>
    <rc><c>C </c><c>   2</c></rc>
    <rc><c>C </c><c>   2</c></rc>
   </set>
  </array>
  <array name="atomtypes" >
   <dimension dim="1">type</dimension>
   <field type="int">atomspertype</field>
   <field type="string">element</field>
   <field>mass</field>
   <field>valence</field>
   <field type="string">pseudopotential</field>
   <set>
    <rc><c>  64</c><c>H </c><c>      1.00000000</c><c>      1.00000000</c><c>PAW_PBE H 15Jun2001                     </c></rc>
    <rc><c>  16</c><c>C </c><c>     12.01100000</c><c>      4.00000000</c><c>PAW_PBE C 08Apr2002                     </c></rc>
   </set>
  </array>
 </atominfo>
 <structure name="initialpos" >
  <crystal>
   <varray name="basis" >
    <v>      11.62932116       0.00000000       0.00000000 </v>
    <v>       0.00000000       8.13433618       0.00000000 </v>
    <v>       0.00000000       0.00000000       8.12927111 </v>
   </varray>
   <i name="volume">    769.00309776 </i>
   <varray name="rec_basis" >
    <v>       0.08598954       0.00000000       0.00000000 </v>
    <v>       0.00000000       0.12293566       0.00000000 </v>
    <v>       0.00000000       0.00000000       0.12301226 </v>
   </varray>
  </crystal>
  <varray name="positions" >
   <v>       0.07280000       0.78549999       0.18230000 </v>
   <v>       0.92720002       0.21450001       0.81770003 </v>
   <v>       0.92720002       0.71450001       0.68229997 </v>
   <v>       0.07280000       0.28549999       0.31770000 </v>
   <v>       0.92720002       0.28549999       0.31770000 </v>
   <v>       0.07280000       0.71450001       0.68229997 </v>
   <v>       0.07280000       0.21450001       0.81770003 </v>
   <v>       0.92720002       0.78549999       0.18230000 </v>
   <v>       0.57279998       0.28549999       0.18230000 </v>
   <v>       0.42719999       0.71450001       0.81770003 </v>
   <v>       0.42719999       0.21450001       0.68229997 </v>
   <v>       0.57279998       0.78549999       0.31770000 </v>
   <v>       0.42719999       0.78549999       0.31770000 </v>
   <v>       0.57279998       0.21450001       0.68229997 </v>
   <v>       0.57279998       0.71450001       0.81770003 </v>
   <v>       0.42719999       0.28549999       0.18230000 </v>
   <v>       0.80100000       0.57950002       0.93360001 </v>
   <v>       0.19900000       0.42049998       0.06639999 </v>
   <v>       0.19900000       0.92049998       0.43360001 </v>
   <v>       0.80100000       0.07950002       0.56639999 </v>
   <v>       0.19900000       0.07950002       0.56639999 </v>
   <v>       0.80100000       0.92049998       0.43360001 </v>
   <v>       0.80100000       0.42049998       0.06639999 </v>
   <v>       0.19900000       0.57950002       0.93360001 </v>
   <v>       0.30100000       0.07950002       0.93360001 </v>
   <v>       0.69900000       0.92049998       0.06639999 </v>
   <v>       0.69900000       0.42049998       0.43360001 </v>
   <v>       0.30100000       0.57950002       0.56639999 </v>
   <v>       0.69900000       0.57950002       0.56639999 </v>
   <v>       0.30100000       0.42049998       0.43360001 </v>
   <v>       0.30100000       0.92049998       0.06639999 </v>
   <v>       0.69900000       0.07950002       0.93360001 </v>
   <v>       0.69859999       0.56629997       0.07959998 </v>
   <v>       0.30140001       0.43370003       0.92040002 </v>
   <v>       0.30140001       0.93370003       0.57959998 </v>
   <v>       0.69859999       0.06629997       0.42040002 </v>
   <v>       0.30140001       0.06629997       0.42040002 </v>
   <v>       0.69859999       0.93370003       0.57959998 </v>
   <v>       0.69859999       0.43370003       0.92040002 </v>
   <v>       0.30140001       0.56629997       0.07959998 </v>
   <v>       0.19859999       0.06629997       0.07959998 </v>
   <v>       0.80140001       0.93370003       0.92040002 </v>
   <v>       0.80140001       0.43370003       0.57959998 </v>
   <v>       0.19859999       0.56629997       0.42040002 </v>
   <v>       0.80140001       0.56629997       0.42040002 </v>
   <v>       0.19859999       0.43370003       0.57959998 </v>
   <v>       0.19859999       0.93370003       0.92040002 </v>
   <v>       0.80140001       0.06629997       0.07959998 </v>
   <v>       0.00000000       0.60589999       0.19920000 </v>
   <v>       0.00000000       0.39410001       0.80079997 </v>
   <v>       0.00000000       0.89410001       0.69920003 </v>
   <v>       0.00000000       0.10589999       0.30080000 </v>
   <v>       0.50000000       0.10589999       0.19920000 </v>
   <v>       0.50000000       0.89410001       0.80079997 </v>
   <v>       0.50000000       0.39410001       0.69920003 </v>
   <v>       0.50000000       0.60589999       0.30080000 </v>
   <v>       0.00000000       0.74159998       0.78549999 </v>
   <v>       0.00000000       0.25840002       0.21450001 </v>
   <v>       0.00000000       0.75840002       0.28549999 </v>
   <v>       0.00000000       0.24159998       0.71450001 </v>
   <v>       0.50000000       0.24159998       0.78549999 </v>
   <v>       0.50000000       0.75840002       0.21450001 </v>
   <v>       0.50000000       0.25840002       0.28549999 </v>
   <v>       0.50000000       0.74159998       0.71450001 </v>
   <v>       0.00000000       0.72960001       0.23029999 </v>
   <v>       0.00000000       0.27039999       0.76969999 </v>
   <v>       0.00000000       0.77039999       0.73030001 </v>
   <v>       0.00000000       0.22960001       0.26969999 </v>
   <v>       0.50000000       0.22960001       0.23029999 </v>
   <v>       0.50000000       0.77039999       0.76969999 </v>
   <v>       0.50000000       0.27039999       0.73030001 </v>
   <v>       0.50000000       0.72960001       0.26969999 </v>
   <v>       0.74980003       0.50000000       0.00000000 </v>
   <v>       0.25019997       0.50000000       0.00000000 </v>
   <v>       0.25019997       0.00000000       0.50000000 </v>
   <v>       0.74980003       0.00000000       0.50000000 </v>
   <v>       0.24980003       0.00000000       0.00000000 </v>
   <v>       0.75019997       0.00000000       0.00000000 </v>
   <v>       0.75019997       0.50000000       0.50000000 </v>
   <v>       0.24980003       0.50000000       0.50000000 </v>
  </varray>
 </structure>
 <calculation>
  <scstep>
   <time name="dav">  136.86  136.93</time>
   <time name="total">  137.23  137.33</time>
   <energy>
    <i name="alphaZ">     80.20150506 </i>
    <i name="ewald">   -635.55410545 </i>
    <i name="hartreedc">  -1299.35773838 </i>
    <i name="XCdc">    379.55873157 </i>
    <i name="pawpsdc">    655.30793496 </i>
    <i name="pawaedc">   -674.29210410 </i>
    <i name="eentropy">      0.00000000 </i>
    <i name="bandstr">   -916.33434802 </i>
    <i name="atom">   3153.63586372 </i>
    <i name="e_fr_energy">    743.16573937 </i>
    <i name="e_wo_entrp">    743.16573937 </i>
    <i name="e_0_energy">    743.16573937 </i>
   </energy>
  </scstep>
  <scstep>
   <time name="dav">  153.44  153.51</time>
   <time name="total">  153.45  153.53</time>
   <energy>
    <i name="e_fr_energy">   -196.20605960 </i>
    <i name="e_wo_entrp">   -196.20605960 </i>
    <i name="e_0_energy">   -196.20605960 </i>
   </energy>
  </scstep>
  <scstep>
   <time name="dav">  165.00  165.08</time>
   <time name="total">  165.01  165.09</time>
   <energy>
    <i name="e_fr_energy">   -299.23911490 </i>
    <i name="e_wo_entrp">   -299.23911490 </i>
    <i name="e_0_energy">   -299.23911490 </i>
   </energy>
  </scstep>
  <scstep>
   <time name="dav">  161.71  161.79</time>
   <time name="total">  161.72  161.80</time>
   <energy>
    <i name="e_fr_energy">   -301.81163299 </i>
    <i name="e_wo_entrp">   -301.81163299 </i>
    <i name="e_0_energy">   -301.81163299 </i>
   </energy>
  </scstep>
  <scstep>
   <time name="dav">  268.73  405.01</time>
   <time name="total">  272.91  410.41</time>
   <energy>
    <i name="e_fr_energy">   -301.86209765 </i>
    <i name="e_wo_entrp">   -301.86209765 </i>
    <i name="e_0_energy">   -301.86209765 </i>
   </energy>
  </scstep>
  <scstep>
   <time name="dav">  236.35  349.76</time>
   <time name="total">  240.13  355.63</time>
   <energy>
    <i name="e_fr_energy">   -194.78687155 </i>
    <i name="e_wo_entrp">   -194.78687155 </i>
    <i name="e_0_energy">   -194.78687155 </i>
   </energy>
  </scstep>
  <scstep>
   <time name="dav">  251.59  378.54</time>
   <time name="total">  255.26  384.36</time>
   <energy>
    <i name="e_fr_energy">   -184.19300875 </i>
    <i name="e_wo_entrp">   -184.19300875 </i>
    <i name="e_0_energy">   -184.19300875 </i>
   </energy>
  </scstep>
  <scstep>
   <time name="dav">  262.76  388.75</time>
   <time name="total">  266.91  393.91</time>
   <energy>
    <i name="e_fr_energy">   -182.75624977 </i>
    <i name="e_wo_entrp">   -182.75624977 </i>
    <i name="e_0_energy">   -182.75624977 </i>
   </energy>
  </scstep>
  <scstep>
   <time name="dav">  253.28  372.48</time>
   <time name="total">  257.14  379.09</time>
   <energy>
    <i name="e_fr_energy">   -182.69584696 </i>
    <i name="e_wo_entrp">   -182.69584696 </i>
    <i name="e_0_energy">   -182.69584696 </i>
   </energy>
  </scstep>
  <scstep>
   <time name="dav">  236.92  359.88</time>
   <time name="total">  240.97  366.66</time>
   <energy>
    <i name="e_fr_energy">   -182.71635598 </i>
    <i name="e_wo_entrp">   -182.71635598 </i>
    <i name="e_0_energy">   -182.71635598 </i>
   </energy>
  </scstep>
  <scstep>
   <time name="dav">  235.66  350.02</time>
   <time name="total">  239.34  356.19</time>
   <energy>
    <i name="e_fr_energy">   -182.72321119 </i>
    <i name="e_wo_entrp">   -182.72321119 </i>
    <i name="e_0_energy">   -182.72321119 </i>
   </energy>
  </scstep>
  <scstep>
   <time name="dav">  280.48  411.53</time>
   <time name="total">  284.47  417.42</time>
   <energy>
    <i name="e_fr_energy">   -182.72304164 </i>
    <i name="e_wo_entrp">   -182.72304164 </i>
    <i name="e_0_energy">   -182.72304164 </i>
   </energy>
  </scstep>
  <scstep>
   <time name="dav">  241.14  366.28</time>
   <time name="total">  244.67  371.89</time>
   <energy>
    <i name="e_fr_energy">   -182.72310387 </i>
    <i name="e_wo_entrp">   -182.72310387 </i>
    <i name="e_0_energy">   -182.72310387 </i>
   </energy>
  </scstep>
  <scstep>
   <time name="dav">  249.62  369.66</time>
   <time name="total">  253.45  375.75</time>
   <energy>
    <i name="e_fr_energy">   -182.72310898 </i>
    <i name="e_wo_entrp">   -182.72310898 </i>
    <i name="e_0_energy">   -182.72310898 </i>
   </energy>
  </scstep>
  <scstep>
   <time name="dav">  242.33  361.34</time>
   <time name="total">  242.90  362.27</time>
   <energy>
    <i name="alphaZ">     80.20150506 </i>
    <i name="ewald">   -635.55410545 </i>
    <i name="hartreedc">  -1967.59965507 </i>
    <i name="XCdc">    434.29467027 </i>
    <i name="pawpsdc">   2290.13861403 </i>
    <i name="pawaedc">  -2318.37678508 </i>
    <i name="eentropy">      0.00000000 </i>
    <i name="bandstr">  -1219.46321707 </i>
    <i name="atom">   3153.63586372 </i>
    <i name="e_fr_energy">   -182.72310957 </i>
    <i name="e_wo_entrp">   -182.72310957 </i>
    <i name="e_0_energy">   -182.72310957 </i>
   </energy>
  </scstep>
  <structure>
   <crystal>
    <varray name="basis" >
     <v>      11.62932116       0.00000000       0.00000000 </v>
     <v>       0.00000000       8.13433618       0.00000000 </v>
     <v>       0.00000000       0.00000000       8.12927111 </v>
    </varray>
    <i name="volume">    769.00309776 </i>
    <varray name="rec_basis" >
     <v>       0.08598954       0.00000000       0.00000000 </v>
     <v>       0.00000000       0.12293566       0.00000000 </v>
     <v>       0.00000000       0.00000000       0.12301226 </v>
    </varray>
   </crystal>
   <varray name="positions" >
    <v>       0.07280000       0.78549999       0.18230000 </v>
    <v>       0.92720002       0.21450001       0.81770003 </v>
    <v>       0.92720002       0.71450001       0.68229997 </v>
    <v>       0.07280000       0.28549999       0.31770000 </v>
    <v>       0.92720002       0.28549999       0.31770000 </v>
    <v>       0.07280000       0.71450001       0.68229997 </v>
    <v>       0.07280000       0.21450001       0.81770003 </v>
    <v>       0.92720002       0.78549999       0.18230000 </v>
    <v>       0.57279998       0.28549999       0.18230000 </v>
    <v>       0.42719999       0.71450001       0.81770003 </v>
    <v>       0.42719999       0.21450001       0.68229997 </v>
    <v>       0.57279998       0.78549999       0.31770000 </v>
    <v>       0.42719999       0.78549999       0.31770000 </v>
    <v>       0.57279998       0.21450001       0.68229997 </v>
    <v>       0.57279998       0.71450001       0.81770003 </v>
    <v>       0.42719999       0.28549999       0.18230000 </v>
    <v>       0.80100000       0.57950002       0.93360001 </v>
    <v>       0.19900000       0.42049998       0.06639999 </v>
    <v>       0.19900000       0.92049998       0.43360001 </v>
    <v>       0.80100000       0.07950002       0.56639999 </v>
    <v>       0.19900000       0.07950002       0.56639999 </v>
    <v>       0.80100000       0.92049998       0.43360001 </v>
    <v>       0.80100000       0.42049998       0.06639999 </v>
    <v>       0.19900000       0.57950002       0.93360001 </v>
    <v>       0.30100000       0.07950002       0.93360001 </v>
    <v>       0.69900000       0.92049998       0.06639999 </v>
    <v>       0.69900000       0.42049998       0.43360001 </v>
    <v>       0.30100000       0.57950002       0.56639999 </v>
    <v>       0.69900000       0.57950002       0.56639999 </v>
    <v>       0.30100000       0.42049998       0.43360001 </v>
    <v>       0.30100000       0.92049998       0.06639999 </v>
    <v>       0.69900000       0.07950002       0.93360001 </v>
    <v>       0.69859999       0.56629997       0.07959998 </v>
    <v>       0.30140001       0.43370003       0.92040002 </v>
    <v>       0.30140001       0.93370003       0.57959998 </v>
    <v>       0.69859999       0.06629997       0.42040002 </v>
    <v>       0.30140001       0.06629997       0.42040002 </v>
    <v>       0.69859999       0.93370003       0.57959998 </v>
    <v>       0.69859999       0.43370003       0.92040002 </v>
    <v>       0.30140001       0.56629997       0.07959998 </v>
    <v>       0.19859999       0.06629997       0.07959998 </v>
    <v>       0.80140001       0.93370003       0.92040002 </v>
    <v>       0.80140001       0.43370003       0.57959998 </v>
    <v>       0.19859999       0.56629997       0.42040002 </v>
    <v>       0.80140001       0.56629997       0.42040002 </v>
    <v>       0.19859999       0.43370003       0.57959998 </v>
    <v>       0.19859999       0.93370003       0.92040002 </v>
    <v>       0.80140001       0.06629997       0.07959998 </v>
    <v>       0.00000000       0.60589999       0.19920000 </v>
    <v>       0.00000000       0.39410001       0.80079997 </v>
    <v>       0.00000000       0.89410001       0.69920003 </v>
    <v>       0.00000000       0.10589999       0.30080000 </v>
    <v>       0.50000000       0.10589999       0.19920000 </v>
    <v>       0.50000000       0.89410001       0.80079997 </v>
    <v>       0.50000000       0.39410001       0.69920003 </v>
    <v>       0.50000000       0.60589999       0.30080000 </v>
    <v>       0.00000000       0.74159998       0.78549999 </v>
    <v>       0.00000000       0.25840002       0.21450001 </v>
    <v>       0.00000000       0.75840002       0.28549999 </v>
    <v>       0.00000000       0.24159998       0.71450001 </v>
    <v>       0.50000000       0.24159998       0.78549999 </v>
    <v>       0.50000000       0.75840002       0.21450001 </v>
    <v>       0.50000000       0.25840002       0.28549999 </v>
    <v>       0.50000000       0.74159998       0.71450001 </v>
    <v>       0.00000000       0.72960001       0.23029999 </v>
    <v>       0.00000000       0.27039999       0.76969999 </v>
    <v>       0.00000000       0.77039999       0.73030001 </v>
    <v>       0.00000000       0.22960001       0.26969999 </v>
    <v>       0.50000000       0.22960001       0.23029999 </v>
    <v>       0.50000000       0.77039999       0.76969999 </v>
    <v>       0.50000000       0.27039999       0.73030001 </v>
    <v>       0.50000000       0.72960001       0.26969999 </v>
    <v>       0.74980003       0.50000000       0.00000000 </v>
    <v>       0.25019997       0.50000000       0.00000000 </v>
    <v>       0.25019997       0.00000000       0.50000000 </v>
    <v>       0.74980003       0.00000000       0.50000000 </v>
    <v>       0.24980003       0.00000000       0.00000000 </v>
    <v>       0.75019997       0.00000000       0.00000000 </v>
    <v>       0.75019997       0.50000000       0.50000000 </v>
    <v>       0.24980003       0.50000000       0.50000000 </v>
   </varray>
  </structure>
  <varray name="forces" >
   <v>       1.59864278       0.62992335      -1.92523762 </v>
   <v>      -1.59864278      -0.62992335       1.92523762 </v>
   <v>      -1.59864278      -0.62992335      -1.92523762 </v>
   <v>       1.59864278       0.62992335       1.92523762 </v>
   <v>      -1.59864278       0.62992335       1.92523762 </v>
   <v>       1.59864278      -0.62992335      -1.92523762 </v>
   <v>       1.59864278      -0.62992335       1.92523762 </v>
   <v>      -1.59864278       0.62992335      -1.92523762 </v>
   <v>       1.59864278       0.62992335      -1.92523762 </v>
   <v>      -1.59864278      -0.62992335       1.92523762 </v>
   <v>      -1.59864278      -0.62992335      -1.92523762 </v>
   <v>       1.59864278       0.62992335       1.92523762 </v>
   <v>      -1.59864278       0.62992335       1.92523762 </v>
   <v>       1.59864278      -0.62992335      -1.92523762 </v>
   <v>       1.59864278      -0.62992335       1.92523762 </v>
   <v>      -1.59864278       0.62992335      -1.92523762 </v>
   <v>       1.45013100       1.57406076      -1.29900729 </v>
   <v>      -1.45013100      -1.57406076       1.29900729 </v>
   <v>      -1.45013100      -1.57406076      -1.29900729 </v>
   <v>       1.45013100       1.57406076       1.29900729 </v>
   <v>      -1.45013100       1.57406076       1.29900729 </v>
   <v>       1.45013100      -1.57406076      -1.29900729 </v>
   <v>       1.45013100      -1.57406076       1.29900729 </v>
   <v>      -1.45013100       1.57406076      -1.29900729 </v>
   <v>       1.45013100       1.57406076      -1.29900729 </v>
   <v>      -1.45013100      -1.57406076       1.29900729 </v>
   <v>      -1.45013100      -1.57406076      -1.29900729 </v>
   <v>       1.45013100       1.57406076       1.29900729 </v>
   <v>      -1.45013100       1.57406076       1.29900729 </v>
   <v>       1.45013100      -1.57406076      -1.29900729 </v>
   <v>       1.45013100      -1.57406076       1.29900729 </v>
   <v>      -1.45013100       1.57406076      -1.29900729 </v>
   <v>      -1.44728085       1.31134377       1.56125340 </v>
   <v>       1.44728085      -1.31134377      -1.56125340 </v>
   <v>       1.44728085      -1.31134377       1.56125340 </v>
   <v>      -1.44728085       1.31134377      -1.56125340 </v>
   <v>       1.44728085       1.31134377      -1.56125340 </v>
   <v>      -1.44728085      -1.31134377       1.56125340 </v>
   <v>      -1.44728085      -1.31134377      -1.56125340 </v>
   <v>       1.44728085       1.31134377       1.56125340 </v>
   <v>      -1.44728085       1.31134377       1.56125340 </v>
   <v>       1.44728085      -1.31134377      -1.56125340 </v>
   <v>       1.44728085      -1.31134377       1.56125340 </v>
   <v>      -1.44728085       1.31134377      -1.56125340 </v>
   <v>       1.44728085       1.31134377      -1.56125340 </v>
   <v>      -1.44728085      -1.31134377       1.56125340 </v>
   <v>      -1.44728085      -1.31134377      -1.56125340 </v>
   <v>       1.44728085       1.31134377       1.56125340 </v>
   <v>      -0.00000000      -1.65166490       0.43051197 </v>
   <v>      -0.00000000       1.65166490      -0.43051197 </v>
   <v>      -0.00000000       1.65166490       0.43051197 </v>
   <v>      -0.00000000      -1.65166490      -0.43051197 </v>
   <v>      -0.00000000      -1.65166490       0.43051197 </v>
   <v>      -0.00000000       1.65166490      -0.43051197 </v>
   <v>      -0.00000000       1.65166490       0.43051197 </v>
   <v>      -0.00000000      -1.65166490      -0.43051197 </v>
   <v>      -0.00000000     -71.86783925     146.65084535 </v>
   <v>      -0.00000000      71.86783925    -146.65084535 </v>
   <v>      -0.00000000      71.86783925     146.65084535 </v>
   <v>      -0.00000000     -71.86783925    -146.65084535 </v>
   <v>      -0.00000000     -71.86783925     146.65084535 </v>
   <v>      -0.00000000      71.86783925    -146.65084535 </v>
   <v>      -0.00000000      71.86783925     146.65084535 </v>
   <v>      -0.00000000     -71.86783925    -146.65084535 </v>
   <v>      -0.00000000     -71.47763960    -143.23415340 </v>
   <v>      -0.00000000      71.47763960     143.23415340 </v>
   <v>      -0.00000000      71.47763960    -143.23415340 </v>
   <v>      -0.00000000     -71.47763960     143.23415340 </v>
   <v>      -0.00000000     -71.47763960    -143.23415340 </v>
   <v>      -0.00000000      71.47763960     143.23415340 </v>
   <v>      -0.00000000      71.47763960    -143.23415340 </v>
   <v>      -0.00000000     -71.47763960     143.23415340 </v>
   <v>      -0.00063459       0.00000000       0.00000000 </v>
   <v>       0.00063459       0.00000000       0.00000000 </v>
   <v>       0.00063459       0.00000000       0.00000000 </v>
   <v>      -0.00063459       0.00000000       0.00000000 </v>
   <v>      -0.00063459       0.00000000       0.00000000 </v>
   <v>       0.00063459       0.00000000       0.00000000 </v>
   <v>       0.00063459       0.00000000       0.00000000 </v>
   <v>      -0.00063459       0.00000000       0.00000000 </v>
  </varray>
  <varray name="stress" >
   <v>      97.77792881       0.00000000       0.00000000 </v>
   <v>       0.00000000     371.04781675       0.00000000 </v>
   <v>       0.00000000       0.00000000    1171.51848830 </v>
  </varray>
  <energy>
   <i name="e_fr_energy">   -185.40578166 </i>
   <i name="e_wo_entrp">   -185.40578166 </i>
   <i name="e_0_energy">      0.00000000 </i>
  </energy>
  <time name="totalsc"> 3701.76 5223.88</time>
 </calculation>
 <calculation>
  <scstep>
   <time name="dav">  255.00  381.91</time>
   <time name="total">  259.16  387.80</time>
   <energy>
    <i name="alphaZ">     80.20150506 </i>
    <i name="ewald">  -1600.71361220 </i>
    <i name="hartreedc">  -1433.97163819 </i>
    <i name="XCdc">    401.53326281 </i>
    <i name="pawpsdc">   2290.10630875 </i>
    <i name="pawaedc">  -2318.34394940 </i>
    <i name="eentropy">      0.00000000 </i>
    <i name="bandstr">   -873.10928795 </i>
    <i name="atom">   3153.63586372 </i>
    <i name="e_fr_energy">   -300.66154739 </i>
    <i name="e_wo_entrp">   -300.66154739 </i>
    <i name="e_0_energy">   -300.66154739 </i>
   </energy>
  </scstep>
  <scstep>
   <time name="dav">  271.53  405.61</time>
   <time name="total">  274.96  411.84</time>
   <energy>
    <i name="e_fr_energy">   -335.89428888 </i>
    <i name="e_wo_entrp">   -335.89428888 </i>
    <i name="e_0_energy">   -335.89428888 </i>
   </energy>
  </scstep>
  <scstep>
   <time name="dav">  263.74  397.38</time>
   <time name="total">  267.87  403.41</time>
   <energy>
    <i name="e_fr_energy">   -327.92687737 </i>
    <i name="e_wo_entrp">   -327.92687737 </i>
    <i name="e_0_energy">   -327.92687737 </i>
   </energy>
  </scstep>
  <scstep>
   <time name="dav">  254.87  380.28</time>
   <time name="total">  258.84  386.31</time>
   <energy>
    <i name="e_fr_energy">   -326.62763762 </i>
    <i name="e_wo_entrp">   -326.62763762 </i>
    <i name="e_0_energy">   -326.62763762 </i>
   </energy>
  </scstep>
  <scstep>
   <time name="dav">  255.58  385.24</time>
   <time name="total">  259.50  390.68</time>
   <energy>
    <i name="e_fr_energy">   -326.68675243 </i>
    <i name="e_wo_entrp">   -326.68675243 </i>
    <i name="e_0_energy">   -326.68675243 </i>
   </energy>
  </scstep>
  <scstep>
   <time name="dav">  250.64  378.66</time>
   <time name="total">  254.59  385.09</time>
   <energy>
    <i name="e_fr_energy">   -326.68581916 </i>
    <i name="e_wo_entrp">   -326.68581916 </i>
    <i name="e_0_energy">   -326.68581916 </i>
   </energy>
  </scstep>
  <scstep>
   <time name="dav">  262.16  393.50</time>
   <time name="total">  266.10  399.43</time>
   <energy>
    <i name="e_fr_energy">   -326.68840352 </i>
    <i name="e_wo_entrp">   -326.68840352 </i>
    <i name="e_0_energy">   -326.68840352 </i>
   </energy>
  </scstep>
  <scstep>
   <time name="dav">  250.42  371.81</time>
   <time name="total">  254.24  377.50</time>
   <energy>
    <i name="e_fr_energy">   -326.68897425 </i>
    <i name="e_wo_entrp">   -326.68897425 </i>
    <i name="e_0_energy">   -326.68897425 </i>
   </energy>
  </scstep>
  <scstep>
   <time name="dav">  263.10  392.77</time>
   <time name="total">  267.12  399.06</time>
   <energy>
    <i name="e_fr_energy">   -326.68906834 </i>
    <i name="e_wo_entrp">   -326.68906834 </i>
    <i name="e_0_energy">   -326.68906834 </i>
   </energy>
  </scstep>
  <scstep>
   <time name="dav">  254.48  379.36</time>
   <time name="total">  258.14  385.74</time>
   <energy>
    <i name="e_fr_energy">   -326.68912511 </i>
    <i name="e_wo_entrp">   -326.68912511 </i>
    <i name="e_0_energy">   -326.68912511 </i>
   </energy>
  </scstep>
  <scstep>
   <time name="dav">  265.94  395.84</time>
   <time name="total">  269.98  402.11</time>
   <energy>
    <i name="e_fr_energy">   -326.68914781 </i>
    <i name="e_wo_entrp">   -326.68914781 </i>
    <i name="e_0_energy">   -326.68914781 </i>
   </energy>
  </scstep>
  <scstep>
   <time name="dav">  254.18  378.85</time>
   <time name="total">  258.39  384.39</time>
   <energy>
    <i name="e_fr_energy">   -326.68915008 </i>
    <i name="e_wo_entrp">   -326.68915008 </i>
    <i name="e_0_energy">   -326.68915008 </i>
   </energy>
  </scstep>
  <scstep>
   <time name="dav">  189.06  285.12</time>
   <time name="total">  189.50  285.97</time>
   <energy>
    <i name="alphaZ">     80.20150506 </i>
    <i name="ewald">  -1600.71361220 </i>
    <i name="hartreedc">  -1301.12868573 </i>
    <i name="XCdc">    387.39290101 </i>
    <i name="pawpsdc">   1212.30606865 </i>
    <i name="pawaedc">  -1233.82773531 </i>
    <i name="eentropy">      0.00000000 </i>
    <i name="bandstr">  -1024.55545577 </i>
    <i name="atom">   3153.63586372 </i>
    <i name="e_fr_energy">   -326.68915056 </i>
    <i name="e_wo_entrp">   -326.68915056 </i>
    <i name="e_0_energy">   -326.68915056 </i>
   </energy>
  </scstep>
  <structure>
   <crystal>
    <varray name="basis" >
     <v>      11.62932116       0.00000000       0.00000000 </v>
     <v>       0.00000000       8.13433618       0.00000000 </v>
     <v>       0.00000000       0.00000000       8.12927111 </v>
    </varray>
    <i name="volume">    769.00309776 </i>
    <varray name="rec_basis" >
     <v>       0.08598954       0.00000000       0.00000000 </v>
     <v>       0.00000000       0.12293566       0.00000000 </v>
     <v>       0.00000000       0.00000000       0.12301226 </v>
    </varray>
   </crystal>
   <varray name="positions" >
    <v>       0.07943175       0.78923590       0.17087480 </v>
    <v>       0.92056827       0.21076410       0.82912523 </v>
    <v>       0.92056827       0.71076410       0.67087477 </v>
    <v>       0.07943175       0.28923590       0.32912520 </v>
    <v>       0.92056827       0.28923590       0.32912520 </v>
    <v>       0.07943175       0.71076410       0.67087477 </v>
    <v>       0.07943175       0.21076410       0.82912523 </v>
    <v>       0.92056827       0.78923590       0.17087480 </v>
    <v>       0.57943173       0.28923590       0.17087480 </v>
    <v>       0.42056824       0.71076410       0.82912523 </v>
    <v>       0.42056824       0.21076410       0.67087477 </v>
    <v>       0.57943173       0.78923590       0.32912520 </v>
    <v>       0.42056824       0.78923590       0.32912520 </v>
    <v>       0.57943173       0.21076410       0.67087477 </v>
    <v>       0.57943173       0.71076410       0.82912523 </v>
    <v>       0.42056824       0.28923590       0.17087480 </v>
    <v>       0.80701567       0.58883537       0.92589113 </v>
    <v>       0.19298433       0.41116463       0.07410887 </v>
    <v>       0.19298433       0.91116463       0.42589113 </v>
    <v>       0.80701567       0.08883537       0.57410887 </v>
    <v>       0.19298433       0.08883537       0.57410887 </v>
    <v>       0.80701567       0.91116463       0.42589113 </v>
    <v>       0.80701567       0.41116463       0.07410887 </v>
    <v>       0.19298433       0.58883537       0.92589113 </v>
    <v>       0.30701567       0.08883537       0.92589113 </v>
    <v>       0.69298433       0.91116463       0.07410887 </v>
    <v>       0.69298433       0.41116463       0.42589113 </v>
    <v>       0.30701567       0.58883537       0.57410887 </v>
    <v>       0.69298433       0.58883537       0.57410887 </v>
    <v>       0.30701567       0.41116463       0.42589113 </v>
    <v>       0.30701567       0.91116463       0.07410887 </v>
    <v>       0.69298433       0.08883537       0.92589113 </v>
    <v>       0.69259615       0.57407722       0.08886514 </v>
    <v>       0.30740385       0.42592278       0.91113486 </v>
    <v>       0.30740385       0.92592278       0.58886514 </v>
    <v>       0.69259615       0.07407722       0.41113486 </v>
    <v>       0.30740385       0.07407722       0.41113486 </v>
    <v>       0.69259615       0.92592278       0.58886514 </v>
    <v>       0.69259615       0.42592278       0.91113486 </v>
    <v>       0.30740385       0.57407722       0.08886514 </v>
    <v>       0.19259615       0.07407722       0.08886514 </v>
    <v>       0.80740385       0.92592278       0.91113486 </v>
    <v>       0.80740385       0.42592278       0.58886514 </v>
    <v>       0.19259615       0.57407722       0.41113486 </v>
    <v>       0.80740385       0.57407722       0.41113486 </v>
    <v>       0.19259615       0.42592278       0.58886514 </v>
    <v>       0.19259615       0.92592278       0.91113486 </v>
    <v>       0.80740385       0.07407722       0.08886514 </v>
    <v>      -0.00000000       0.59610439       0.20175485 </v>
    <v>      -0.00000000       0.40389561       0.79824512 </v>
    <v>      -0.00000000       0.90389561       0.70175488 </v>
    <v>      -0.00000000       0.09610439       0.29824515 </v>
    <v>       0.50000000       0.09610439       0.20175485 </v>
    <v>       0.50000000       0.90389561       0.79824512 </v>
    <v>       0.50000000       0.40389561       0.70175488 </v>
    <v>       0.50000000       0.59610439       0.29824515 </v>
    <v>      -0.00000000       0.31537032       0.65579032 </v>
    <v>      -0.00000000       0.68462968      -0.65579032 </v>
    <v>      -0.00000000       0.18462968       0.15579032 </v>
    <v>      -0.00000000      -0.18462968      -0.15579032 </v>
    <v>       0.50000000      -0.18462968       0.65579032 </v>
    <v>       0.50000000       0.18462968      -0.65579032 </v>
    <v>       0.50000000       0.68462968       0.15579032 </v>
    <v>       0.50000000       0.31537032      -0.15579032 </v>
    <v>      -0.00000000       0.30568453      -0.61971419 </v>
    <v>      -0.00000000       0.69431547       0.61971417 </v>
    <v>      -0.00000000       0.19431547      -0.11971417 </v>
    <v>      -0.00000000      -0.19431547       0.11971417 </v>
    <v>       0.50000000      -0.19431547      -0.61971419 </v>
    <v>       0.50000000       0.19431547       0.61971417 </v>
    <v>       0.50000000       0.69431547      -0.11971417 </v>
    <v>       0.50000000       0.30568453       0.11971417 </v>
    <v>       0.74979739       0.50000000       0.00000000 </v>
    <v>       0.25020261       0.50000000       0.00000000 </v>
    <v>       0.25020261       0.00000000       0.50000000 </v>
    <v>       0.74979739       0.00000000       0.50000000 </v>
    <v>       0.24979739       0.00000000       0.00000000 </v>
    <v>       0.75020261       0.00000000       0.00000000 </v>
    <v>       0.75020261       0.50000000       0.50000000 </v>
    <v>       0.24979739       0.50000000       0.50000000 </v>
   </varray>
  </structure>
  <varray name="forces" >
   <v>       2.73299793       1.00308717       1.20360836 </v>
   <v>      -2.73299793      -1.00308717      -1.20360836 </v>
   <v>      -2.73299793      -1.00308717       1.20360836 </v>
   <v>       2.73299793       1.00308717      -1.20360836 </v>
   <v>      -2.73299793       1.00308717      -1.20360836 </v>
   <v>       2.73299793      -1.00308717       1.20360836 </v>
   <v>       2.73299793      -1.00308717      -1.20360836 </v>
   <v>      -2.73299793       1.00308717       1.20360836 </v>
   <v>       2.73299793       1.00308717       1.20360836 </v>
   <v>      -2.73299793      -1.00308717      -1.20360836 </v>
   <v>      -2.73299793      -1.00308717       1.20360836 </v>
   <v>       2.73299793       1.00308717      -1.20360836 </v>
   <v>      -2.73299793       1.00308717      -1.20360836 </v>
   <v>       2.73299793      -1.00308717       1.20360836 </v>
   <v>       2.73299793      -1.00308717      -1.20360836 </v>
   <v>      -2.73299793       1.00308717       1.20360836 </v>
   <v>      -0.84667060      -1.00849063       0.86475452 </v>
   <v>       0.84667060       1.00849063      -0.86475452 </v>
   <v>       0.84667060       1.00849063       0.86475452 </v>
   <v>      -0.84667060      -1.00849063      -0.86475452 </v>
   <v>       0.84667060      -1.00849063      -0.86475452 </v>
   <v>      -0.84667060       1.00849063       0.86475452 </v>
   <v>      -0.84667060       1.00849063      -0.86475452 </v>
   <v>       0.84667060      -1.00849063       0.86475452 </v>
   <v>      -0.84667060      -1.00849063       0.86475452 </v>
   <v>       0.84667060       1.00849063      -0.86475452 </v>
   <v>       0.84667060       1.00849063       0.86475452 </v>
   <v>      -0.84667060      -1.00849063      -0.86475452 </v>
   <v>       0.84667060      -1.00849063      -0.86475452 </v>
   <v>      -0.84667060       1.00849063       0.86475452 </v>
   <v>      -0.84667060       1.00849063      -0.86475452 </v>
   <v>       0.84667060      -1.00849063       0.86475452 </v>
   <v>       0.88481297      -0.84708541      -1.02815860 </v>
   <v>      -0.88481297       0.84708541       1.02815860 </v>
   <v>      -0.88481297       0.84708541      -1.02815860 </v>
   <v>       0.88481297      -0.84708541       1.02815860 </v>
   <v>      -0.88481297      -0.84708541       1.02815860 </v>
   <v>       0.88481297       0.84708541      -1.02815860 </v>
   <v>       0.88481297       0.84708541       1.02815860 </v>
   <v>      -0.88481297      -0.84708541      -1.02815860 </v>
   <v>       0.88481297      -0.84708541      -1.02815860 </v>
   <v>      -0.88481297       0.84708541       1.02815860 </v>
   <v>      -0.88481297       0.84708541      -1.02815860 </v>
   <v>       0.88481297      -0.84708541       1.02815860 </v>
   <v>      -0.88481297      -0.84708541       1.02815860 </v>
   <v>       0.88481297       0.84708541      -1.02815860 </v>
   <v>       0.88481297       0.84708541       1.02815860 </v>
   <v>      -0.88481297      -0.84708541      -1.02815860 </v>
   <v>       0.00000000       1.92408297       0.35122600 </v>
   <v>       0.00000000      -1.92408297      -0.35122600 </v>
   <v>       0.00000000      -1.92408297       0.35122600 </v>
   <v>       0.00000000       1.92408297      -0.35122600 </v>
   <v>       0.00000000       1.92408297       0.35122600 </v>
   <v>       0.00000000      -1.92408297      -0.35122600 </v>
   <v>       0.00000000      -1.92408297       0.35122600 </v>
   <v>       0.00000000       1.92408297      -0.35122600 </v>
   <v>       0.00000000       0.83694026      -0.16514026 </v>
   <v>       0.00000000      -0.83694026       0.16514026 </v>
   <v>       0.00000000      -0.83694026      -0.16514026 </v>
   <v>       0.00000000       0.83694026       0.16514026 </v>
   <v>       0.00000000       0.83694026      -0.16514026 </v>
   <v>       0.00000000      -0.83694026       0.16514026 </v>
   <v>       0.00000000      -0.83694026      -0.16514026 </v>
   <v>       0.00000000       0.83694026       0.16514026 </v>
   <v>       0.00000000      -2.84482036       2.87886897 </v>
   <v>       0.00000000       2.84482036      -2.87886897 </v>
   <v>       0.00000000       2.84482036       2.87886897 </v>
   <v>       0.00000000      -2.84482036      -2.87886897 </v>
   <v>       0.00000000      -2.84482036       2.87886897 </v>
   <v>       0.00000000       2.84482036      -2.87886897 </v>
   <v>       0.00000000       2.84482036       2.87886897 </v>
   <v>       0.00000000      -2.84482036      -2.87886897 </v>
   <v>       0.05952969      -0.00000000       0.00000000 </v>
   <v>      -0.05952969      -0.00000000       0.00000000 </v>
   <v>      -0.05952969      -0.00000000       0.00000000 </v>
   <v>       0.05952969      -0.00000000       0.00000000 </v>
   <v>       0.05952969      -0.00000000       0.00000000 </v>
   <v>      -0.05952969      -0.00000000       0.00000000 </v>
   <v>      -0.05952969      -0.00000000       0.00000000 </v>
   <v>       0.05952969      -0.00000000       0.00000000 </v>
  </varray>
  <varray name="stress" >
   <v>      49.98701099       0.00000000       0.00000000 </v>
   <v>       0.00000000     -90.94614194      -0.00000000 </v>
   <v>       0.00000000       0.00000000    -138.57035009 </v>
  </varray>
  <energy>
   <i name="e_fr_energy">   -330.27377956 </i>
   <i name="e_wo_entrp">   -330.27377956 </i>
   <i name="e_0_energy">      0.00000000 </i>
  </energy>
  <time name="totalsc"> 3636.48 5432.62</time>
 </calculation>
 <calculation>
  <scstep>
   <time name="dav">  228.37  343.22</time>
   <time name="total">  232.07  348.72</time>
   <energy>
    <i name="alphaZ">     80.20150506 </i>
    <i name="ewald">  -1617.07008919 </i>
    <i name="hartreedc">  -1294.62592748 </i>
    <i name="XCdc">    386.78865635 </i>
    <i name="pawpsdc">   1212.29605299 </i>
    <i name="pawaedc">  -1233.81761423 </i>
    <i name="eentropy">      0.00000000 </i>
    <i name="bandstr">  -1014.82107058 </i>
    <i name="atom">   3153.63586372 </i>
    <i name="e_fr_energy">   -327.41262335 </i>
    <i name="e_wo_entrp">   -327.41262335 </i>
    <i name="e_0_energy">   -327.41262335 </i>
   </energy>
  </scstep>
  <scstep>
   <time name="dav">  256.19  376.83</time>
   <time name="total">  260.69  382.99</time>
   <energy>
    <i name="e_fr_energy">   -327.44038003 </i>
    <i name="e_wo_entrp">   -327.44038003 </i>
    <i name="e_0_energy">   -327.44038003 </i>
   </energy>
  </scstep>
  <scstep>
   <time name="dav">  252.63  378.09</time>
   <time name="total">  256.66  383.76</time>
   <energy>
    <i name="e_fr_energy">   -327.43473313 </i>
    <i name="e_wo_entrp">   -327.43473313 </i>
    <i name="e_0_energy">   -327.43473313 </i>
   </energy>
  </scstep>
  <scstep>
   <time name="dav">  259.08  381.99</time>
   <time name="total">  262.92  388.54</time>
   <energy>
    <i name="e_fr_energy">   -327.43505300 </i>
    <i name="e_wo_entrp">   -327.43505300 </i>
    <i name="e_0_energy">   -327.43505300 </i>
   </energy>
  </scstep>
  <scstep>
   <time name="dav">  259.80  397.53</time>
   <time name="total">  264.00  403.05</time>
   <energy>
    <i name="e_fr_energy">   -327.43516416 </i>
    <i name="e_wo_entrp">   -327.43516416 </i>
    <i name="e_0_energy">   -327.43516416 </i>
   </energy>
  </scstep>
  <scstep>
