diamond                                 
           1
    11.629321    0.000000    0.000000
     0.000000    8.134336    0.000000
     0.000000    0.000000    8.129271
   H    C 
  64  16
Direct configuration=     1
   0.07873860  0.81895436  0.16659546
   0.92126142  0.18104564  0.83340457
   0.92126142  0.68104564  0.66659543
   0.07873860  0.31895436  0.33340454
   0.92126142  0.31895436  0.33340454
   0.07873860  0.68104564  0.66659543
   0.07873860  0.18104564  0.83340457
   0.92126142  0.81895436  0.16659546
   0.57873858  0.31895436  0.16659546
   0.42126139  0.68104564  0.83340457
   0.42126139  0.18104564  0.66659543
   0.57873858  0.81895436  0.33340454
   0.42126139  0.81895436  0.33340454
   0.57873858  0.18104564  0.66659543
   0.57873858  0.68104564  0.83340457
   0.42126139  0.31895436  0.16659546
   0.81356916  0.58726341  0.92950512
   0.18643084  0.41273659  0.07049488
   0.18643084  0.91273659  0.42950512
   0.81356916  0.08726341  0.57049488
   0.18643084  0.08726341  0.57049488
   0.81356916  0.91273659  0.42950512
   0.81356916  0.41273659  0.07049488
   0.18643084  0.58726341  0.92950512
   0.31356916  0.08726341  0.92950512
   0.68643084  0.91273659  0.07049488
   0.68643084  0.41273659  0.42950512
   0.31356916  0.58726341  0.57049488
   0.68643084  0.58726341  0.57049488
   0.31356916  0.41273659  0.42950512
   0.31356916  0.91273659  0.07049488
   0.68643084  0.08726341  0.92950512
   0.70250675  0.57076844  0.08714716
   0.29749325  0.42923156  0.91285284
   0.29749325  0.92923156  0.58714716
   0.70250675  0.07076844  0.41285284
   0.29749325  0.07076844  0.41285284
   0.70250675  0.92923156  0.58714716
   0.70250675  0.42923156  0.91285284
   0.29749325  0.57076844  0.08714716
   0.20250675  0.07076844  0.08714716
   0.79749325  0.92923156  0.91285284
   0.79749325  0.42923156  0.58714716
   0.20250675  0.57076844  0.41285284
   0.79749325  0.57076844  0.41285284
   0.20250675  0.42923156  0.58714716
   0.20250675  0.92923156  0.91285284
   0.79749325  0.07076844  0.08714716
   0.00000000  0.62588083  0.14231241
   0.00000000  0.37411917  0.85768756
   0.00000000  0.87411917  0.64231244
   0.00000000  0.12588083  0.35768759
   0.50000000  0.12588083  0.14231241
   0.50000000  0.87411917  0.85768756
   0.50000000  0.37411917  0.64231244
   0.50000000  0.62588083  0.35768759
   0.00000000  0.27794093  0.52267793
   0.00000000  0.72205907  0.47732207
   0.00000000  0.22205907  0.02267793
   0.00000000  0.77794093  0.97732207
   0.50000000  0.77794093  0.52267793
   0.50000000  0.22205907  0.47732207
   0.50000000  0.72205907  0.02267793
   0.50000000  0.27794093  0.97732207
   0.00000000  0.26039979  0.38626474
   0.00000000  0.73960021  0.61373525
   0.00000000  0.23960021  0.88626475
   0.00000000  0.76039979  0.11373525
   0.50000000  0.76039979  0.38626474
   0.50000000  0.23960021  0.61373525
   0.50000000  0.73960021  0.88626475
   0.50000000  0.26039979  0.11373525
   0.75801407  0.50000000  0.00000000
   0.24198593  0.50000000  0.00000000
   0.24198593  0.00000000  0.50000000
   0.75801407  0.00000000  0.50000000
   0.25801407  0.00000000  0.00000000
   0.74198593  0.00000000  0.00000000
   0.74198593  0.50000000  0.50000000
   0.25801407  0.50000000  0.50000000
Direct configuration=     2
   0.07632012  0.81715847  0.16508364
   0.92367990  0.18284153  0.83491639
   0.92367990  0.68284153  0.66508361
   0.07632012  0.31715847  0.33491636
   0.92367990  0.31715847  0.33491636
   0.07632012  0.68284153  0.66508361
   0.07632012  0.18284153  0.83491639
   0.92367990  0.81715847  0.16508364
   0.57632010  0.31715847  0.16508364
   0.42367987  0.68284153  0.83491639
   0.42367987  0.18284153  0.66508361
   0.57632010  0.81715847  0.33491636
   0.42367987  0.81715847  0.33491636
   0.57632010  0.18284153  0.66508361
   0.57632010  0.68284153  0.83491639
   0.42367987  0.31715847  0.16508364
   0.81189997  0.58462074  0.93165901
   0.18810003  0.41537926  0.06834099
   0.18810003  0.91537926  0.43165901
   0.81189997  0.08462074  0.56834099
   0.18810003  0.08462074  0.56834099
   0.81189997  0.91537926  0.43165901
   0.81189997  0.41537926  0.06834099
   0.18810003  0.58462074  0.93165901
   0.31189997  0.08462074  0.93165901
   0.68810003  0.91537926  0.06834099
   0.68810003  0.41537926  0.43165901
   0.31189997  0.58462074  0.56834099
   0.68810003  0.58462074  0.56834099
   0.31189997  0.41537926  0.43165901
   0.31189997  0.91537926  0.06834099
   0.68810003  0.08462074  0.93165901
   0.70420322  0.56863175  0.08449865
   0.29579678  0.43136825  0.91550135
   0.29579678  0.93136825  0.58449865
   0.70420322  0.06863175  0.41550135
   0.29579678  0.06863175  0.41550135
   0.70420322  0.93136825  0.58449865
   0.70420322  0.43136825  0.91550135
   0.29579678  0.56863175  0.08449865
   0.20420322  0.06863175  0.08449865
   0.79579678  0.93136825  0.91550135
   0.79579678  0.43136825  0.58449865
   0.20420322  0.56863175  0.41550135
   0.79579678  0.56863175  0.41550135
   0.20420322  0.43136825  0.58449865
   0.20420322  0.93136825  0.91550135
   0.79579678  0.06863175  0.08449865
  -0.00000000  0.63000521  0.14150794
  -0.00000000  0.36999479  0.85849203
  -0.00000000  0.86999479  0.64150797
  -0.00000000  0.13000521  0.35849206
   0.50000000  0.13000521  0.14150794
   0.50000000  0.86999479  0.85849203
   0.50000000  0.36999479  0.64150797
   0.50000000  0.63000521  0.35849206
  -0.00000000  0.27743314  0.51860046
  -0.00000000  0.72256686  0.48139954
  -0.00000000  0.22256686  0.01860046
  -0.00000000  0.77743314  0.98139954
   0.50000000  0.77743314  0.51860046
   0.50000000  0.22256686  0.48139954
   0.50000000  0.72256686  0.01860046
   0.50000000  0.27743314  0.98139954
  -0.00000000  0.26024757  0.38599448
  -0.00000000  0.73975243  0.61400550
  -0.00000000  0.23975243  0.88599450
  -0.00000000  0.76024757  0.11400550
   0.50000000  0.76024757  0.38599448
   0.50000000  0.23975243  0.61400550
   0.50000000  0.73975243  0.88599450
   0.50000000  0.26024757  0.11400550
   0.75803299  0.50000000  0.00000000
   0.24196701  0.50000000  0.00000000
   0.24196701  0.00000000  0.50000000
   0.75803299 -0.00000000  0.50000000
   0.25803299  0.00000000 -0.00000000
   0.74196701  0.00000000 -0.00000000
   0.74196701  0.50000000  0.50000000
   0.25803299  0.50000000  0.50000000
Direct configuration=     3
   0.07710614  0.81774214  0.16557498
   0.92289388  0.18225786  0.83442504
   0.92289388  0.68225786  0.66557496
   0.07710614  0.31774214  0.33442502
   0.92289388  0.31774214  0.33442502
   0.07710614  0.68225786  0.66557496
   0.07710614  0.18225786  0.83442504
   0.92289388  0.81774214  0.16557498
   0.57710612  0.31774214  0.16557498
   0.42289385  0.68225786  0.83442504
   0.42289385  0.18225786  0.66557496
   0.57710612  0.81774214  0.33442502
   0.42289385  0.81774214  0.33442502
   0.57710612  0.18225786  0.66557496
   0.57710612  0.68225786  0.83442504
   0.42289385  0.31774214  0.16557498
   0.81244246  0.58547962  0.93095899
   0.18755754  0.41452038  0.06904101
   0.18755754  0.91452038  0.43095899
   0.81244246  0.08547962  0.56904101
   0.18755754  0.08547962  0.56904101
   0.81244246  0.91452038  0.43095899
   0.81244246  0.41452038  0.06904101
   0.18755754  0.58547962  0.93095899
   0.31244246  0.08547962  0.93095899
   0.68755754  0.91452038  0.06904101
   0.68755754  0.41452038  0.43095899
   0.31244246  0.58547962  0.56904101
   0.68755754  0.58547962  0.56904101
   0.31244246  0.41452038  0.43095899
   0.31244246  0.91452038  0.06904101
   0.68755754  0.08547962  0.93095899
   0.70365186  0.56932618  0.08535943
   0.29634814  0.43067382  0.91464057
   0.29634814  0.93067382  0.58535943
   0.70365186  0.06932618  0.41464057
   0.29634814  0.06932618  0.41464057
   0.70365186  0.93067382  0.58535943
   0.70365186  0.43067382  0.91464057
   0.29634814  0.56932618  0.08535943
   0.20365186  0.06932618  0.08535943
   0.79634814  0.93067382  0.91464057
   0.79634814  0.43067382  0.58535943
   0.20365186  0.56932618  0.41464057
   0.79634814  0.56932618  0.41464057
   0.20365186  0.43067382  0.58535943
   0.20365186  0.93067382  0.91464057
   0.79634814  0.06932618  0.08535943
  -0.00000000  0.62866477  0.14176940
  -0.00000000  0.37133523  0.85823057
  -0.00000000  0.87133523  0.64176943
  -0.00000000  0.12866477  0.35823060
   0.50000000  0.12866477  0.14176940
   0.50000000  0.87133523  0.85823057
   0.50000000  0.37133523  0.64176943
   0.50000000  0.62866477  0.35823060
  -0.00000000  0.27759817  0.51992565
  -0.00000000  0.72240183  0.48007435
  -0.00000000  0.22240183  0.01992565
  -0.00000000  0.77759817  0.98007435
   0.50000000  0.77759817  0.51992565
   0.50000000  0.22240183  0.48007435
   0.50000000  0.72240183  0.01992565
   0.50000000  0.27759817  0.98007435
  -0.00000000  0.26029704  0.38608231
  -0.00000000  0.73970296  0.61391767
  -0.00000000  0.23970296  0.88608233
  -0.00000000  0.76029704  0.11391767
   0.50000000  0.76029704  0.38608231
   0.50000000  0.23970296  0.61391767
   0.50000000  0.73970296  0.88608233
   0.50000000  0.26029704  0.11391767
   0.75802684  0.50000000  0.00000000
   0.24197316  0.50000000  0.00000000
   0.24197316  0.00000000  0.50000000
   0.75802684 -0.00000000  0.50000000
   0.25802684  0.00000000 -0.00000000
   0.74197316  0.00000000 -0.00000000
   0.74197316  0.50000000  0.50000000
   0.25802684  0.50000000  0.50000000
Direct configuration=     4
   0.07709701  0.81772071  0.16570302
   0.92290301  0.18227929  0.83429701
   0.92290301  0.68227929  0.66570299
   0.07709701  0.31772071  0.33429698
   0.92290301  0.31772071  0.33429698
   0.07709701  0.68227929  0.66570299
   0.07709701  0.18227929  0.83429701
   0.92290301  0.81772071  0.16570302
   0.57709699  0.31772071  0.16570302
   0.42290298  0.68227929  0.83429701
   0.42290298  0.18227929  0.66570299
   0.57709699  0.81772071  0.33429698
   0.42290298  0.81772071  0.33429698
   0.57709699  0.18227929  0.66570299
   0.57709699  0.68227929  0.83429701
   0.42290298  0.31772071  0.16570302
   0.81245750  0.58548128  0.93095991
   0.18754250  0.41451872  0.06904009
   0.18754250  0.91451872  0.43095991
   0.81245750  0.08548128  0.56904009
   0.18754250  0.08548128  0.56904009
   0.81245750  0.91451872  0.43095991
   0.81245750  0.41451872  0.06904009
   0.18754250  0.58548128  0.93095991
   0.31245750  0.08548128  0.93095991
   0.68754250  0.91451872  0.06904009
   0.68754250  0.41451872  0.43095991
   0.31245750  0.58548128  0.56904009
   0.68754250  0.58548128  0.56904009
   0.31245750  0.41451872  0.43095991
   0.31245750  0.91451872  0.06904009
   0.68754250  0.08548128  0.93095991
   0.70366805  0.56932385  0.08535089
   0.29633195  0.43067615  0.91464911
   0.29633195  0.93067615  0.58535089
   0.70366805  0.06932385  0.41464911
   0.29633195  0.06932385  0.41464911
   0.70366805  0.93067615  0.58535089
   0.70366805  0.43067615  0.91464911
   0.29633195  0.56932385  0.08535089
   0.20366805  0.06932385  0.08535089
   0.79633195  0.93067615  0.91464911
   0.79633195  0.43067615  0.58535089
   0.20366805  0.56932385  0.41464911
   0.79633195  0.56932385  0.41464911
   0.20366805  0.43067615  0.58535089
   0.20366805  0.93067615  0.91464911
   0.79633195  0.06932385  0.08535089
  -0.00000000  0.62851875  0.14188599
  -0.00000000  0.37148125  0.85811398
  -0.00000000  0.87148125  0.64188602
  -0.00000000  0.12851875  0.35811401
   0.50000000  0.12851875  0.14188599
   0.50000000  0.87148125  0.85811398
   0.50000000  0.37148125  0.64188602
   0.50000000  0.62851875  0.35811401
  -0.00000000  0.27755702  0.51965246
  -0.00000000  0.72244298  0.48034754
  -0.00000000  0.22244298  0.01965246
  -0.00000000  0.77755702  0.98034754
   0.50000000  0.77755702  0.51965246
   0.50000000  0.22244298  0.48034754
   0.50000000  0.72244298  0.01965246
   0.50000000  0.27755702  0.98034754
  -0.00000000  0.26041953  0.38626673
  -0.00000000  0.73958047  0.61373325
  -0.00000000  0.23958047  0.88626675
  -0.00000000  0.76041953  0.11373325
   0.50000000  0.76041953  0.38626673
   0.50000000  0.23958047  0.61373325
   0.50000000  0.73958047  0.88626675
   0.50000000  0.26041953  0.11373325
   0.75803268  0.50000000 -0.00000000
   0.24196732  0.50000000 -0.00000000
   0.24196732  0.00000000  0.50000000
   0.75803268  0.00000000  0.50000000
   0.25803268  0.00000000 -0.00000000
   0.74196732  0.00000000 -0.00000000
   0.74196732  0.50000000  0.50000000
   0.25803268  0.50000000  0.50000000
Direct configuration=     5
   0.07710261  0.81773386  0.16562446
   0.92289741  0.18226614  0.83437557
   0.92289741  0.68226614  0.66562443
   0.07710261  0.31773386  0.33437554
   0.92289741  0.31773386  0.33437554
   0.07710261  0.68226614  0.66562443
   0.07710261  0.18226614  0.83437557
   0.92289741  0.81773386  0.16562446
   0.57710259  0.31773386  0.16562446
   0.42289738  0.68226614  0.83437557
   0.42289738  0.18226614  0.66562443
   0.57710259  0.81773386  0.33437554
   0.42289738  0.81773386  0.33437554
   0.57710259  0.18226614  0.66562443
   0.57710259  0.68226614  0.83437557
   0.42289738  0.31773386  0.16562446
   0.81244827  0.58548026  0.93095934
   0.18755173  0.41451974  0.06904066
   0.18755173  0.91451974  0.43095934
   0.81244827  0.08548026  0.56904066
   0.18755173  0.08548026  0.56904066
   0.81244827  0.91451974  0.43095934
   0.81244827  0.41451974  0.06904066
   0.18755173  0.58548026  0.93095934
   0.31244827  0.08548026  0.93095934
   0.68755173  0.91451974  0.06904066
   0.68755173  0.41451974  0.43095934
   0.31244827  0.58548026  0.56904066
   0.68755173  0.58548026  0.56904066
   0.31244827  0.41451974  0.43095934
   0.31244827  0.91451974  0.06904066
   0.68755173  0.08548026  0.93095934
   0.70365811  0.56932528  0.08535613
   0.29634189  0.43067472  0.91464387
   0.29634189  0.93067472  0.58535613
   0.70365811  0.06932528  0.41464387
   0.29634189  0.06932528  0.41464387
   0.70365811  0.93067472  0.58535613
   0.70365811  0.43067472  0.91464387
   0.29634189  0.56932528  0.08535613
   0.20365811  0.06932528  0.08535613
   0.79634189  0.93067472  0.91464387
   0.79634189  0.43067472  0.58535613
   0.20365811  0.56932528  0.41464387
   0.79634189  0.56932528  0.41464387
   0.20365811  0.43067472  0.58535613
   0.20365811  0.93067472  0.91464387
   0.79634189  0.06932528  0.08535613
  -0.00000000  0.62860834  0.14181445
  -0.00000000  0.37139166  0.85818552
  -0.00000000  0.87139166  0.64181448
  -0.00000000  0.12860834  0.35818555
   0.50000000  0.12860834  0.14181445
   0.50000000  0.87139166  0.85818552
   0.50000000  0.37139166  0.64181448
   0.50000000  0.62860834  0.35818555
  -0.00000000  0.27758227  0.51982009
  -0.00000000  0.72241773  0.48017991
  -0.00000000  0.22241773  0.01982009
  -0.00000000  0.77758227  0.98017991
   0.50000000  0.77758227  0.51982009
   0.50000000  0.22241773  0.48017991
   0.50000000  0.72241773  0.01982009
   0.50000000  0.27758227  0.98017991
  -0.00000000  0.26034437  0.38615357
  -0.00000000  0.73965563  0.61384641
  -0.00000000  0.23965563  0.88615359
  -0.00000000  0.76034437  0.11384641
   0.50000000  0.76034437  0.38615357
   0.50000000  0.23965563  0.61384641
   0.50000000  0.73965563  0.88615359
   0.50000000  0.26034437  0.11384641
   0.75802910  0.50000000 -0.00000000
   0.24197090  0.50000000 -0.00000000
   0.24197090  0.00000000  0.50000000
   0.75802910  0.00000000  0.50000000
   0.25802910  0.00000000 -0.00000000
   0.74197090  0.00000000 -0.00000000
   0.74197090  0.50000000  0.50000000
   0.25802910  0.50000000  0.50000000
