diamond                                 
           1
    11.629321    0.000000    0.000000
     0.000000    8.134336    0.000000
     0.000000    0.000000    8.129271
   H    C 
  64  16
Direct configuration=     1
   0.07280000  0.78549999  0.18230000
   0.92720002  0.21450001  0.81770003
   0.92720002  0.71450001  0.68229997
   0.07280000  0.28549999  0.31770000
   0.92720002  0.28549999  0.31770000
   0.07280000  0.71450001  0.68229997
   0.07280000  0.21450001  0.81770003
   0.92720002  0.78549999  0.18230000
   0.57279998  0.28549999  0.18230000
   0.42719999  0.71450001  0.81770003
   0.42719999  0.21450001  0.68229997
   0.57279998  0.78549999  0.31770000
   0.42719999  0.78549999  0.31770000
   0.57279998  0.21450001  0.68229997
   0.57279998  0.71450001  0.81770003
   0.42719999  0.28549999  0.18230000
   0.80100000  0.57950002  0.93360001
   0.19900000  0.42049998  0.06639999
   0.19900000  0.92049998  0.43360001
   0.80100000  0.07950002  0.56639999
   0.19900000  0.07950002  0.56639999
   0.80100000  0.92049998  0.43360001
   0.80100000  0.42049998  0.06639999
   0.19900000  0.57950002  0.93360001
   0.30100000  0.07950002  0.93360001
   0.69900000  0.92049998  0.06639999
   0.69900000  0.42049998  0.43360001
   0.30100000  0.57950002  0.56639999
   0.69900000  0.57950002  0.56639999
   0.30100000  0.42049998  0.43360001
   0.30100000  0.92049998  0.06639999
   0.69900000  0.07950002  0.93360001
   0.69859999  0.56629997  0.07959998
   0.30140001  0.43370003  0.92040002
   0.30140001  0.93370003  0.57959998
   0.69859999  0.06629997  0.42040002
   0.30140001  0.06629997  0.42040002
   0.69859999  0.93370003  0.57959998
   0.69859999  0.43370003  0.92040002
   0.30140001  0.56629997  0.07959998
   0.19859999  0.06629997  0.07959998
   0.80140001  0.93370003  0.92040002
   0.80140001  0.43370003  0.57959998
   0.19859999  0.56629997  0.42040002
   0.80140001  0.56629997  0.42040002
   0.19859999  0.43370003  0.57959998
   0.19859999  0.93370003  0.92040002
   0.80140001  0.06629997  0.07959998
   0.00000000  0.60589999  0.19920000
   0.00000000  0.39410001  0.80079997
   0.00000000  0.89410001  0.69920003
   0.00000000  0.10589999  0.30080000
   0.50000000  0.10589999  0.19920000
   0.50000000  0.89410001  0.80079997
   0.50000000  0.39410001  0.69920003
   0.50000000  0.60589999  0.30080000
   0.00000000  0.74159998  0.78549999
   0.00000000  0.25840002  0.21450001
   0.00000000  0.75840002  0.28549999
   0.00000000  0.24159998  0.71450001
   0.50000000  0.24159998  0.78549999
   0.50000000  0.75840002  0.21450001
   0.50000000  0.25840002  0.28549999
   0.50000000  0.74159998  0.71450001
   0.00000000  0.72960001  0.23029999
   0.00000000  0.27039999  0.76969999
   0.00000000  0.77039999  0.73030001
   0.00000000  0.22960001  0.26969999
   0.50000000  0.22960001  0.23029999
   0.50000000  0.77039999  0.76969999
   0.50000000  0.27039999  0.73030001
   0.50000000  0.72960001  0.26969999
   0.74980003  0.50000000  0.00000000
   0.25019997  0.50000000  0.00000000
   0.25019997  0.00000000  0.50000000
   0.74980003  0.00000000  0.50000000
   0.24980003  0.00000000  0.00000000
   0.75019997  0.00000000  0.00000000
   0.75019997  0.50000000  0.50000000
   0.24980003  0.50000000  0.50000000
Direct configuration=     2
   0.07943175  0.78923590  0.17087480
   0.92056827  0.21076410  0.82912523
   0.92056827  0.71076410  0.67087477
   0.07943175  0.28923590  0.32912520
   0.92056827  0.28923590  0.32912520
   0.07943175  0.71076410  0.67087477
   0.07943175  0.21076410  0.82912523
   0.92056827  0.78923590  0.17087480
   0.57943173  0.28923590  0.17087480
   0.42056824  0.71076410  0.82912523
   0.42056824  0.21076410  0.67087477
   0.57943173  0.78923590  0.32912520
   0.42056824  0.78923590  0.32912520
   0.57943173  0.21076410  0.67087477
   0.57943173  0.71076410  0.82912523
   0.42056824  0.28923590  0.17087480
   0.80701567  0.58883537  0.92589113
   0.19298433  0.41116463  0.07410887
   0.19298433  0.91116463  0.42589113
   0.80701567  0.08883537  0.57410887
   0.19298433  0.08883537  0.57410887
   0.80701567  0.91116463  0.42589113
   0.80701567  0.41116463  0.07410887
   0.19298433  0.58883537  0.92589113
   0.30701567  0.08883537  0.92589113
   0.69298433  0.91116463  0.07410887
   0.69298433  0.41116463  0.42589113
   0.30701567  0.58883537  0.57410887
   0.69298433  0.58883537  0.57410887
   0.30701567  0.41116463  0.42589113
   0.30701567  0.91116463  0.07410887
   0.69298433  0.08883537  0.92589113
   0.69259615  0.57407722  0.08886514
   0.30740385  0.42592278  0.91113486
   0.30740385  0.92592278  0.58886514
   0.69259615  0.07407722  0.41113486
   0.30740385  0.07407722  0.41113486
   0.69259615  0.92592278  0.58886514
   0.69259615  0.42592278  0.91113486
   0.30740385  0.57407722  0.08886514
   0.19259615  0.07407722  0.08886514
   0.80740385  0.92592278  0.91113486
   0.80740385  0.42592278  0.58886514
   0.19259615  0.57407722  0.41113486
   0.80740385  0.57407722  0.41113486
   0.19259615  0.42592278  0.58886514
   0.19259615  0.92592278  0.91113486
   0.80740385  0.07407722  0.08886514
  -0.00000000  0.59610439  0.20175485
  -0.00000000  0.40389561  0.79824512
  -0.00000000  0.90389561  0.70175488
  -0.00000000  0.09610439  0.29824515
   0.50000000  0.09610439  0.20175485
   0.50000000  0.90389561  0.79824512
   0.50000000  0.40389561  0.70175488
   0.50000000  0.59610439  0.29824515
  -0.00000000  0.31537032  0.65579032
  -0.00000000  0.68462968 -0.65579032
  -0.00000000  0.18462968  0.15579032
  -0.00000000 -0.18462968 -0.15579032
   0.50000000 -0.18462968  0.65579032
   0.50000000  0.18462968 -0.65579032
   0.50000000  0.68462968  0.15579032
   0.50000000  0.31537032 -0.15579032
  -0.00000000  0.30568453 -0.61971419
  -0.00000000  0.69431547  0.61971417
  -0.00000000  0.19431547 -0.11971417
  -0.00000000 -0.19431547  0.11971417
   0.50000000 -0.19431547 -0.61971419
   0.50000000  0.19431547  0.61971417
   0.50000000  0.69431547 -0.11971417
   0.50000000  0.30568453  0.11971417
   0.74979739  0.50000000  0.00000000
   0.25020261  0.50000000  0.00000000
   0.25020261  0.00000000  0.50000000
   0.74979739  0.00000000  0.50000000
   0.24979739  0.00000000  0.00000000
   0.75020261  0.00000000  0.00000000
   0.75020261  0.50000000  0.50000000
   0.24979739  0.50000000  0.50000000
