methane                                 
           1
    11.629321    0.000000    0.000000
     0.000000    8.134336    0.000000
     0.000000    0.000000    8.129271
   H    C 
  64  16
Direct configuration=     1
   0.07710261  0.81773386  0.16562446
   0.92289741  0.18226614  0.83437557
   0.92289741  0.68226614  0.66562443
   0.07710261  0.31773386  0.33437554
   0.92289741  0.31773386  0.33437554
   0.07710261  0.68226614  0.66562443
   0.07710261  0.18226614  0.83437557
   0.92289741  0.81773386  0.16562446
   0.57710259  0.31773386  0.16562446
   0.42289738  0.68226614  0.83437557
   0.42289738  0.18226614  0.66562443
   0.57710259  0.81773386  0.33437554
   0.42289738  0.81773386  0.33437554
   0.57710259  0.18226614  0.66562443
   0.57710259  0.68226614  0.83437557
   0.42289738  0.31773386  0.16562446
   0.81244827  0.58548026  0.93095934
   0.18755173  0.41451974  0.06904066
   0.18755173  0.91451974  0.43095934
   0.81244827  0.08548026  0.56904066
   0.18755173  0.08548026  0.56904066
   0.81244827  0.91451974  0.43095934
   0.81244827  0.41451974  0.06904066
   0.18755173  0.58548026  0.93095934
   0.31244827  0.08548026  0.93095934
   0.68755173  0.91451974  0.06904066
   0.68755173  0.41451974  0.43095934
   0.31244827  0.58548026  0.56904066
   0.68755173  0.58548026  0.56904066
   0.31244827  0.41451974  0.43095934
   0.31244827  0.91451974  0.06904066
   0.68755173  0.08548026  0.93095934
   0.70365811  0.56932528  0.08535613
   0.29634189  0.43067472  0.91464387
   0.29634189  0.93067472  0.58535613
   0.70365811  0.06932528  0.41464387
   0.29634189  0.06932528  0.41464387
   0.70365811  0.93067472  0.58535613
   0.70365811  0.43067472  0.91464387
   0.29634189  0.56932528  0.08535613
   0.20365811  0.06932528  0.08535613
   0.79634189  0.93067472  0.91464387
   0.79634189  0.43067472  0.58535613
   0.20365811  0.56932528  0.41464387
   0.79634189  0.56932528  0.41464387
   0.20365811  0.43067472  0.58535613
   0.20365811  0.93067472  0.91464387
   0.79634189  0.06932528  0.08535613
   0.00000000  0.62860834  0.14181445
   0.00000000  0.37139166  0.85818552
   0.00000000  0.87139166  0.64181448
   0.00000000  0.12860834  0.35818555
   0.50000000  0.12860834  0.14181445
   0.50000000  0.87139166  0.85818552
   0.50000000  0.37139166  0.64181448
   0.50000000  0.62860834  0.35818555
   0.00000000  0.27758227  0.51982009
   0.00000000  0.72241773  0.48017991
   0.00000000  0.22241773  0.01982009
   0.00000000  0.77758227  0.98017991
   0.50000000  0.77758227  0.51982009
   0.50000000  0.22241773  0.48017991
   0.50000000  0.72241773  0.01982009
   0.50000000  0.27758227  0.98017991
   0.00000000  0.26034437  0.38615357
   0.00000000  0.73965563  0.61384641
   0.00000000  0.23965563  0.88615359
   0.00000000  0.76034437  0.11384641
   0.50000000  0.76034437  0.38615357
   0.50000000  0.23965563  0.61384641
   0.50000000  0.73965563  0.88615359
   0.50000000  0.26034437  0.11384641
   0.75802910  0.50000000  0.00000000
   0.24197090  0.50000000  0.00000000
   0.24197090  0.00000000  0.50000000
   0.75802910  0.00000000  0.50000000
   0.25802910  0.00000000  0.00000000
   0.74197090  0.00000000  0.00000000
   0.74197090  0.50000000  0.50000000
   0.25802910  0.50000000  0.50000000
Direct configuration=     2
   0.07708626  0.81771248  0.16573586
   0.92291376  0.18228752  0.83426417
   0.92291376  0.68228752  0.66573583
   0.07708626  0.31771248  0.33426414
   0.92291376  0.31771248  0.33426414
   0.07708626  0.68228752  0.66573583
   0.07708626  0.18228752  0.83426417
   0.92291376  0.81771248  0.16573586
   0.57708624  0.31771248  0.16573586
   0.42291373  0.68228752  0.83426417
   0.42291373  0.18228752  0.66573583
   0.57708624  0.81771248  0.33426414
   0.42291373  0.81771248  0.33426414
   0.57708624  0.18228752  0.66573583
   0.57708624  0.68228752  0.83426417
   0.42291373  0.31771248  0.16573586
   0.81246590  0.58548495  0.93095712
   0.18753410  0.41451505  0.06904288
   0.18753410  0.91451505  0.43095712
   0.81246590  0.08548495  0.56904288
   0.18753410  0.08548495  0.56904288
   0.81246590  0.91451505  0.43095712
   0.81246590  0.41451505  0.06904288
   0.18753410  0.58548495  0.93095712
   0.31246590  0.08548495  0.93095712
   0.68753410  0.91451505  0.06904288
   0.68753410  0.41451505  0.43095712
   0.31246590  0.58548495  0.56904288
   0.68753410  0.58548495  0.56904288
   0.31246590  0.41451505  0.43095712
   0.31246590  0.91451505  0.06904288
   0.68753410  0.08548495  0.93095712
   0.70366776  0.56933169  0.08535895
   0.29633224  0.43066831  0.91464105
   0.29633224  0.93066831  0.58535895
   0.70366776  0.06933169  0.41464105
   0.29633224  0.06933169  0.41464105
   0.70366776  0.93066831  0.58535895
   0.70366776  0.43066831  0.91464105
   0.29633224  0.56933169  0.08535895
   0.20366776  0.06933169  0.08535895
   0.79633224  0.93066831  0.91464105
   0.79633224  0.43066831  0.58535895
   0.20366776  0.56933169  0.41464105
   0.79633224  0.56933169  0.41464105
   0.20366776  0.43066831  0.58535895
   0.20366776  0.93066831  0.91464105
   0.79633224  0.06933169  0.08535895
  -0.00000000  0.62862240  0.14188767
  -0.00000000  0.37137760  0.85811230
  -0.00000000  0.87137760  0.64188770
  -0.00000000  0.12862240  0.35811233
   0.50000000  0.12862240  0.14188767
   0.50000000  0.87137760  0.85811230
   0.50000000  0.37137760  0.64188770
   0.50000000  0.62862240  0.35811233
  -0.00000000  0.27758173  0.51980307
  -0.00000000  0.72241827  0.48019693
  -0.00000000  0.22241827  0.01980307
  -0.00000000  0.77758173  0.98019693
   0.50000000  0.77758173  0.51980307
   0.50000000  0.22241827  0.48019693
   0.50000000  0.72241827  0.01980307
   0.50000000  0.27758173  0.98019693
  -0.00000000  0.26025921  0.38597339
  -0.00000000  0.73974079  0.61402659
  -0.00000000  0.23974079  0.88597341
  -0.00000000  0.76025921  0.11402659
   0.50000000  0.76025921  0.38597339
   0.50000000  0.23974079  0.61402659
   0.50000000  0.73974079  0.88597341
   0.50000000  0.26025921  0.11402659
   0.75804697  0.50000000  0.00000000
   0.24195303  0.50000000  0.00000000
   0.24195303 -0.00000000  0.50000000
   0.75804697  0.00000000  0.50000000
   0.25804697  0.00000000  0.00000000
   0.74195303  0.00000000  0.00000000
   0.74195303  0.50000000  0.50000000
   0.25804697  0.50000000  0.50000000
Direct configuration=     3
   0.07708574  0.81771180  0.16573940
   0.92291428  0.18228820  0.83426063
   0.92291428  0.68228820  0.66573937
   0.07708574  0.31771180  0.33426060
   0.92291428  0.31771180  0.33426060
   0.07708574  0.68228820  0.66573937
   0.07708574  0.18228820  0.83426063
   0.92291428  0.81771180  0.16573940
   0.57708572  0.31771180  0.16573940
   0.42291425  0.68228820  0.83426063
   0.42291425  0.18228820  0.66573937
   0.57708572  0.81771180  0.33426060
   0.42291425  0.81771180  0.33426060
   0.57708572  0.18228820  0.66573937
   0.57708572  0.68228820  0.83426063
   0.42291425  0.31771180  0.16573940
   0.81246646  0.58548510  0.93095705
   0.18753354  0.41451490  0.06904295
   0.18753354  0.91451490  0.43095705
   0.81246646  0.08548510  0.56904295
   0.18753354  0.08548510  0.56904295
   0.81246646  0.91451490  0.43095705
   0.81246646  0.41451490  0.06904295
   0.18753354  0.58548510  0.93095705
   0.31246646  0.08548510  0.93095705
   0.68753354  0.91451490  0.06904295
   0.68753354  0.41451490  0.43095705
   0.31246646  0.58548510  0.56904295
   0.68753354  0.58548510  0.56904295
   0.31246646  0.41451490  0.43095705
   0.31246646  0.91451490  0.06904295
   0.68753354  0.08548510  0.93095705
   0.70366806  0.56933189  0.08535904
   0.29633194  0.43066811  0.91464096
   0.29633194  0.93066811  0.58535904
   0.70366806  0.06933189  0.41464096
   0.29633194  0.06933189  0.41464096
   0.70366806  0.93066811  0.58535904
   0.70366806  0.43066811  0.91464096
   0.29633194  0.56933189  0.08535904
   0.20366806  0.06933189  0.08535904
   0.79633194  0.93066811  0.91464096
   0.79633194  0.43066811  0.58535904
   0.20366806  0.56933189  0.41464096
   0.79633194  0.56933189  0.41464096
   0.20366806  0.43066811  0.58535904
   0.20366806  0.93066811  0.91464096
   0.79633194  0.06933189  0.08535904
  -0.00000000  0.62862285  0.14189000
  -0.00000000  0.37137715  0.85810997
  -0.00000000  0.87137715  0.64189003
  -0.00000000  0.12862285  0.35811000
   0.50000000  0.12862285  0.14189000
   0.50000000  0.87137715  0.85810997
   0.50000000  0.37137715  0.64189003
   0.50000000  0.62862285  0.35811000
  -0.00000000  0.27758171  0.51980253
  -0.00000000  0.72241829  0.48019747
  -0.00000000  0.22241829  0.01980253
  -0.00000000  0.77758171  0.98019747
   0.50000000  0.77758171  0.51980253
   0.50000000  0.22241829  0.48019747
   0.50000000  0.72241829  0.01980253
   0.50000000  0.27758171  0.98019747
  -0.00000000  0.26025651  0.38596768
  -0.00000000  0.73974349  0.61403231
  -0.00000000  0.23974349  0.88596769
  -0.00000000  0.76025651  0.11403231
   0.50000000  0.76025651  0.38596768
   0.50000000  0.23974349  0.61403231
   0.50000000  0.73974349  0.88596769
   0.50000000  0.26025651  0.11403231
   0.75804754  0.50000000  0.00000000
   0.24195246  0.50000000  0.00000000
   0.24195246 -0.00000000  0.50000000
   0.75804754  0.00000000  0.50000000
   0.25804754  0.00000000  0.00000000
   0.74195246  0.00000000  0.00000000
   0.74195246  0.50000000  0.50000000
   0.25804754  0.50000000  0.50000000
