diamond                                 
           1
    11.629321    0.000000    0.000000
     0.000000    8.134336    0.000000
     0.000000    0.000000    8.129271
   H    C 
  64  16
Direct configuration=     1
   0.07280000  0.78549999  0.18230000
   0.92720002  0.21450001  0.81770003
   0.92720002  0.71450001  0.68229997
   0.07280000  0.28549999  0.31770000
   0.92720002  0.28549999  0.31770000
   0.07280000  0.71450001  0.68229997
   0.07280000  0.21450001  0.81770003
   0.92720002  0.78549999  0.18230000
   0.57279998  0.28549999  0.18230000
   0.42719999  0.71450001  0.81770003
   0.42719999  0.21450001  0.68229997
   0.57279998  0.78549999  0.31770000
   0.42719999  0.78549999  0.31770000
   0.57279998  0.21450001  0.68229997
   0.57279998  0.71450001  0.81770003
   0.42719999  0.28549999  0.18230000
   0.80100000  0.57950002  0.93360001
   0.19900000  0.42049998  0.06639999
   0.19900000  0.92049998  0.43360001
   0.80100000  0.07950002  0.56639999
   0.19900000  0.07950002  0.56639999
   0.80100000  0.92049998  0.43360001
   0.80100000  0.42049998  0.06639999
   0.19900000  0.57950002  0.93360001
   0.30100000  0.07950002  0.93360001
   0.69900000  0.92049998  0.06639999
   0.69900000  0.42049998  0.43360001
   0.30100000  0.57950002  0.56639999
   0.69900000  0.57950002  0.56639999
   0.30100000  0.42049998  0.43360001
   0.30100000  0.92049998  0.06639999
   0.69900000  0.07950002  0.93360001
   0.69859999  0.56629997  0.07959998
   0.30140001  0.43370003  0.92040002
   0.30140001  0.93370003  0.57959998
   0.69859999  0.06629997  0.42040002
   0.30140001  0.06629997  0.42040002
   0.69859999  0.93370003  0.57959998
   0.69859999  0.43370003  0.92040002
   0.30140001  0.56629997  0.07959998
   0.19859999  0.06629997  0.07959998
   0.80140001  0.93370003  0.92040002
   0.80140001  0.43370003  0.57959998
   0.19859999  0.56629997  0.42040002
   0.80140001  0.56629997  0.42040002
   0.19859999  0.43370003  0.57959998
   0.19859999  0.93370003  0.92040002
   0.80140001  0.06629997  0.07959998
   0.00000000  0.60589999  0.19920000
   0.00000000  0.39410001  0.80079997
   0.00000000  0.89410001  0.69920003
   0.00000000  0.10589999  0.30080000
   0.50000000  0.10589999  0.19920000
   0.50000000  0.89410001  0.80079997
   0.50000000  0.39410001  0.69920003
   0.50000000  0.60589999  0.30080000
   0.00000000  0.74159998  0.78549999
   0.00000000  0.25840002  0.21450001
   0.00000000  0.75840002  0.28549999
   0.00000000  0.24159998  0.71450001
   0.50000000  0.24159998  0.78549999
   0.50000000  0.75840002  0.21450001
   0.50000000  0.25840002  0.28549999
   0.50000000  0.74159998  0.71450001
   0.00000000  0.72960001  0.23029999
   0.00000000  0.27039999  0.76969999
   0.00000000  0.77039999  0.73030001
   0.00000000  0.22960001  0.26969999
   0.50000000  0.22960001  0.23029999
   0.50000000  0.77039999  0.76969999
   0.50000000  0.27039999  0.73030001
   0.50000000  0.72960001  0.26969999
   0.74980003  0.50000000  0.00000000
   0.25019997  0.50000000  0.00000000
   0.25019997  0.00000000  0.50000000
   0.74980003  0.00000000  0.50000000
   0.24980003  0.00000000  0.00000000
   0.75019997  0.00000000  0.00000000
   0.75019997  0.50000000  0.50000000
   0.24980003  0.50000000  0.50000000
Direct configuration=     2
   0.07943175  0.78923590  0.17087480
   0.92056827  0.21076410  0.82912523
   0.92056827  0.71076410  0.67087477
   0.07943175  0.28923590  0.32912520
   0.92056827  0.28923590  0.32912520
   0.07943175  0.71076410  0.67087477
   0.07943175  0.21076410  0.82912523
   0.92056827  0.78923590  0.17087480
   0.57943173  0.28923590  0.17087480
   0.42056824  0.71076410  0.82912523
   0.42056824  0.21076410  0.67087477
   0.57943173  0.78923590  0.32912520
   0.42056824  0.78923590  0.32912520
   0.57943173  0.21076410  0.67087477
   0.57943173  0.71076410  0.82912523
   0.42056824  0.28923590  0.17087480
   0.80701567  0.58883537  0.92589113
   0.19298433  0.41116463  0.07410887
   0.19298433  0.91116463  0.42589113
   0.80701567  0.08883537  0.57410887
   0.19298433  0.08883537  0.57410887
   0.80701567  0.91116463  0.42589113
   0.80701567  0.41116463  0.07410887
   0.19298433  0.58883537  0.92589113
   0.30701567  0.08883537  0.92589113
   0.69298433  0.91116463  0.07410887
   0.69298433  0.41116463  0.42589113
   0.30701567  0.58883537  0.57410887
   0.69298433  0.58883537  0.57410887
   0.30701567  0.41116463  0.42589113
   0.30701567  0.91116463  0.07410887
   0.69298433  0.08883537  0.92589113
   0.69259615  0.57407722  0.08886514
   0.30740385  0.42592278  0.91113486
   0.30740385  0.92592278  0.58886514
   0.69259615  0.07407722  0.41113486
   0.30740385  0.07407722  0.41113486
   0.69259615  0.92592278  0.58886514
   0.69259615  0.42592278  0.91113486
   0.30740385  0.57407722  0.08886514
   0.19259615  0.07407722  0.08886514
   0.80740385  0.92592278  0.91113486
   0.80740385  0.42592278  0.58886514
   0.19259615  0.57407722  0.41113486
   0.80740385  0.57407722  0.41113486
   0.19259615  0.42592278  0.58886514
   0.19259615  0.92592278  0.91113486
   0.80740385  0.07407722  0.08886514
   0.00000000  0.59610439  0.20175485
   0.00000000  0.40389561  0.79824512
   0.00000000  0.90389561  0.70175488
   0.00000000  0.09610439  0.29824515
   0.50000000  0.09610439  0.20175485
   0.50000000  0.90389561  0.79824512
   0.50000000  0.40389561  0.70175488
   0.50000000  0.59610439  0.29824515
   0.00000000  0.31537032  0.65579032
   0.00000000  0.68462968 -0.65579032
   0.00000000  0.18462968  0.15579032
   0.00000000 -0.18462968 -0.15579032
   0.50000000 -0.18462968  0.65579032
   0.50000000  0.18462968 -0.65579032
   0.50000000  0.68462968  0.15579032
   0.50000000  0.31537032 -0.15579032
   0.00000000  0.30568453 -0.61971419
   0.00000000  0.69431547  0.61971417
   0.00000000  0.19431547 -0.11971417
   0.00000000 -0.19431547  0.11971417
   0.50000000 -0.19431547 -0.61971419
   0.50000000  0.19431547  0.61971417
   0.50000000  0.69431547 -0.11971417
   0.50000000  0.30568453  0.11971417
   0.74979739  0.50000000 -0.00000000
   0.25020261  0.50000000 -0.00000000
   0.25020261  0.00000000  0.50000000
   0.74979739  0.00000000  0.50000000
   0.24979739  0.00000000 -0.00000000
   0.75020261  0.00000000 -0.00000000
   0.75020261  0.50000000  0.50000000
   0.24979739  0.50000000  0.50000000
Direct configuration=     3
   0.07939309  0.78921412  0.17094140
   0.92060693  0.21078588  0.82905862
   0.92060693  0.71078588  0.67094138
   0.07939309  0.28921412  0.32905860
   0.92060693  0.28921412  0.32905860
   0.07939309  0.71078588  0.67094138
   0.07939309  0.21078588  0.82905862
   0.92060693  0.78921412  0.17094140
   0.57939307  0.28921412  0.17094140
   0.42060690  0.71078588  0.82905862
   0.42060690  0.21078588  0.67094138
   0.57939307  0.78921412  0.32905860
   0.42060690  0.78921412  0.32905860
   0.57939307  0.21078588  0.67094138
   0.57939307  0.71078588  0.82905862
   0.42060690  0.28921412  0.17094140
   0.80698060  0.58878095  0.92593607
   0.19301940  0.41121905  0.07406393
   0.19301940  0.91121905  0.42593607
   0.80698060  0.08878095  0.57406393
   0.19301940  0.08878095  0.57406393
   0.80698060  0.91121905  0.42593607
   0.80698060  0.41121905  0.07406393
   0.19301940  0.58878095  0.92593607
   0.30698060  0.08878095  0.92593607
   0.69301940  0.91121905  0.07406393
   0.69301940  0.41121905  0.42593607
   0.30698060  0.58878095  0.57406393
   0.69301940  0.58878095  0.57406393
   0.30698060  0.41121905  0.42593607
   0.30698060  0.91121905  0.07406393
   0.69301940  0.08878095  0.92593607
   0.69263115  0.57403188  0.08881112
   0.30736885  0.42596812  0.91118888
   0.30736885  0.92596812  0.58881112
   0.69263115  0.07403188  0.41118888
   0.30736885  0.07403188  0.41118888
   0.69263115  0.92596812  0.58881112
   0.69263115  0.42596812  0.91118888
   0.30736885  0.57403188  0.08881112
   0.19263115  0.07403188  0.08881112
   0.80736885  0.92596812  0.91118888
   0.80736885  0.42596812  0.58881112
   0.19263115  0.57403188  0.41118888
   0.80736885  0.57403188  0.41118888
   0.19263115  0.42596812  0.58881112
   0.19263115  0.92596812  0.91118888
   0.80736885  0.07403188  0.08881112
   0.00000000  0.59616150  0.20173996
   0.00000000  0.40383850  0.79826001
   0.00000000  0.90383850  0.70173999
   0.00000000  0.09616150  0.29826004
   0.50000000  0.09616150  0.20173996
   0.50000000  0.90383850  0.79826001
   0.50000000  0.40383850  0.70173999
   0.50000000  0.59616150  0.29826004
   0.00000000  0.31785515  0.65071670
   0.00000000  0.68214485 -0.65071670
   0.00000000  0.18214485  0.15071670
   0.00000000 -0.18214485 -0.15071670
   0.50000000 -0.18214485  0.65071670
   0.50000000  0.18214485 -0.65071670
   0.50000000  0.68214485  0.15071670
   0.50000000  0.31785515 -0.15071670
   0.00000000  0.30815587 -0.61475878
   0.00000000  0.69184413  0.61475876
   0.00000000  0.19184413 -0.11475876
   0.00000000 -0.19184413  0.11475876
   0.50000000 -0.19184413 -0.61475878
   0.50000000  0.19184413  0.61475876
   0.50000000  0.69184413 -0.11475876
   0.50000000  0.30815587  0.11475876
   0.74979741  0.50000000 -0.00000000
   0.25020259  0.50000000 -0.00000000
   0.25020259  0.00000000  0.50000000
   0.74979741  0.00000000  0.50000000
   0.24979741  0.00000000 -0.00000000
   0.75020259  0.00000000 -0.00000000
   0.75020259  0.50000000  0.50000000
   0.24979741  0.50000000  0.50000000
Direct configuration=     4
   0.07934907  0.78918932  0.17101725
   0.92065095  0.21081068  0.82898278
   0.92065095  0.71081068  0.67101722
   0.07934907  0.28918932  0.32898275
   0.92065095  0.28918932  0.32898275
   0.07934907  0.71081068  0.67101722
   0.07934907  0.21081068  0.82898278
   0.92065095  0.78918932  0.17101725
   0.57934905  0.28918932  0.17101725
   0.42065092  0.71081068  0.82898278
   0.42065092  0.21081068  0.67101722
   0.57934905  0.78918932  0.32898275
   0.42065092  0.78918932  0.32898275
   0.57934905  0.21081068  0.67101722
   0.57934905  0.71081068  0.82898278
   0.42065092  0.28918932  0.17101725
   0.80694067  0.58871898  0.92598724
   0.19305933  0.41128102  0.07401276
   0.19305933  0.91128102  0.42598724
   0.80694067  0.08871898  0.57401276
   0.19305933  0.08871898  0.57401276
   0.80694067  0.91128102  0.42598724
   0.80694067  0.41128102  0.07401276
   0.19305933  0.58871898  0.92598724
   0.30694067  0.08871898  0.92598724
   0.69305933  0.91128102  0.07401276
   0.69305933  0.41128102  0.42598724
   0.30694067  0.58871898  0.57401276
   0.69305933  0.58871898  0.57401276
   0.30694067  0.41128102  0.42598724
   0.30694067  0.91128102  0.07401276
   0.69305933  0.08871898  0.92598724
   0.69267100  0.57398025  0.08874962
   0.30732900  0.42601975  0.91125038
   0.30732900  0.92601975  0.58874962
   0.69267100  0.07398025  0.41125038
   0.30732900  0.07398025  0.41125038
   0.69267100  0.92601975  0.58874962
   0.69267100  0.42601975  0.91125038
   0.30732900  0.57398025  0.08874962
   0.19267100  0.07398025  0.08874962
   0.80732900  0.92601975  0.91125038
   0.80732900  0.42601975  0.58874962
   0.19267100  0.57398025  0.41125038
   0.80732900  0.57398025  0.41125038
   0.19267100  0.42601975  0.58874962
   0.19267100  0.92601975  0.91125038
   0.80732900  0.07398025  0.08874962
   0.00000000  0.59622652  0.20172300
   0.00000000  0.40377348  0.79827697
   0.00000000  0.90377348  0.70172303
   0.00000000  0.09622652  0.29827700
   0.50000000  0.09622652  0.20172300
   0.50000000  0.90377348  0.79827697
   0.50000000  0.40377348  0.70172303
   0.50000000  0.59622652  0.29827700
   0.00000000  0.32068451  0.64493962
   0.00000000  0.67931549 -0.64493962
   0.00000000  0.17931549  0.14493962
   0.00000000 -0.17931549 -0.14493962
   0.50000000 -0.17931549  0.64493962
   0.50000000  0.17931549 -0.64493962
   0.50000000  0.67931549  0.14493962
   0.50000000  0.32068451 -0.14493962
   0.00000000  0.31096987 -0.60911629
   0.00000000  0.68903013  0.60911627
   0.00000000  0.18903013 -0.10911627
   0.00000000 -0.18903013  0.10911627
   0.50000000 -0.18903013 -0.60911629
   0.50000000  0.18903013  0.60911627
   0.50000000  0.68903013 -0.10911627
   0.50000000  0.31096987  0.10911627
   0.74979743  0.50000000 -0.00000000
   0.25020257  0.50000000 -0.00000000
   0.25020257  0.00000000  0.50000000
   0.74979743  0.00000000  0.50000000
   0.24979743  0.00000000 -0.00000000
   0.75020257  0.00000000 -0.00000000
   0.75020257  0.50000000  0.50000000
   0.24979743  0.50000000  0.50000000
Direct configuration=     5
   0.07817079  0.78852555  0.17304720
   0.92182924  0.21147445  0.82695283
   0.92182924  0.71147445  0.67304717
   0.07817079  0.28852555  0.32695280
   0.92182924  0.28852555  0.32695280
   0.07817079  0.71147445  0.67304717
   0.07817079  0.21147445  0.82695283
   0.92182924  0.78852555  0.17304720
   0.57817076  0.28852555  0.17304720
   0.42182921  0.71147445  0.82695283
   0.42182921  0.21147445  0.67304717
   0.57817076  0.78852555  0.32695280
   0.42182921  0.78852555  0.32695280
   0.57817076  0.21147445  0.67304717
   0.57817076  0.71147445  0.82695283
   0.42182921  0.28852555  0.17304720
   0.80587184  0.58706034  0.92735690
   0.19412816  0.41293966  0.07264310
   0.19412816  0.91293966  0.42735690
   0.80587184  0.08706034  0.57264310
   0.19412816  0.08706034  0.57264310
   0.80587184  0.91293966  0.42735690
   0.80587184  0.41293966  0.07264310
   0.19412816  0.58706034  0.92735690
   0.30587184  0.08706034  0.92735690
   0.69412816  0.91293966  0.07264310
   0.69412816  0.41293966  0.42735690
   0.30587184  0.58706034  0.57264310
   0.69412816  0.58706034  0.57264310
   0.30587184  0.41293966  0.42735690
   0.30587184  0.91293966  0.07264310
   0.69412816  0.08706034  0.92735690
   0.69373772  0.57259844  0.08710345
   0.30626228  0.42740156  0.91289655
   0.30626228  0.92740156  0.58710345
   0.69373772  0.07259844  0.41289655
   0.30626228  0.07259844  0.41289655
   0.69373772  0.92740156  0.58710345
   0.69373772  0.42740156  0.91289655
   0.30626228  0.57259844  0.08710345
   0.19373772  0.07259844  0.08710345
   0.80626228  0.92740156  0.91289655
   0.80626228  0.42740156  0.58710345
   0.19373772  0.57259844  0.41289655
   0.80626228  0.57259844  0.41289655
   0.19373772  0.42740156  0.58710345
   0.19373772  0.92740156  0.91289655
   0.80626228  0.07259844  0.08710345
   0.00000000  0.59796694  0.20126907
   0.00000000  0.40203306  0.79873090
   0.00000000  0.90203306  0.70126910
   0.00000000  0.09796694  0.29873093
   0.50000000  0.09796694  0.20126907
   0.50000000  0.90203306  0.79873090
   0.50000000  0.40203306  0.70126910
   0.50000000  0.59796694  0.29873093
   0.00000000  0.39641408  0.49031240
   0.00000000  0.60358592 -0.49031240
   0.00000000  0.10358592 -0.00968760
   0.00000000 -0.10358592  0.00968760
   0.50000000 -0.10358592  0.49031240
   0.50000000  0.10358592 -0.49031240
   0.50000000  0.60358592 -0.00968760
   0.50000000  0.39641408  0.00968760
   0.00000000  0.38628827 -0.45809160
   0.00000000  0.61371173  0.45809158
   0.00000000  0.11371173  0.04190842
   0.00000000 -0.11371173 -0.04190842
   0.50000000 -0.11371173 -0.45809160
   0.50000000  0.11371173  0.45809158
   0.50000000  0.61371173  0.04190842
   0.50000000  0.38628827 -0.04190842
   0.74979789  0.50000000 -0.00000000
   0.25020211  0.50000000 -0.00000000
   0.25020211  0.00000000  0.50000000
   0.74979789  0.00000000  0.50000000
   0.24979789  0.00000000 -0.00000000
   0.75020211  0.00000000 -0.00000000
   0.75020211  0.50000000  0.50000000
   0.24979789  0.50000000  0.50000000
Direct configuration=     6
   0.07548539  0.78701277  0.17767360
   0.92451463  0.21298723  0.82232643
   0.92451463  0.71298723  0.67767357
   0.07548539  0.28701277  0.32232640
   0.92451463  0.28701277  0.32232640
   0.07548539  0.71298723  0.67767357
   0.07548539  0.21298723  0.82232643
   0.92451463  0.78701277  0.17767360
   0.57548537  0.28701277  0.17767360
   0.42451460  0.71298723  0.82232643
   0.42451460  0.21298723  0.67767357
   0.57548537  0.78701277  0.32232640
   0.42451460  0.78701277  0.32232640
   0.57548537  0.21298723  0.67767357
   0.57548537  0.71298723  0.82232643
   0.42451460  0.28701277  0.17767360
   0.80343592  0.58328018  0.93047846
   0.19656408  0.41671982  0.06952154
   0.19656408  0.91671982  0.43047846
   0.80343592  0.08328018  0.56952154
   0.19656408  0.08328018  0.56952154
   0.80343592  0.91671982  0.43047846
   0.80343592  0.41671982  0.06952154
   0.19656408  0.58328018  0.93047846
   0.30343592  0.08328018  0.93047846
   0.69656408  0.91671982  0.06952154
   0.69656408  0.41671982  0.43047846
   0.30343592  0.58328018  0.56952154
   0.69656408  0.58328018  0.56952154
   0.30343592  0.41671982  0.43047846
   0.30343592  0.91671982  0.06952154
   0.69656408  0.08328018  0.93047846
   0.69616886  0.56944921  0.08335171
   0.30383114  0.43055079  0.91664829
   0.30383114  0.93055079  0.58335171
   0.69616886  0.06944921  0.41664829
   0.30383114  0.06944921  0.41664829
   0.69616886  0.93055079  0.58335171
   0.69616886  0.43055079  0.91664829
   0.30383114  0.56944921  0.08335171
   0.19616886  0.06944921  0.08335171
   0.80383114  0.93055079  0.91664829
   0.80383114  0.43055079  0.58335171
   0.19616886  0.56944921  0.41664829
   0.80383114  0.56944921  0.41664829
   0.19616886  0.43055079  0.58335171
   0.19616886  0.93055079  0.91664829
   0.80383114  0.06944921  0.08335171
   0.00000000  0.60193346  0.20023454
   0.00000000  0.39806654  0.79976543
   0.00000000  0.89806654  0.70023457
   0.00000000  0.10193346  0.29976546
   0.50000000  0.10193346  0.20023454
   0.50000000  0.89806654  0.79976543
   0.50000000  0.39806654  0.70023457
   0.50000000  0.60193346  0.29976546
   0.00000000  0.56900703  0.13790619
   0.00000000  0.43099297 -0.13790619
   0.00000000 -0.06900703 -0.36209381
   0.00000000  0.06900703  0.36209381
   0.50000000  0.06900703  0.13790619
   0.50000000 -0.06900703 -0.13790619
   0.50000000  0.43099297 -0.36209381
   0.50000000  0.56900703  0.36209381
   0.00000000  0.55794414 -0.11389580
   0.00000000  0.44205586  0.11389579
   0.00000000 -0.05794414  0.38610421
   0.00000000  0.05794414 -0.38610421
   0.50000000  0.05794414 -0.11389580
   0.50000000 -0.05794414  0.11389579
   0.50000000  0.44205586  0.38610421
   0.50000000  0.55794414 -0.38610421
   0.74979896  0.50000000 -0.00000000
   0.25020104  0.50000000 -0.00000000
   0.25020104  0.00000000  0.50000000
   0.74979896  0.00000000  0.50000000
   0.24979896  0.00000000 -0.00000000
   0.75020104  0.00000000 -0.00000000
   0.75020104  0.50000000  0.50000000
   0.24979896  0.50000000  0.50000000
Direct configuration=     7
   0.07536303  0.78694384  0.17788441
   0.92463699  0.21305616  0.82211562
   0.92463699  0.71305616  0.67788438
   0.07536303  0.28694384  0.32211559
   0.92463699  0.28694384  0.32211559
   0.07536303  0.71305616  0.67788438
   0.07536303  0.21305616  0.82211562
   0.92463699  0.78694384  0.17788441
   0.57536301  0.28694384  0.17788441
   0.42463696  0.71305616  0.82211562
   0.42463696  0.21305616  0.67788438
   0.57536301  0.78694384  0.32211559
   0.42463696  0.78694384  0.32211559
   0.57536301  0.21305616  0.67788438
   0.57536301  0.71305616  0.82211562
   0.42463696  0.28694384  0.17788441
   0.80332492  0.58310793  0.93062070
   0.19667508  0.41689207  0.06937930
   0.19667508  0.91689207  0.43062070
   0.80332492  0.08310793  0.56937930
   0.19667508  0.08310793  0.56937930
   0.80332492  0.91689207  0.43062070
   0.80332492  0.41689207  0.06937930
   0.19667508  0.58310793  0.93062070
   0.30332492  0.08310793  0.93062070
   0.69667508  0.91689207  0.06937930
   0.69667508  0.41689207  0.43062070
   0.30332492  0.58310793  0.56937930
   0.69667508  0.58310793  0.56937930
   0.30332492  0.41689207  0.43062070
   0.30332492  0.91689207  0.06937930
   0.69667508  0.08310793  0.93062070
   0.69627964  0.56930571  0.08318076
   0.30372036  0.43069429  0.91681924
   0.30372036  0.93069429  0.58318076
   0.69627964  0.06930571  0.41681924
   0.30372036  0.06930571  0.41681924
   0.69627964  0.93069429  0.58318076
   0.69627964  0.43069429  0.91681924
   0.30372036  0.56930571  0.08318076
   0.19627964  0.06930571  0.08318076
   0.80372036  0.93069429  0.91681924
   0.80372036  0.43069429  0.58318076
   0.19627964  0.56930571  0.41681924
   0.80372036  0.56930571  0.41681924
   0.19627964  0.43069429  0.58318076
   0.19627964  0.93069429  0.91681924
   0.80372036  0.06930571  0.08318076
   0.00000000  0.60211421  0.20018740
   0.00000000  0.39788579  0.79981257
   0.00000000  0.89788579  0.70018743
   0.00000000  0.10211421  0.29981260
   0.50000000  0.10211421  0.20018740
   0.50000000  0.89788579  0.79981257
   0.50000000  0.39788579  0.70018743
   0.50000000  0.60211421  0.29981260
   0.00000000  0.57687160  0.12184804
   0.00000000  0.42312840 -0.12184804
   0.00000000 -0.07687160 -0.37815196
   0.00000000  0.07687160  0.37815196
   0.50000000  0.07687160  0.12184804
   0.50000000 -0.07687160 -0.12184804
   0.50000000  0.42312840 -0.37815196
   0.50000000  0.57687160  0.37815196
   0.00000000  0.56576601 -0.09821177
   0.00000000  0.43423399  0.09821176
   0.00000000 -0.06576601  0.40178824
   0.00000000  0.06576601 -0.40178824
   0.50000000  0.06576601 -0.09821177
   0.50000000 -0.06576601  0.09821176
   0.50000000  0.43423399  0.40178824
   0.50000000  0.56576601 -0.40178824
   0.74979901  0.50000000 -0.00000000
   0.25020099  0.50000000 -0.00000000
   0.25020099  0.00000000  0.50000000
   0.74979901  0.00000000  0.50000000
   0.24979901  0.00000000 -0.00000000
   0.75020099  0.00000000 -0.00000000
   0.75020099  0.50000000  0.50000000
   0.24979901  0.50000000  0.50000000
Direct configuration=     8
   0.07524061  0.78687487  0.17809532
   0.92475941  0.21312513  0.82190471
   0.92475941  0.71312513  0.67809529
   0.07524061  0.28687487  0.32190468
   0.92475941  0.28687487  0.32190468
   0.07524061  0.71312513  0.67809529
   0.07524061  0.21312513  0.82190471
   0.92475941  0.78687487  0.17809532
   0.57524059  0.28687487  0.17809532
   0.42475938  0.71312513  0.82190471
   0.42475938  0.21312513  0.67809529
   0.57524059  0.78687487  0.32190468
   0.42475938  0.78687487  0.32190468
   0.57524059  0.21312513  0.67809529
   0.57524059  0.71312513  0.82190471
   0.42475938  0.28687487  0.17809532
   0.80321388  0.58293560  0.93076300
   0.19678612  0.41706440  0.06923700
   0.19678612  0.91706440  0.43076300
   0.80321388  0.08293560  0.56923700
   0.19678612  0.08293560  0.56923700
   0.80321388  0.91706440  0.43076300
   0.80321388  0.41706440  0.06923700
   0.19678612  0.58293560  0.93076300
   0.30321388  0.08293560  0.93076300
   0.69678612  0.91706440  0.06923700
   0.69678612  0.41706440  0.43076300
   0.30321388  0.58293560  0.56923700
   0.69678612  0.58293560  0.56923700
   0.30321388  0.41706440  0.43076300
   0.30321388  0.91706440  0.06923700
   0.69678612  0.08293560  0.93076300
   0.69639047  0.56916214  0.08300973
   0.30360953  0.43083786  0.91699027
   0.30360953  0.93083786  0.58300973
   0.69639047  0.06916214  0.41699027
   0.30360953  0.06916214  0.41699027
   0.69639047  0.93083786  0.58300973
   0.69639047  0.43083786  0.91699027
   0.30360953  0.56916214  0.08300973
   0.19639047  0.06916214  0.08300973
   0.80360953  0.93083786  0.91699027
   0.80360953  0.43083786  0.58300973
   0.19639047  0.56916214  0.41699027
   0.80360953  0.56916214  0.41699027
   0.19639047  0.43083786  0.58300973
   0.19639047  0.93083786  0.91699027
   0.80360953  0.06916214  0.08300973
   0.00000000  0.60229503  0.20014023
   0.00000000  0.39770497  0.79985974
   0.00000000  0.89770497  0.70014026
   0.00000000  0.10229503  0.29985977
   0.50000000  0.10229503  0.20014023
   0.50000000  0.89770497  0.79985974
   0.50000000  0.39770497  0.70014026
   0.50000000  0.60229503  0.29985977
   0.00000000  0.58473967  0.10578275
   0.00000000  0.41526033 -0.10578275
   0.00000000 -0.08473967 -0.39421725
   0.00000000  0.08473967  0.39421725
   0.50000000  0.08473967  0.10578275
   0.50000000 -0.08473967 -0.10578275
   0.50000000  0.41526033 -0.39421725
   0.50000000  0.58473967  0.39421725
   0.00000000  0.57359136 -0.08252077
   0.00000000  0.42640864  0.08252075
   0.00000000 -0.07359136  0.41747925
   0.00000000  0.07359136 -0.41747925
   0.50000000  0.07359136 -0.08252077
   0.50000000 -0.07359136  0.08252075
   0.50000000  0.42640864  0.41747925
   0.50000000  0.57359136 -0.41747925
   0.74979906  0.50000000 -0.00000000
   0.25020094  0.50000000 -0.00000000
   0.25020094  0.00000000  0.50000000
   0.74979906  0.00000000  0.50000000
   0.24979906  0.00000000 -0.00000000
   0.75020094  0.00000000 -0.00000000
   0.75020094  0.50000000  0.50000000
   0.24979906  0.50000000  0.50000000
Direct configuration=     9
   0.07522906  0.78686837  0.17811522
   0.92477096  0.21313163  0.82188481
   0.92477096  0.71313163  0.67811519
   0.07522906  0.28686837  0.32188478
   0.92477096  0.28686837  0.32188478
   0.07522906  0.71313163  0.67811519
   0.07522906  0.21313163  0.82188481
   0.92477096  0.78686837  0.17811522
   0.57522904  0.28686837  0.17811522
   0.42477094  0.71313163  0.82188481
   0.42477094  0.21313163  0.67811519
   0.57522904  0.78686837  0.32188478
   0.42477094  0.78686837  0.32188478
   0.57522904  0.21313163  0.67811519
   0.57522904  0.71313163  0.82188481
   0.42477094  0.28686837  0.17811522
   0.80320340  0.58291934  0.93077643
   0.19679660  0.41708066  0.06922357
   0.19679660  0.91708066  0.43077643
   0.80320340  0.08291934  0.56922357
   0.19679660  0.08291934  0.56922357
   0.80320340  0.91708066  0.43077643
   0.80320340  0.41708066  0.06922357
   0.19679660  0.58291934  0.93077643
   0.30320340  0.08291934  0.93077643
   0.69679660  0.91708066  0.06922357
   0.69679660  0.41708066  0.43077643
   0.30320340  0.58291934  0.56922357
   0.69679660  0.58291934  0.56922357
   0.30320340  0.41708066  0.43077643
   0.30320340  0.91708066  0.06922357
   0.69679660  0.08291934  0.93077643
   0.69640093  0.56914860  0.08299359
   0.30359907  0.43085140  0.91700641
   0.30359907  0.93085140  0.58299359
   0.69640093  0.06914860  0.41700641
   0.30359907  0.06914860  0.41700641
   0.69640093  0.93085140  0.58299359
   0.69640093  0.43085140  0.91700641
   0.30359907  0.56914860  0.08299359
   0.19640093  0.06914860  0.08299359
   0.80359907  0.93085140  0.91700641
   0.80359907  0.43085140  0.58299359
   0.19640093  0.56914860  0.41700641
   0.80359907  0.56914860  0.41700641
   0.19640093  0.43085140  0.58299359
   0.19640093  0.93085140  0.91700641
   0.80359907  0.06914860  0.08299359
   0.00000000  0.60231209  0.20013578
   0.00000000  0.39768791  0.79986419
   0.00000000  0.89768791  0.70013581
   0.00000000  0.10231209  0.29986422
   0.50000000  0.10231209  0.20013578
   0.50000000  0.89768791  0.79986419
   0.50000000  0.39768791  0.70013581
   0.50000000  0.60231209  0.29986422
   0.00000000  0.58548206  0.10426690
   0.00000000  0.41451794 -0.10426690
   0.00000000 -0.08548206 -0.39573310
   0.00000000  0.08548206  0.39573310
   0.50000000  0.08548206  0.10426690
   0.50000000 -0.08548206 -0.10426690
   0.50000000  0.41451794 -0.39573310
   0.50000000  0.58548206  0.39573310
   0.00000000  0.57432973 -0.08104024
   0.00000000  0.42567027  0.08104022
   0.00000000 -0.07432973  0.41895978
   0.00000000  0.07432973 -0.41895978
   0.50000000  0.07432973 -0.08104024
   0.50000000 -0.07432973  0.08104022
   0.50000000  0.42567027  0.41895978
   0.50000000  0.57432973 -0.41895978
   0.74979906  0.50000000 -0.00000000
   0.25020094  0.50000000 -0.00000000
   0.25020094  0.00000000  0.50000000
   0.74979906  0.00000000  0.50000000
   0.24979906  0.00000000 -0.00000000
   0.75020094  0.00000000 -0.00000000
   0.75020094  0.50000000  0.50000000
   0.24979906  0.50000000  0.50000000
Direct configuration=    10
   0.07522663  0.78686700  0.17811940
   0.92477339  0.21313300  0.82188063
   0.92477339  0.71313300  0.67811937
   0.07522663  0.28686700  0.32188060
   0.92477339  0.28686700  0.32188060
   0.07522663  0.71313300  0.67811937
   0.07522663  0.21313300  0.82188063
   0.92477339  0.78686700  0.17811940
   0.57522661  0.28686700  0.17811940
   0.42477336  0.71313300  0.82188063
   0.42477336  0.21313300  0.67811937
   0.57522661  0.78686700  0.32188060
   0.42477336  0.78686700  0.32188060
   0.57522661  0.21313300  0.67811937
   0.57522661  0.71313300  0.82188063
   0.42477336  0.28686700  0.17811940
   0.80320120  0.58291592  0.93077925
   0.19679880  0.41708408  0.06922075
   0.19679880  0.91708408  0.43077925
   0.80320120  0.08291592  0.56922075
   0.19679880  0.08291592  0.56922075
   0.80320120  0.91708408  0.43077925
   0.80320120  0.41708408  0.06922075
   0.19679880  0.58291592  0.93077925
   0.30320120  0.08291592  0.93077925
   0.69679880  0.91708408  0.06922075
   0.69679880  0.41708408  0.43077925
   0.30320120  0.58291592  0.56922075
   0.69679880  0.58291592  0.56922075
   0.30320120  0.41708408  0.43077925
   0.30320120  0.91708408  0.06922075
   0.69679880  0.08291592  0.93077925
   0.69640312  0.56914575  0.08299020
   0.30359688  0.43085425  0.91700980
   0.30359688  0.93085425  0.58299020
   0.69640312  0.06914575  0.41700980
   0.30359688  0.06914575  0.41700980
   0.69640312  0.93085425  0.58299020
   0.69640312  0.43085425  0.91700980
   0.30359688  0.56914575  0.08299020
   0.19640312  0.06914575  0.08299020
   0.80359688  0.93085425  0.91700980
   0.80359688  0.43085425  0.58299020
   0.19640312  0.56914575  0.41700980
   0.80359688  0.56914575  0.41700980
   0.19640312  0.43085425  0.58299020
   0.19640312  0.93085425  0.91700980
   0.80359688  0.06914575  0.08299020
   0.00000000  0.60231568  0.20013485
   0.00000000  0.39768432  0.79986512
   0.00000000  0.89768432  0.70013488
   0.00000000  0.10231568  0.29986515
   0.50000000  0.10231568  0.20013485
   0.50000000  0.89768432  0.79986512
   0.50000000  0.39768432  0.70013488
   0.50000000  0.60231568  0.29986515
   0.00000000  0.58563800  0.10394851