graphite                                
           1
     2.598736    0.000000    0.000000
     1.299368    2.250571    0.000000
     1.299368    0.750190    2.121859
   C 
   2
Direct configuration=     1
   0.00000000  0.00000000  0.00000000
   0.25000000  0.25000000  0.24999999
