diamond                                 
           1
     6.307381    0.000000    0.000000
     0.000000    6.307381    0.000000
     0.000000    0.000000    6.307381
   H    C 
  16   4
Direct configuration=     1
   0.60030001  0.52968001  0.15026000
   0.54931998  0.63409001  0.89600998
   0.56970000  0.35765001  0.93207002
   0.34876001  0.49586999  0.03313000
   0.96934003  0.10341001  0.13061000
   0.95473999  0.05858004  0.85507000
   0.16532004  0.94997001  0.00338000
   0.90644997  0.84893000  0.03353000
   0.07562006  0.53223002  0.66030997
   0.02463996  0.63664001  0.40605000
   0.04501998  0.36019999  0.44211999
   0.82406998  0.49842000  0.54316997
   0.57178003  0.02575004  0.62698001
   0.52079999  0.13015997  0.37272999
   0.54118002  0.85372001  0.40878999
   0.32023999  0.99194002  0.50984001
   0.51703000  0.50432998  0.00287000
   0.99896002  0.99023002  0.00565000
   0.99234003  0.50687998  0.51292002
   0.48850000  0.00039995  0.47959000
Direct configuration=     2
   0.61784555  0.53680857  0.18754433
   0.56088645  0.66409758  0.86879575
   0.58434430  0.32654317  0.91575772
   0.31190702  0.49671405  0.03987296
   0.95807211  0.12488468  0.15382652
   0.94262412  0.07811021  0.82415193
   0.20183691  0.93830404  0.00227743
   0.88589483  0.81979005  0.04795727
   0.09489846  0.53511451  0.69230370
   0.03360291  0.66348389  0.37950586
   0.05323775  0.33083389  0.42435904
   0.78657617  0.49373115  0.54778130
   0.58741682  0.02937527  0.65974787
   0.53301682  0.15628912  0.34772872
   0.55317192  0.82535560  0.39257832
   0.28151737  0.98764638  0.52085876
   0.51587666  0.50362667  0.00231716
   0.99946131  0.99099974  0.00574714
   0.99285897  0.50683366  0.51354447
   0.48906364  0.00053785  0.47842369
