diamond                                 
           1
    11.629321    0.000000    0.000000
     0.000000    8.134336    0.000000
     0.000000    0.000000    8.129271
   H    C 
  56  16
Direct configuration=     1
   0.80100000  0.57950002  0.93360001
   0.19900000  0.42049998  0.06639999
   0.19900000  0.92049998  0.43360001
   0.80100000  0.07950002  0.56639999
   0.19900000  0.07950002  0.56639999
   0.80100000  0.92049998  0.43360001
   0.80100000  0.42049998  0.06639999
   0.19900000  0.57950002  0.93360001
   0.30100000  0.07950002  0.93360001
   0.69900000  0.92049998  0.06639999
   0.69900000  0.42049998  0.43360001
   0.30100000  0.57950002  0.56639999
   0.69900000  0.57950002  0.56639999
   0.30100000  0.42049998  0.43360001
   0.30100000  0.92049998  0.06639999
   0.69900000  0.07950002  0.93360001
   0.69859999  0.56629997  0.07959998
   0.30140001  0.43370003  0.92040002
   0.30140001  0.93370003  0.57959998
   0.69859999  0.06629997  0.42040002
   0.30140001  0.06629997  0.42040002
   0.69859999  0.93370003  0.57959998
   0.69859999  0.43370003  0.92040002
   0.30140001  0.56629997  0.07959998
   0.19859999  0.06629997  0.07959998
   0.80140001  0.93370003  0.92040002
   0.80140001  0.43370003  0.57959998
   0.19859999  0.56629997  0.42040002
   0.80140001  0.56629997  0.42040002
   0.19859999  0.43370003  0.57959998
   0.19859999  0.93370003  0.92040002
   0.80140001  0.06629997  0.07959998
   0.07280000  0.78549999  0.18230000
   0.92720002  0.21450001  0.81770003
   0.92720002  0.71450001  0.68229997
   0.07280000  0.28549999  0.31770000
   0.92720002  0.28549999  0.31770000
   0.07280000  0.71450001  0.68229997
   0.07280000  0.21450001  0.81770003
   0.92720002  0.78549999  0.18230000
   0.57279998  0.28549999  0.18230000
   0.42719999  0.71450001  0.81770003
   0.42719999  0.21450001  0.68229997
   0.57279998  0.78549999  0.31770000
   0.42719999  0.78549999  0.31770000
   0.57279998  0.21450001  0.68229997
   0.57279998  0.71450001  0.81770003
   0.42719999  0.28549999  0.18230000
   0.00000000  0.60589999  0.19920000
   0.00000000  0.39410001  0.80079997
   0.00000000  0.89410001  0.69920003
   0.00000000  0.10589999  0.30080000
   0.50000000  0.10589999  0.19920000
   0.50000000  0.89410001  0.80079997
   0.50000000  0.39410001  0.69920003
   0.50000000  0.60589999  0.30080000
   0.00000000  0.72960001  0.23029999
   0.00000000  0.27039999  0.76969999
   0.00000000  0.77039999  0.73030001
   0.00000000  0.22960001  0.26969999
   0.50000000  0.22960001  0.23029999
   0.50000000  0.77039999  0.76969999
   0.50000000  0.27039999  0.73030001
   0.50000000  0.72960001  0.26969999
   0.74980003  0.50000000  0.00000000
   0.25019997  0.50000000  0.00000000
   0.25019997  0.00000000  0.50000000
   0.74980003  0.00000000  0.50000000
   0.24980003  0.00000000  0.00000000
   0.75019997  0.00000000  0.00000000
   0.75019997  0.50000000  0.50000000
   0.24980003  0.50000000  0.50000000
Direct configuration=     2
   0.80709475  0.58883614  0.92593735
   0.19290525  0.41116386  0.07406265
   0.19290525  0.91116386  0.42593735
   0.80709475  0.08883614  0.57406265
   0.19290525  0.08883614  0.57406265
   0.80709475  0.91116386  0.42593735
   0.80709475  0.41116386  0.07406265
   0.19290525  0.58883614  0.92593735
   0.30709475  0.08883614  0.92593735
   0.69290525  0.91116386  0.07406265
   0.69290525  0.41116386  0.42593735
   0.30709475  0.58883614  0.57406265
   0.69290525  0.58883614  0.57406265
   0.30709475  0.41116386  0.42593735
   0.30709475  0.91116386  0.07406265
   0.69290525  0.08883614  0.92593735
   0.69252049  0.57415750  0.08888211
   0.30747951  0.42584250  0.91111789
   0.30747951  0.92584250  0.58888211
   0.69252049  0.07415750  0.41111789
   0.30747951  0.07415750  0.41111789
   0.69252049  0.92584250  0.58888211
   0.69252049  0.42584250  0.91111789
   0.30747951  0.57415750  0.08888211
   0.19252049  0.07415750  0.08888211
   0.80747951  0.92584250  0.91111789
   0.80747951  0.42584250  0.58888211
   0.19252049  0.57415750  0.41111789
   0.80747951  0.57415750  0.41111789
   0.19252049  0.42584250  0.58888211
   0.19252049  0.92584250  0.91111789
   0.80747951  0.07415750  0.08888211
   0.08181523  0.79306415  0.18242260
   0.91818479  0.20693585  0.81757743
   0.91818479  0.70693585  0.68242257
   0.08181523  0.29306415  0.31757740
   0.91818479  0.29306415  0.31757740
   0.08181523  0.70693585  0.68242257
   0.08181523  0.20693585  0.81757743
   0.91818479  0.79306415  0.18242260
   0.58181521  0.29306415  0.18242260
   0.41818476  0.70693585  0.81757743
   0.41818476  0.20693585  0.68242257
   0.58181521  0.79306415  0.31757740
   0.41818476  0.79306415  0.31757740
   0.58181521  0.20693585  0.68242257
   0.58181521  0.70693585  0.81757743
   0.41818476  0.29306415  0.18242260
   0.00000000  0.59118656  0.20148774
   0.00000000  0.40881344  0.79851223
   0.00000000  0.90881344  0.70148777
   0.00000000  0.09118656  0.29851226
   0.50000000  0.09118656  0.20148774
   0.50000000  0.90881344  0.79851223
   0.50000000  0.40881344  0.70148777
   0.50000000  0.59118656  0.29851226
   0.00000000  0.72950980  0.22768580
   0.00000000  0.27049020  0.77231418
   0.00000000  0.77049020  0.72768582
   0.00000000  0.22950980  0.27231418
   0.50000000  0.22950980  0.22768580
   0.50000000  0.77049020  0.77231418
   0.50000000  0.27049020  0.72768582
   0.50000000  0.72950980  0.27231418
   0.74975274  0.50000000  0.00000000
   0.25024726  0.50000000 -0.00000000
   0.25024726 -0.00000000  0.50000000
   0.74975274  0.00000000  0.50000000
   0.24975274 -0.00000000  0.00000000
   0.75024726  0.00000000 -0.00000000
   0.75024726  0.50000000  0.50000000
   0.24975274  0.50000000  0.50000000
Direct configuration=     3
   0.80453912  0.58492135  0.92915043
   0.19546088  0.41507865  0.07084957
   0.19546088  0.91507865  0.42915043
   0.80453912  0.08492135  0.57084957
   0.19546088  0.08492135  0.57084957
   0.80453912  0.91507865  0.42915043
   0.80453912  0.41507865  0.07084957
   0.19546088  0.58492135  0.92915043
   0.30453912  0.08492135  0.92915043
   0.69546088  0.91507865  0.07084957
   0.69546088  0.41507865  0.42915043
   0.30453912  0.58492135  0.57084957
   0.69546088  0.58492135  0.57084957
   0.30453912  0.41507865  0.42915043
   0.30453912  0.91507865  0.07084957
   0.69546088  0.08492135  0.92915043
   0.69506973  0.57086271  0.08498996
   0.30493027  0.42913729  0.91501004
   0.30493027  0.92913729  0.58498996
   0.69506973  0.07086271  0.41501004
   0.30493027  0.07086271  0.41501004
   0.69506973  0.92913729  0.58498996
   0.69506973  0.42913729  0.91501004
   0.30493027  0.57086271  0.08498996
   0.19506973  0.07086271  0.08498996
   0.80493027  0.92913729  0.91501004
   0.80493027  0.42913729  0.58498996
   0.19506973  0.57086271  0.41501004
   0.80493027  0.57086271  0.41501004
   0.19506973  0.42913729  0.58498996
   0.19506973  0.92913729  0.91501004
   0.80493027  0.07086271  0.08498996
   0.07803500  0.78989238  0.18237119
   0.92196503  0.21010762  0.81762884
   0.92196503  0.71010762  0.68237116
   0.07803500  0.28989238  0.31762881
   0.92196503  0.28989238  0.31762881
   0.07803500  0.71010762  0.68237116
   0.07803500  0.21010762  0.81762884
   0.92196503  0.78989238  0.18237119
   0.57803497  0.28989238  0.18237119
   0.42196500  0.71010762  0.81762884
   0.42196500  0.21010762  0.68237116
   0.57803497  0.78989238  0.31762881
   0.42196500  0.78989238  0.31762881
   0.57803497  0.21010762  0.68237116
   0.57803497  0.71010762  0.81762884
   0.42196500  0.28989238  0.18237119
   0.00000000  0.59735614  0.20052846
   0.00000000  0.40264386  0.79947151
   0.00000000  0.90264386  0.70052849
   0.00000000  0.09735614  0.29947154
   0.50000000  0.09735614  0.20052846
   0.50000000  0.90264386  0.79947151
   0.50000000  0.40264386  0.70052849
   0.50000000  0.59735614  0.29947154
   0.00000000  0.72954763  0.22878197
   0.00000000  0.27045237  0.77121801
   0.00000000  0.77045237  0.72878199
   0.00000000  0.22954763  0.27121801
   0.50000000  0.22954763  0.22878197
   0.50000000  0.77045237  0.77121801
   0.50000000  0.27045237  0.72878199
   0.50000000  0.72954763  0.27121801
   0.74977257  0.50000000  0.00000000
   0.25022743  0.50000000 -0.00000000
   0.25022743 -0.00000000  0.50000000
   0.74977257  0.00000000  0.50000000
   0.24977257 -0.00000000  0.00000000
   0.75022743  0.00000000 -0.00000000
   0.75022743  0.50000000  0.50000000
   0.24977257  0.50000000  0.50000000
Direct configuration=     4
   0.80486203  0.58529053  0.92899530
   0.19513797  0.41470947  0.07100470
   0.19513797  0.91470947  0.42899530
   0.80486203  0.08529053  0.57100470
   0.19513797  0.08529053  0.57100470
   0.80486203  0.91470947  0.42899530
   0.80486203  0.41470947  0.07100470
   0.19513797  0.58529053  0.92899530
   0.30486203  0.08529053  0.92899530
   0.69513797  0.91470947  0.07100470
   0.69513797  0.41470947  0.42899530
   0.30486203  0.58529053  0.57100470
   0.69513797  0.58529053  0.57100470
   0.30486203  0.41470947  0.42899530
   0.30486203  0.91470947  0.07100470
   0.69513797  0.08529053  0.92899530
   0.69474507  0.57125538  0.08530468
   0.30525493  0.42874462  0.91469532
   0.30525493  0.92874462  0.58530468
   0.69474507  0.07125538  0.41469532
   0.30525493  0.07125538  0.41469532
   0.69474507  0.92874462  0.58530468
   0.69474507  0.42874462  0.91469532
   0.30525493  0.57125538  0.08530468
   0.19474507  0.07125538  0.08530468
   0.80525493  0.92874462  0.91469532
   0.80525493  0.42874462  0.58530468
   0.19474507  0.57125538  0.41469532
   0.80525493  0.57125538  0.41469532
   0.19474507  0.42874462  0.58530468
   0.19474507  0.92874462  0.91469532
   0.80525493  0.07125538  0.08530468
   0.07939654  0.79143866  0.18586729
   0.92060348  0.20856134  0.81413274
   0.92060348  0.70856134  0.68586726
   0.07939654  0.29143866  0.31413271
   0.92060348  0.29143866  0.31413271
   0.07939654  0.70856134  0.68586726
   0.07939654  0.20856134  0.81413274
   0.92060348  0.79143866  0.18586729
   0.57939652  0.29143866  0.18586729
   0.42060345  0.70856134  0.81413274
   0.42060345  0.20856134  0.68586726
   0.57939652  0.79143866  0.31413271
   0.42060345  0.79143866  0.31413271
   0.57939652  0.20856134  0.68586726
   0.57939652  0.70856134  0.81413274
   0.42060345  0.29143866  0.18586729
   0.00000000  0.59555797  0.20446597
   0.00000000  0.40444203  0.79553400
   0.00000000  0.90444203  0.70446600
   0.00000000  0.09555797  0.29553403
   0.50000000  0.09555797  0.20446597
   0.50000000  0.90444203  0.79553400
   0.50000000  0.40444203  0.70446600
   0.50000000  0.59555797  0.29553403
   0.00000000  0.72856187  0.21767137
   0.00000000  0.27143813  0.78232862
   0.00000000  0.77143813  0.71767138
   0.00000000  0.22856187  0.28232862
   0.50000000  0.22856187  0.21767137
   0.50000000  0.77143813  0.78232862
   0.50000000  0.27143813  0.71767138
   0.50000000  0.72856187  0.28232862
   0.74974865  0.50000000 -0.00000000
   0.25025135  0.50000000 -0.00000000
   0.25025135 -0.00000000  0.50000000
   0.74974865 -0.00000000  0.50000000
   0.24974865 -0.00000000  0.00000000
   0.75025135 -0.00000000 -0.00000000
   0.75025135  0.50000000  0.50000000
   0.24974865  0.50000000  0.50000000
Direct configuration=     5
   0.80514926  0.58561892  0.92885731
   0.19485074  0.41438108  0.07114269
   0.19485074  0.91438108  0.42885731
   0.80514926  0.08561892  0.57114269
   0.19485074  0.08561892  0.57114269
   0.80514926  0.91438108  0.42885731
   0.80514926  0.41438108  0.07114269
   0.19485074  0.58561892  0.92885731
   0.30514926  0.08561892  0.92885731
   0.69485074  0.91438108  0.07114269
   0.69485074  0.41438108  0.42885731
   0.30514926  0.58561892  0.57114269
   0.69485074  0.58561892  0.57114269
   0.30514926  0.41438108  0.42885731
   0.30514926  0.91438108  0.07114269
   0.69485074  0.08561892  0.92885731
   0.69445630  0.57160466  0.08558463
   0.30554370  0.42839534  0.91441537
   0.30554370  0.92839534  0.58558463
   0.69445630  0.07160466  0.41441537
   0.30554370  0.07160466  0.41441537
   0.69445630  0.92839534  0.58558463
   0.69445630  0.42839534  0.91441537
   0.30554370  0.57160466  0.08558463
   0.19445630  0.07160466  0.08558463
   0.80554370  0.92839534  0.91441537
   0.80554370  0.42839534  0.58558463
   0.19445630  0.57160466  0.41441537
   0.80554370  0.57160466  0.41441537
   0.19445630  0.42839534  0.58558463
   0.19445630  0.92839534  0.91441537
   0.80554370  0.07160466  0.08558463
   0.08060763  0.79281408  0.18897706
   0.91939239  0.20718592  0.81102296
   0.91939239  0.70718592  0.68897704
   0.08060763  0.29281408  0.31102294
   0.91939239  0.29281408  0.31102294
   0.08060763  0.70718592  0.68897704
   0.08060763  0.20718592  0.81102296
   0.91939239  0.79281408  0.18897706
   0.58060761  0.29281408  0.18897706
   0.41939236  0.70718592  0.81102296
   0.41939236  0.20718592  0.68897704
   0.58060761  0.79281408  0.31102294
   0.41939236  0.79281408  0.31102294
   0.58060761  0.20718592  0.68897704
   0.58060761  0.70718592  0.81102296
   0.41939236  0.29281408  0.18897706
   0.00000000  0.59395851  0.20796838
   0.00000000  0.40604149  0.79203159
   0.00000000  0.90604149  0.70796841
   0.00000000  0.09395851  0.29203162
   0.50000000  0.09395851  0.20796838
   0.50000000  0.90604149  0.79203159
   0.50000000  0.40604149  0.70796841
   0.50000000  0.59395851  0.29203162
   0.00000000  0.72768503  0.20778851
   0.00000000  0.27231497  0.79221147
   0.00000000  0.77231497  0.70778853
   0.00000000  0.22768503  0.29221147
   0.50000000  0.22768503  0.20778851
   0.50000000  0.77231497  0.79221147
   0.50000000  0.27231497  0.70778853
   0.50000000  0.72768503  0.29221147
   0.74972738  0.50000000 -0.00000000
   0.25027262  0.50000000  0.00000000
   0.25027262 -0.00000000  0.50000000
   0.74972738 -0.00000000  0.50000000
   0.24972738 -0.00000000  0.00000000
   0.75027262 -0.00000000  0.00000000
   0.75027262  0.50000000  0.50000000
   0.24972738  0.50000000  0.50000000
Direct configuration=     6
   0.80527345  0.58576090  0.92879765
   0.19472655  0.41423910  0.07120235
   0.19472655  0.91423910  0.42879765
   0.80527345  0.08576090  0.57120235
   0.19472655  0.08576090  0.57120235
   0.80527345  0.91423910  0.42879765
   0.80527345  0.41423910  0.07120235
   0.19472655  0.58576090  0.92879765
   0.30527345  0.08576090  0.92879765
   0.69472655  0.91423910  0.07120235
   0.69472655  0.41423910  0.42879765
   0.30527345  0.58576090  0.57120235
   0.69472655  0.58576090  0.57120235
   0.30527345  0.41423910  0.42879765
   0.30527345  0.91423910  0.07120235
   0.69472655  0.08576090  0.92879765
   0.69433144  0.57175567  0.08570567
   0.30566856  0.42824433  0.91429433
   0.30566856  0.92824433  0.58570567
   0.69433144  0.07175567  0.41429433
   0.30566856  0.07175567  0.41429433
   0.69433144  0.92824433  0.58570567
   0.69433144  0.42824433  0.91429433
   0.30566856  0.57175567  0.08570567
   0.19433144  0.07175567  0.08570567
   0.80566856  0.92824433  0.91429433
   0.80566856  0.42824433  0.58570567
   0.19433144  0.57175567  0.41429433
   0.80566856  0.57175567  0.41429433
   0.19433144  0.42824433  0.58570567
   0.19433144  0.92824433  0.91429433
   0.80566856  0.07175567  0.08570567
   0.08113127  0.79340876  0.19032163
   0.91886875  0.20659124  0.80967840
   0.91886875  0.70659124  0.69032160
   0.08113127  0.29340876  0.30967837
   0.91886875  0.29340876  0.30967837
   0.08113127  0.70659124  0.69032160
   0.08113127  0.20659124  0.80967840
   0.91886875  0.79340876  0.19032163
   0.58113125  0.29340876  0.19032163
   0.41886873  0.70659124  0.80967840
   0.41886873  0.20659124  0.69032160
   0.58113125  0.79340876  0.30967837
   0.41886873  0.79340876  0.30967837
   0.58113125  0.20659124  0.69032160
   0.58113125  0.70659124  0.80967840
   0.41886873  0.29340876  0.19032163
   0.00000000  0.59326695  0.20948271
   0.00000000  0.40673305  0.79051726
   0.00000000  0.90673305  0.70948274
   0.00000000  0.09326695  0.29051729
   0.50000000  0.09326695  0.20948271
   0.50000000  0.90673305  0.79051726
   0.50000000  0.40673305  0.70948274
   0.50000000  0.59326695  0.29051729
   0.00000000  0.72730592  0.20351548
   0.00000000  0.27269408  0.79648450
   0.00000000  0.77269408  0.70351550
   0.00000000  0.22730592  0.29648450
   0.50000000  0.22730592  0.20351548
   0.50000000  0.77269408  0.79648450
   0.50000000  0.27269408  0.70351550
   0.50000000  0.72730592  0.29648450
   0.74971819  0.50000000 -0.00000000
   0.25028181  0.50000000  0.00000000
   0.25028181 -0.00000000  0.50000000
   0.74971819 -0.00000000  0.50000000
   0.24971819 -0.00000000  0.00000000
   0.75028181 -0.00000000  0.00000000
   0.75028181  0.50000000  0.50000000
   0.24971819  0.50000000  0.50000000
Direct configuration=     7
   0.80388572  0.58352432  0.93085603
   0.19611428  0.41647568  0.06914397
   0.19611428  0.91647568  0.43085603
   0.80388572  0.08352432  0.56914397
   0.19611428  0.08352432  0.56914397
   0.80388572  0.91647568  0.43085603
   0.80388572  0.41647568  0.06914397
   0.19611428  0.58352432  0.93085603
   0.30388572  0.08352432  0.93085603
   0.69611428  0.91647568  0.06914397
   0.69611428  0.41647568  0.43085603
   0.30388572  0.58352432  0.56914397
   0.69611428  0.58352432  0.56914397
   0.30388572  0.41647568  0.43085603
   0.30388572  0.91647568  0.06914397
   0.69611428  0.08352432  0.93085603
   0.69576702  0.56988045  0.08329874
   0.30423298  0.43011955  0.91670126
   0.30423298  0.93011955  0.58329874
   0.69576702  0.06988045  0.41670126
   0.30423298  0.06988045  0.41670126
   0.69576702  0.93011955  0.58329874
   0.69576702  0.43011955  0.91670126
   0.30423298  0.56988045  0.08329874
   0.19576702  0.06988045  0.08329874
   0.80423298  0.93011955  0.91670126
   0.80423298  0.43011955  0.58329874
   0.19576702  0.56988045  0.41670126
   0.80423298  0.56988045  0.41670126
   0.19576702  0.43011955  0.58329874
   0.19576702  0.93011955  0.91670126
   0.80423298  0.06988045  0.08329874
   0.08060802  0.79306206  0.19109431
   0.91939200  0.20693794  0.80890572
   0.91939200  0.70693794  0.69109428
   0.08060802  0.29306206  0.30890569
   0.91939200  0.29306206  0.30890569
   0.08060802  0.70693794  0.69109428
   0.08060802  0.20693794  0.80890572
   0.91939200  0.79306206  0.19109431
   0.58060800  0.29306206  0.19109431
   0.41939197  0.70693794  0.80890572
   0.41939197  0.20693794  0.69109428
   0.58060800  0.79306206  0.30890569
   0.41939197  0.79306206  0.30890569
   0.58060800  0.20693794  0.69109428
   0.58060800  0.70693794  0.80890572
   0.41939197  0.29306206  0.19109431
   0.00000000  0.59421530  0.21014340
   0.00000000  0.40578470  0.78985657
   0.00000000  0.90578470  0.71014343
   0.00000000  0.09421530  0.28985660
   0.50000000  0.09421530  0.21014340
   0.50000000  0.90578470  0.78985657
   0.50000000  0.40578470  0.71014343
   0.50000000  0.59421530  0.28985660
   0.00000000  0.72744311  0.20096767
   0.00000000  0.27255689  0.79903231
   0.00000000  0.77255689  0.70096769
   0.00000000  0.22744311  0.29903231
   0.50000000  0.22744311  0.20096767
   0.50000000  0.77255689  0.79903231
   0.50000000  0.27255689  0.70096769
   0.50000000  0.72744311  0.29903231
   0.74954711  0.50000000  0.00000000
   0.25045289  0.50000000  0.00000000
   0.25045289  0.00000000  0.50000000
   0.74954711  0.00000000  0.50000000
   0.24954711  0.00000000  0.00000000
   0.75045289  0.00000000  0.00000000
   0.75045289  0.50000000  0.50000000
   0.24954711  0.50000000  0.50000000
Direct configuration=     8
   0.80441960  0.58438477  0.93006414
   0.19558040  0.41561523  0.06993586
   0.19558040  0.91561523  0.43006414
   0.80441960  0.08438477  0.56993586
   0.19558040  0.08438477  0.56993586
   0.80441960  0.91561523  0.43006414
   0.80441960  0.41561523  0.06993586
   0.19558040  0.58438477  0.93006414
   0.30441960  0.08438477  0.93006414
   0.69558040  0.91561523  0.06993586
   0.69558040  0.41561523  0.43006414
   0.30441960  0.58438477  0.56993586
   0.69558040  0.58438477  0.56993586
   0.30441960  0.41561523  0.43006414
   0.30441960  0.91561523  0.06993586
   0.69558040  0.08438477  0.93006414
   0.69521473  0.57060188  0.08422472
   0.30478527  0.42939812  0.91577528
   0.30478527  0.92939812  0.58422472
   0.69521473  0.07060188  0.41577528
   0.30478527  0.07060188  0.41577528
   0.69521473  0.92939812  0.58422472
   0.69521473  0.42939812  0.91577528
   0.30478527  0.57060188  0.08422472
   0.19521473  0.07060188  0.08422472
   0.80478527  0.92939812  0.91577528
   0.80478527  0.42939812  0.58422472
   0.19521473  0.57060188  0.41577528
   0.80478527  0.57060188  0.41577528
   0.19521473  0.42939812  0.58422472
   0.19521473  0.92939812  0.91577528
   0.80478527  0.07060188  0.08422472
   0.08080932  0.79319544  0.19079705
   0.91919070  0.20680456  0.80920298
   0.91919070  0.70680456  0.69079702
   0.08080932  0.29319544  0.30920295
   0.91919070  0.29319544  0.30920295
   0.08080932  0.70680456  0.69079702
   0.08080932  0.20680456  0.80920298
   0.91919070  0.79319544  0.19079705
   0.58080930  0.29319544  0.19079705
   0.41919067  0.70680456  0.80920298
   0.41919067  0.20680456  0.69079702
   0.58080930  0.79319544  0.30920295
   0.41919067  0.79319544  0.30920295
   0.58080930  0.20680456  0.69079702
   0.58080930  0.70680456  0.80920298
   0.41919067  0.29319544  0.19079705
   0.00000000  0.59385046  0.20988922
   0.00000000  0.40614954  0.79011075
   0.00000000  0.90614954  0.70988925
   0.00000000  0.09385046  0.29011078
   0.50000000  0.09385046  0.20988922
   0.50000000  0.90614954  0.79011075
   0.50000000  0.40614954  0.70988925
   0.50000000  0.59385046  0.29011078
   0.00000000  0.72739033  0.20194786
   0.00000000  0.27260967  0.79805213
   0.00000000  0.77260967  0.70194787
   0.00000000  0.22739033  0.29805213
   0.50000000  0.22739033  0.20194786
   0.50000000  0.77260967  0.79805213
   0.50000000  0.27260967  0.70194787
   0.50000000  0.72739033  0.29805213
   0.74961292  0.50000000  0.00000000
   0.25038708  0.50000000  0.00000000
   0.25038708 -0.00000000  0.50000000
   0.74961292 -0.00000000  0.50000000
   0.24961292 -0.00000000  0.00000000
   0.75038708 -0.00000000  0.00000000
   0.75038708  0.50000000  0.50000000
   0.24961292  0.50000000  0.50000000
Direct configuration=     9
   0.80440674  0.58434351  0.93022028
   0.19559326  0.41565649  0.06977972
   0.19559326  0.91565649  0.43022028
   0.80440674  0.08434351  0.56977972
   0.19559326  0.08434351  0.56977972
   0.80440674  0.91565649  0.43022028
   0.80440674  0.41565649  0.06977972
   0.19559326  0.58434351  0.93022028
   0.30440674  0.08434351  0.93022028
   0.69559326  0.91565649  0.06977972
   0.69559326  0.41565649  0.43022028
   0.30440674  0.58434351  0.56977972
   0.69559326  0.58434351  0.56977972
   0.30440674  0.41565649  0.43022028
   0.30440674  0.91565649  0.06977972
   0.69559326  0.08434351  0.93022028
   0.69512762  0.57068292  0.08423537
   0.30487238  0.42931708  0.91576463
   0.30487238  0.92931708  0.58423537
   0.69512762  0.07068292  0.41576463
   0.30487238  0.07068292  0.41576463
   0.69512762  0.92931708  0.58423537
   0.69512762  0.42931708  0.91576463
   0.30487238  0.57068292  0.08423537
   0.19512762  0.07068292  0.08423537
   0.80487238  0.92931708  0.91576463
   0.80487238  0.42931708  0.58423537
   0.19512762  0.57068292  0.41576463
   0.80487238  0.57068292  0.41576463
   0.19512762  0.42931708  0.58423537
   0.19512762  0.92931708  0.91576463
   0.80487238  0.07068292  0.08423537
   0.08089030  0.79333052  0.19094572
   0.91910973  0.20666948  0.80905431
   0.91910973  0.70666948  0.69094569
   0.08089030  0.29333052  0.30905428
   0.91910973  0.29333052  0.30905428
   0.08089030  0.70666948  0.69094569
   0.08089030  0.20666948  0.80905431
   0.91910973  0.79333052  0.19094572
   0.58089027  0.29333052  0.19094572
   0.41910970  0.70666948  0.80905431
   0.41910970  0.20666948  0.69094569
   0.58089027  0.79333052  0.30905428
   0.41910970  0.79333052  0.30905428
   0.58089027  0.20666948  0.69094569
   0.58089027  0.70666948  0.80905431
   0.41910970  0.29333052  0.19094572
   0.00000000  0.59428669  0.21002197
   0.00000000  0.40571331  0.78997800
   0.00000000  0.90571331  0.71002200
   0.00000000  0.09428669  0.28997803
   0.50000000  0.09428669  0.21002197
   0.50000000  0.90571331  0.78997800
   0.50000000  0.40571331  0.71002200
   0.50000000  0.59428669  0.28997803
   0.00000000  0.72702516  0.20123772
   0.00000000  0.27297484  0.79876226
   0.00000000  0.77297484  0.70123774
   0.00000000  0.22702516  0.29876226
   0.50000000  0.22702516  0.20123772
   0.50000000  0.77297484  0.79876226
   0.50000000  0.27297484  0.70123774
   0.50000000  0.72702516  0.29876226
   0.74974361  0.50000000  0.00000000
   0.25025639  0.50000000  0.00000000
   0.25025639 -0.00000000  0.50000000
   0.74974361 -0.00000000  0.50000000
   0.24974361 -0.00000000  0.00000000
   0.75025639 -0.00000000  0.00000000
   0.75025639  0.50000000  0.50000000
   0.24974361  0.50000000  0.50000000
Direct configuration=    10
   0.80441243  0.58436176  0.93015123
   0.19558757  0.41563824  0.06984877
   0.19558757  0.91563824  0.43015123
   0.80441243  0.08436176  0.56984877
   0.19558757  0.08436176  0.56984877
   0.80441243  0.91563824  0.43015123
   0.80441243  0.41563824  0.06984877
   0.19558757  0.58436176  0.93015123
   0.30441243  0.08436176  0.93015123
   0.69558757  0.91563824  0.06984877
   0.69558757  0.41563824  0.43015123
   0.30441243  0.58436176  0.56984877
   0.69558757  0.58436176  0.56984877
   0.30441243  0.41563824  0.43015123
   0.30441243  0.91563824  0.06984877
   0.69558757  0.08436176  0.93015123
   0.69516615  0.57064708  0.08423066
   0.30483385  0.42935292  0.91576934
   0.30483385  0.92935292  0.58423066
   0.69516615  0.07064708  0.41576934
   0.30483385  0.07064708  0.41576934
   0.69516615  0.92935292  0.58423066
   0.69516615  0.42935292  0.91576934
   0.30483385  0.57064708  0.08423066
   0.19516615  0.07064708  0.08423066
   0.80483385  0.92935292  0.91576934
   0.80483385  0.42935292  0.58423066
   0.19516615  0.57064708  0.41576934
   0.80483385  0.57064708  0.41576934
   0.19516615  0.42935292  0.58423066
   0.19516615  0.92935292  0.91576934
   0.80483385  0.07064708  0.08423066
   0.08085448  0.79327078  0.19087996
   0.91914554  0.20672922  0.80912006
   0.91914554  0.70672922  0.69087994
   0.08085448  0.29327078  0.30912004
   0.91914554  0.29327078  0.30912004
   0.08085448  0.70672922  0.69087994
   0.08085448  0.20672922  0.80912006
   0.91914554  0.79327078  0.19087996
   0.58085446  0.29327078  0.19087996
   0.41914551  0.70672922  0.80912006
   0.41914551  0.20672922  0.69087994
   0.58085446  0.79327078  0.30912004
   0.41914551  0.79327078  0.30912004
   0.58085446  0.20672922  0.69087994
   0.58085446  0.70672922  0.80912006
   0.41914551  0.29327078  0.19087996
   0.00000000  0.59409376  0.20996326
   0.00000000  0.40590624  0.79003671
   0.00000000  0.90590624  0.70996329
   0.00000000  0.09409376  0.29003674
   0.50000000  0.09409376  0.20996326
   0.50000000  0.90590624  0.79003671
   0.50000000  0.40590624  0.70996329
   0.50000000  0.59409376  0.29003674
   0.00000000  0.72718666  0.20155179
   0.00000000  0.27281334  0.79844819
   0.00000000  0.77281334  0.70155181
   0.00000000  0.22718666  0.29844819
   0.50000000  0.22718666  0.20155179
   0.50000000  0.77281334  0.79844819
   0.50000000  0.27281334  0.70155181
   0.50000000  0.72718666  0.29844819
   0.74968581  0.50000000  0.00000000
   0.25031419  0.50000000  0.00000000
   0.25031419 -0.00000000  0.50000000
   0.74968581 -0.00000000  0.50000000
   0.24968581 -0.00000000  0.00000000
   0.75031419 -0.00000000  0.00000000
   0.75031419  0.50000000  0.50000000
   0.24968581  0.50000000  0.50000000
Direct configuration=    11
   0.80444855  0.58439983  0.93020533
   0.19555145  0.41560017  0.06979467
   0.19555145  0.91560017  0.43020533
   0.80444855  0.08439983  0.56979467
   0.19555145  0.08439983  0.56979467
   0.80444855  0.91560017  0.43020533
   0.80444855  0.41560017  0.06979467
   0.19555145  0.58439983  0.93020533
   0.30444855  0.08439983  0.93020533
   0.69555145  0.91560017  0.06979467
   0.69555145  0.41560017  0.43020533
   0.30444855  0.58439983  0.56979467
   0.69555145  0.58439983  0.56979467
   0.30444855  0.41560017  0.43020533
   0.30444855  0.91560017  0.06979467
   0.69555145  0.08439983  0.93020533
   0.69511407  0.57069614  0.08423305
   0.30488593  0.42930386  0.91576695
   0.30488593  0.92930386  0.58423305
   0.69511407  0.07069614  0.41576695
   0.30488593  0.07069614  0.41576695
   0.69511407  0.92930386  0.58423305
   0.69511407  0.42930386  0.91576695
   0.30488593  0.57069614  0.08423305
   0.19511407  0.07069614  0.08423305
   0.80488593  0.92930386  0.91576695
   0.80488593  0.42930386  0.58423305
   0.19511407  0.57069614  0.41576695
   0.80488593  0.57069614  0.41576695
   0.19511407  0.42930386  0.58423305
   0.19511407  0.92930386  0.91576695
   0.80488593  0.07069614  0.08423305
   0.08086888  0.79332119  0.19098433
   0.91913115  0.20667881  0.80901569
   0.91913115  0.70667881  0.69098431
   0.08086888  0.29332119  0.30901567
   0.91913115  0.29332119  0.30901567
   0.08086888  0.70667881  0.69098431
   0.08086888  0.20667881  0.80901569
   0.91913115  0.79332119  0.19098433
   0.58086885  0.29332119  0.19098433
   0.41913112  0.70667881  0.80901569
   0.41913112  0.20667881  0.69098431
   0.58086885  0.79332119  0.30901567
   0.41913112  0.79332119  0.30901567
   0.58086885  0.20667881  0.69098431
   0.58086885  0.70667881  0.80901569
   0.41913112  0.29332119  0.19098433
   0.00000000  0.59416754  0.21006237
   0.00000000  0.40583246  0.78993760
   0.00000000  0.90583246  0.71006240
   0.00000000  0.09416754  0.28993763
   0.50000000  0.09416754  0.21006237
   0.50000000  0.90583246  0.78993760
   0.50000000  0.40583246  0.71006240
   0.50000000  0.59416754  0.28993763