diamond                                 
           1
     6.307381    0.000000    0.000000
     0.000000    6.307381    0.000000
     0.000000    0.000000    6.307381
   H    C 
  16   4
Direct configuration=     1
   0.60030001  0.52968001  0.15026000
   0.54931998  0.63409001  0.89600998
   0.56970000  0.35765001  0.93207002
   0.34876001  0.49586999  0.03313000
   0.96934003  0.10341001  0.13061000
   0.95473999  0.05858004  0.85507000
   0.16532004  0.94997001  0.00338000
   0.90644997  0.84893000  0.03353000
   0.07562006  0.53223002  0.66030997
   0.02463996  0.63664001  0.40605000
   0.04501998  0.36019999  0.44211999
   0.82406998  0.49842000  0.54316997
   0.57178003  0.02575004  0.62698001
   0.52079999  0.13015997  0.37272999
   0.54118002  0.85372001  0.40878999
   0.32023999  0.99194002  0.50984001
   0.51703000  0.50432998  0.00287000
   0.99896002  0.99023002  0.00565000
   0.99234003  0.50687998  0.51292002
   0.48850000  0.00039995  0.47959000
Direct configuration=     2
   0.61784555  0.53680857  0.18754433
   0.56088645  0.66409758  0.86879575
   0.58434430  0.32654317  0.91575772
   0.31190702  0.49671405  0.03987296
   0.95807211  0.12488468  0.15382652
   0.94262412  0.07811021  0.82415193
   0.20183691  0.93830404  0.00227743
   0.88589483  0.81979005  0.04795727
   0.09489846  0.53511451  0.69230370
   0.03360291  0.66348389  0.37950586
   0.05323775  0.33083389  0.42435904
   0.78657617  0.49373115  0.54778130
   0.58741682  0.02937527  0.65974787
   0.53301682  0.15628912  0.34772872
   0.55317192  0.82535560  0.39257832
   0.28151737  0.98764638  0.52085876
   0.51587666  0.50362667  0.00231716
   0.99946131  0.99099974  0.00574714
   0.99285897  0.50683366  0.51354447
   0.48906364  0.00053785  0.47842369
Direct configuration=     3
   0.61998444  0.53767758  0.19208947
   0.56229646  0.66775566  0.86547820
   0.58612952  0.32275109  0.91376917
   0.30741446  0.49681695  0.04069496
   0.95669849  0.12750255  0.15665673
   0.94114713  0.08049103  0.82038287
   0.20628850  0.93688190  0.00214303
   0.88338906  0.81623775  0.04971603
   0.09724859  0.53546614  0.69620390
   0.03469554  0.66675629  0.37626999
   0.05423954  0.32725402  0.42219389
   0.78200549  0.49315956  0.54834345
   0.58932303  0.02981721  0.66374244
   0.53450611  0.15947439  0.34468094
   0.55463380  0.82189783  0.39060203
   0.27679689  0.98712296  0.52220200
   0.51573606  0.50354094  0.00224977
   0.99952242  0.99109357  0.00575899
   0.99292223  0.50682801  0.51362059
   0.48913235  0.00055467  0.47828151
Direct configuration=     4
   0.62426221  0.53941559  0.20117976
   0.56511648  0.67507180  0.85884311
   0.58969994  0.31516694  0.90979207
   0.29842933  0.49702274  0.04233896
   0.95395126  0.13273828  0.16231715
   0.93819316  0.08525268  0.81284474
   0.21519167  0.93403762  0.00187421
   0.87837751  0.80913314  0.05323354
   0.10194885  0.53616940  0.70400429
   0.03688079  0.67330109  0.36979827
   0.05624312  0.32009427  0.41786359
   0.77286413  0.49201637  0.54946773
   0.59313544  0.03070108  0.67173157
   0.53748469  0.16584494  0.33858538
   0.55755754  0.81498231  0.38664947
   0.26735593  0.98607613  0.52488848
   0.51545487  0.50336946  0.00211498
   0.99964464  0.99128123  0.00578267
   0.99304875  0.50681672  0.51377283
   0.48926977  0.00058829  0.47799715
Direct configuration=     5
   0.62490660  0.53967740  0.20254908
   0.56554128  0.67617387  0.85784363
   0.59023778  0.31402449  0.90919298
   0.29707585  0.49705374  0.04258660
   0.95353743  0.13352697  0.16316981
   0.93774819  0.08596995  0.81170923
   0.21653281  0.93360917  0.00183372
   0.87762259  0.80806293  0.05376340
   0.10265688  0.53627534  0.70517930
   0.03720997  0.67428697  0.36882340
   0.05654492  0.31901576  0.41721130
   0.77148712  0.49184417  0.54963709
   0.59370972  0.03083422  0.67293502
   0.53793337  0.16680457  0.33766718
   0.55799796  0.81394059  0.38605407
   0.26593379  0.98591844  0.52529316
   0.51541251  0.50334363  0.00209468
   0.99966305  0.99130950  0.00578624
   0.99306781  0.50681502  0.51379577
   0.48929047  0.00059335  0.47795432
Direct configuration=     6
   0.62619537  0.54020101  0.20528772
   0.56639086  0.67837801  0.85584466
   0.59131344  0.31173961  0.90799480
   0.29436890  0.49711574  0.04308189
   0.95270977  0.13510435  0.16487513
   0.93685824  0.08740450  0.80943821
   0.21921507  0.93275227  0.00175273
   0.87611276  0.80592252  0.05482312
   0.10407293  0.53648722  0.70752933
   0.03786832  0.67625873  0.36687366
   0.05714854  0.31685874  0.41590670
   0.76873309  0.49149976  0.54997580
   0.59485828  0.03110050  0.67534191
   0.53883073  0.16872382  0.33583076
   0.55887880  0.81185714  0.38486328
   0.26308950  0.98560306  0.52610252
   0.51532780  0.50329198  0.00205407
   0.99969987  0.99136604  0.00579337
   0.99310592  0.50681162  0.51384163
   0.48933187  0.00060348  0.47786865
Direct configuration=     7
   0.62877290  0.54124824  0.21076499
   0.56809004  0.68278629  0.85184674
   0.59346477  0.30716984  0.90559843
   0.28895499  0.49723973  0.04407247
   0.95105445  0.13825909  0.16828577
   0.93507835  0.09027359  0.80489617
   0.22457961  0.93103847  0.00159076
   0.87309310  0.80164170  0.05694257
   0.10690504  0.53691096  0.71222939
   0.03918503  0.68020224  0.36297417
   0.05835578  0.31254469  0.41329752
   0.76322505  0.49081094  0.55065323
   0.59715542  0.03163307  0.68015569
   0.54062545  0.17256234  0.33215794
   0.56064048  0.80769025  0.38248169
   0.25740093  0.98497230  0.52772123
   0.51515836  0.50318866  0.00197285
   0.99977351  0.99147911  0.00580765
   0.99318216  0.50680481  0.51393337
   0.48941468  0.00062374  0.47769731
Direct configuration=     8
   0.63392798  0.54334268  0.22171954
   0.57148840  0.69160285  0.84385090
   0.59776743  0.29803031  0.90080569
   0.27812717  0.49748773  0.04605363
   0.94774381  0.14456859  0.17510704
   0.93151857  0.09601177  0.79581210
   0.23530867  0.92761088  0.00126681
   0.86705377  0.79308006  0.06118146
   0.11256925  0.53775846  0.72162950
   0.04181844  0.68808927  0.35517521
   0.06077025  0.30391661  0.40807916
   0.75220895  0.48943330  0.55200809
   0.60174968  0.03269820  0.68978326
   0.54421489  0.18023938  0.32481229
   0.56416384  0.79935647  0.37771852
   0.24602379  0.98371078  0.53095866
   0.51481950  0.50298202  0.00181042
   0.99992079  0.99170527  0.00583619
   0.99333463  0.50679120  0.51411684
   0.48958028  0.00066426  0.47735463
Direct configuration=     9
   0.64423812  0.54753158  0.24362864
   0.57828512  0.70923598  0.82785921
   0.60637275  0.27975123  0.89122023
   0.25647153  0.49798372  0.05001594
   0.94112253  0.15718759  0.18874958
   0.92439902  0.10748813  0.77764396
   0.25676680  0.92075570  0.00061892
   0.85497511  0.77595677  0.06965925
   0.12389766  0.53945344  0.74042973
   0.04708527  0.70386333  0.33957728
   0.06559920  0.28666043  0.39764243
   0.73017675  0.48667803  0.55471781
   0.61093822  0.03482847  0.70903839
   0.55139377  0.19559344  0.31012098
   0.57121055  0.78268891  0.36819218
   0.22326952  0.98118774  0.53743353
   0.51414177  0.50256874  0.00148556
   0.00021536  0.99215757  0.00589327
   0.99363957  0.50676398  0.51448377
   0.48991149  0.00074530  0.47666928
Direct configuration=    10
   0.66485842  0.55590938  0.28744685
   0.59187854  0.74450222  0.79587584
   0.62358338  0.24319309  0.87204929
   0.21316025  0.49897569  0.05794056
   0.92787996  0.18242558  0.21603467
   0.91015990  0.13044086  0.74130767
   0.29968305  0.90704533 -0.00067687
   0.83081779  0.74171020  0.08661482
   0.14655450  0.54284342  0.77803019
   0.05761892  0.73541145  0.30838142
   0.07525709  0.25214808  0.37676896
   0.68611236  0.48116749  0.56013725
   0.62931528  0.03908901  0.74754865
   0.56575152  0.22630158  0.28073838
   0.58530398  0.74935379  0.34913949
   0.17776096  0.97614166  0.55038325
   0.51278632  0.50174218  0.00083584
   0.00080450  0.99306217  0.00600744
   0.99424945  0.50670954  0.51521765
   0.49057390  0.00090737  0.47529858
Direct configuration=    11
   0.70609901  0.57266498  0.37508325
   0.61906540  0.81503471  0.73190909
   0.65800465  0.17007679  0.83370741
   0.12653770  0.50095965  0.07378981
   0.90139484  0.23290156  0.27060485
   0.88168167  0.17634631  0.66863509
   0.38551557  0.87962459 -0.00326843
   0.78250315  0.67321706  0.12052597
   0.19186818  0.54962337  0.85323112
   0.07868622  0.79850768  0.24598971
   0.09457287  0.18312339  0.33502204
   0.59798358  0.47014640  0.57097612
   0.66606941  0.04761008  0.82456917
   0.59446704  0.28771785  0.22197317
   0.61349083  0.68268354  0.31103413
   0.08674386  0.96604950  0.57628270
   0.51007541  0.50008907 -0.00046360
   0.00198277  0.99487137  0.00623578
   0.99546920  0.50660066  0.51668540
   0.49189874  0.00123153  0.47255718
Direct configuration=    12
   0.66950593  0.55779762  0.29732282
   0.59494230  0.75245071  0.78866726
   0.62746240  0.23495342  0.86772844
   0.20339853  0.49919927  0.05972666
   0.92489529  0.18811385  0.22218433
   0.90695062  0.13561406  0.73311801
   0.30935574  0.90395521 -0.00096892
   0.82537308  0.73399153  0.09043636
   0.15166102  0.54360747  0.78650478
   0.05999305  0.74252193  0.30135034
   0.07743383  0.24436951  0.37206439
   0.67618090  0.47992549  0.56135871
   0.63345720  0.04004927  0.75622829
   0.56898755  0.23322274  0.27411598
   0.58848043  0.74184054  0.34484530
   0.16750401  0.97500435  0.55330193
   0.51248082  0.50155589  0.00068940
   0.00093728  0.99326605  0.00603317
   0.99438690  0.50669727  0.51538305
   0.49072320  0.00094390  0.47498965
Direct configuration=    13
   0.67534712  0.56017083  0.30973536
   0.59879296  0.76244071  0.77960721
   0.63233772  0.22459746  0.86229782
   0.19112959  0.49948027  0.06197149
   0.92114402  0.19526310  0.22991348
   0.90291705  0.14211596  0.72282490
   0.32151279  0.90007142 -0.00133598
   0.81852995  0.72429038  0.09523942
   0.15807910  0.54456776  0.79715600
   0.06297695  0.75145868  0.29251337
   0.08016966  0.23459307  0.36615149
   0.66369862  0.47836450  0.56289389
   0.63866293  0.04125616  0.76713723
   0.57305472  0.24192155  0.26579266
   0.59247272  0.73239758  0.33944818
   0.15461263  0.97357493  0.55697024
   0.51209685  0.50132175  0.00050535
   0.00110417  0.99352230  0.00606551
   0.99455967  0.50668185  0.51559094
   0.49091085  0.00098982  0.47460136
Direct configuration=    14
   0.70882118  0.49654238  0.34126888
   0.60939516  0.81750053  0.76352045
   0.65222113  0.21167746  0.85141838
   0.15420201  0.52514357  0.02661227
   0.90750926  0.21436452  0.26288361
   0.87778393  0.14906377  0.70272581
   0.34718844  0.87315326 -0.00550378
   0.81203234  0.69205431  0.13214710
   0.18253660  0.54244440  0.87477075
   0.06511869  0.77195688  0.24980240
   0.07452933  0.19269376  0.35047433
   0.63969814  0.48342027  0.55621645
   0.66954998  0.00537391  0.78548515
   0.61036838  0.27525483  0.24141760
   0.57341973  0.77867855  0.32988138
   0.10299905  0.98465258  0.55085420
   0.50307486  0.49318140 -0.00322427
   0.00410297  0.99966700  0.00764492
   0.99596941  0.50398415  0.51741748
   0.49358950 -0.00172745  0.46926683
Direct configuration=    15
   0.69545629  0.52194674  0.32867878
   0.60516211  0.79551729  0.76994327
   0.64428246  0.21683591  0.85576212
   0.16894576  0.51489722  0.04072983
   0.91295309  0.20673807  0.24971992
   0.88781860  0.14628978  0.71075059
   0.33693716  0.88390063 -0.00383974
   0.81462658  0.70492491  0.11741131
   0.17277167  0.54329218  0.84378221
   0.06426358  0.76377274  0.26685522
   0.07678129  0.20942252  0.35673361
   0.64928060  0.48140170  0.55888249
   0.65721799  0.01970029  0.77815954
   0.59547049  0.26194615  0.25114961
   0.58102685  0.76020036  0.33370103
   0.12360634  0.98022971  0.55329610
   0.50667699  0.49643153 -0.00173517
   0.00290566  0.99721366  0.00701432
   0.99540655  0.50506124  0.51668821
   0.49252002 -0.00064255  0.47139670
