   32   32    1    1
  0.3988355E+01  0.4934311E-09  0.4934311E-09  0.6053168E-09  0.5000000E-15
  1.000000000000000E-004
  CAR 
 graphite                                
    128    163     84
 
  0.0000000E+00  0.0000000E+00  0.0000000E+00  0.3086420E-02
    1      -11.228094
    2       -7.999244
    3       -7.992032
    4       -5.634906
    5       -5.634419
    6       -5.634245
    7       -4.113668
    8       -4.111139
    9       -4.110346
   10       -2.632446
   11       -2.618887
   12       -2.618647
   13       -2.617021
   14       -2.616909
   15       -2.602997
   16       -0.722359
   17       -0.719348
   18       -0.715849
   19       -0.713293
   20       -0.709410
   21       -0.706969
   22        0.054520
   23        3.319914
   24        4.144491
   25        4.146756
   26        4.151309
   27        4.714045
   28        4.714240
   29        4.714623
   30        7.043044
   31        7.047757
   32        7.052093
   33        7.255005
   34        7.261379
   35        7.265316
   36        7.266563
   37        7.269614
   38        7.277090
   39        7.882746
   40        7.883909
   41        7.884476
   42        8.749107
   43        8.760967
   44       10.873299
   45       10.877212
   46       10.880043
   47       10.898419
   48       10.907690
   49       10.909623
   50       10.924726
   51       12.206945
   52       12.212417
   53       12.218676
   54       12.276559
   55       12.291058
   56       15.328780
   57       15.337318
   58       15.339123
   59       15.340076
   60       15.341906
   61       15.349347
   62       15.599843
   63       15.607601
   64       15.614444
   65       15.695909
   66       15.718552
   67       19.133406
   68       19.164389
   69       19.165125
   70       19.168421
   71       19.169088
   72       19.196988
   73       19.272246
   74       19.275868
   75       19.277623
   76       20.189108
   77       20.436890
   78       20.441190
   79       20.761678
   80       21.398811
   81       21.413661
   82       21.415182
   83       21.429650
   84       22.119473
 
  0.1111111E+00  0.2081668E-16  0.0000000E+00  0.6172840E-02
    1      -11.149264
    2       -7.920314
    3       -7.913091
    4       -6.375057
    5       -5.830204
    6       -5.827942
    7       -3.777883
    8       -3.774517
    9       -3.258611
   10       -3.250368
   11       -3.234065
   12       -2.775654
   13       -2.767257
   14       -2.766392
   15       -2.757872
   16       -0.436924
   17       -0.431536
   18       -0.428533
   19       -0.424279
   20        0.046186
   21        0.054065
   22        0.139177
   23        3.373451
   24        3.762325
   25        3.767465
   26        4.227365
   27        4.416391
   28        4.677778
   29        4.678987
   30        6.567403
   31        6.904950
   32        6.910011
   33        6.912890
   34        6.921428
   35        6.980542
   36        6.985139
   37        7.333658
   38        7.343146
   39        8.101591
   40        8.104923
   41        8.219836
   42        8.407150
   43        8.437547
   44       10.497797
   45       10.509919
   46       10.719240
   47       10.731677
   48       11.052209
   49       11.056072
   50       11.305808
   51       12.091135
   52       12.099001
   53       12.259115
   54       12.329653
   55       12.487226
   56       15.383070
   57       15.391945
   58       15.694989
   59       15.701647
   60       15.703678
   61       15.706824
   62       15.714141
   63       15.813127
   64       15.835233
   65       16.068231
   66       16.078491
   67       18.917981
   68       18.922149
   69       19.078467
   70       19.102157
   71       19.141359
   72       19.157812
   73       19.161226
   74       19.184190
   75       19.352777
   76       19.746079
   77       19.751794
   78       19.950838
   79       20.892241
   80       21.755099
   81       21.767349
   82       21.840266
   83       22.139384
   84       22.252498
 
  0.2222222E+00  0.5551115E-16  0.0000000E+00  0.6172840E-02
    1      -10.913049
    2       -7.685347
    3       -7.678087
    4       -7.444548
    5       -6.160074
    6       -6.157217
    7       -4.270500
    8       -4.262595
    9       -3.054168
   10       -3.045452
   11       -3.044847
   12       -3.038659
   13       -3.026215
   14       -3.022500
   15       -1.762691
   16        0.245026
   17        0.249985
   18        0.253647
   19        0.257558
   20        0.390913
   21        1.434526
   22        1.442843
   23        2.832072
   24        2.837312
   25        3.532383
   26        3.711822
   27        4.473564
   28        4.590220
   29        4.592309
   30        5.876309
   31        6.022437
   32        6.027406
   33        6.030335
   34        6.038479
   35        6.832852
   36        6.836466
   37        6.911267
   38        7.557852
   39        7.567626
   40        7.723872
   41        8.619133
   42        8.624008
   43        9.211182
   44        9.429039
   45        9.440561
   46       10.256209
   47       10.267869
   48       11.540491
   49       11.544770
   50       11.750928
   51       11.758512
   52       12.266265
   53       12.383612
   54       12.403548
   55       12.859094
   56       15.523755
   57       15.532768
   58       16.024580
   59       16.051703
   60       16.072665
   61       16.570579
   62       16.575654
   63       16.578686
   64       16.585732
   65       17.334763
   66       17.344781
   67       18.027772
   68       18.031596
   69       18.881940
   70       18.904042
   71       18.950273
   72       18.956064
   73       19.120115
   74       19.139708
   75       19.142846
   76       19.164166
   77       19.271823
   78       19.587736
   79       20.329732
   80       22.268412
   81       22.362079
   82       22.570695
   83       22.707150
   84       22.719457
 
  0.3333333E+00  0.2775558E-16  0.0000000E+00  0.6172840E-02
    1      -10.520315
    2       -8.426250
    3       -7.295025
    4       -7.287703
    5       -6.420237
    6       -6.417237
    7       -5.226152
    8       -5.218463
    9       -3.285345
   10       -3.278115
   11       -3.276994
   12       -3.269961
   13       -2.089826
   14       -2.085720
   15       -0.120941
   16        0.805046
   17        1.119172
   18        1.124265
   19        1.128102
   20        1.132147
   21        1.681434
   22        1.686494
   23        2.879474
   24        3.002858
   25        3.011559
   26        3.785603
   27        4.497081
   28        4.499739
   29        4.877664
   30        4.923579
   31        4.928616
   32        4.931517
   33        4.938939
   34        5.233773
   35        5.260991
   36        6.688493
   37        6.691876
   38        6.902254
   39        7.923387
   40        7.933209
   41        7.976670
   42        7.987239
   43        9.258836
   44        9.264541
   45        9.644147
   46        9.655043
   47       10.023634
   48       11.239717
   49       11.246945
   50       11.960770
   51       12.231974
   52       12.236678
   53       12.618362
   54       13.070932
   55       13.803378
   56       15.741819
   57       15.751175
   58       16.228828
   59       16.246604
   60       16.552780
   61       16.945071
   62       16.948466
   63       17.534362
   64       17.537722
   65       17.540980
   66       17.546940
   67       18.213757
   68       18.419210
   69       18.426581
   70       18.615064
   71       18.635444
   72       19.098882
   73       19.120328
   74       19.122726
   75       19.146314
   76       19.159750
   77       19.168965
   78       19.264017
   79       19.976998
   80       21.903876
   81       23.061815
   82       23.446730
   83       24.121554
   84       24.132850
 
  0.4444444E+00  0.1110223E-15  0.0000000E+00  0.6172840E-02
    1       -9.972599
    2       -9.272569
    3       -6.751791
    4       -6.744372
    5       -6.556975
    6       -6.553951
    7       -6.059391
    8       -6.051858
    9       -3.410641
   10       -3.403726
   11       -3.402344
   12       -3.395622
   13       -1.127382
   14       -1.123583
   15        0.586773
   16        0.591318
   17        1.372570
   18        1.620719
   19        1.982386
   20        1.988303
   21        1.992061
   22        1.996000
   23        2.076212
   24        3.386828
   25        3.921532
   26        3.927229
   27        3.929429
   28        3.937134
   29        4.238587
   30        4.439591
   31        4.442511
   32        4.659877
   33        4.667494
   34        4.676229
   35        5.431591
   36        6.116920
   37        6.344672
   38        6.354492
   39        6.605807
   40        6.609022
   41        8.414535
   42        8.424658
   43        9.004089
   44        9.014392
   45        9.938227
   46        9.944281
   47       10.620087
   48       10.626848
   49       10.783882
   50       11.446136
   51       12.853801
   52       12.863224
   53       12.869459
   54       13.043946
   55       15.352001
   56       15.998983
   57       16.009353
   58       16.088089
   59       16.090152
   60       16.206565
   61       16.219686
   62       16.870158
   63       17.288605
   64       18.169455
   65       18.171457
   66       18.176549
   67       18.179778
   68       18.209078
   69       18.237980
   70       18.250986
   71       18.358299
   72       18.375692
   73       19.085459
   74       19.109826
   75       19.111207
   76       19.139954
   77       20.513426
   78       21.175867
   79       21.342771
   80       21.352346
   81       23.750925
   82       23.760499
   83       24.291926
   84       24.890174
 
  0.8470329E-21  0.1111111E+00  0.0000000E+00  0.6172840E-02
    1      -11.149267
    2       -7.920316
    3       -7.913093
    4       -6.375161
    5       -5.831226
    6       -5.826844
    7       -3.778640
    8       -3.773137
    9       -3.258448
   10       -3.250216
   11       -3.235090
   12       -2.775965
   13       -2.767572
   14       -2.766154
   15       -2.757464
   16       -0.437101
   17       -0.430610
   18       -0.429102
   19       -0.422800
   20        0.045543
   21        0.053182
   22        0.139090
   23        3.373465
   24        3.760769
   25        3.767598
   26        4.228959
   27        4.416567
   28        4.677091
   29        4.679472
   30        6.565715
   31        6.902232
   32        6.910906
   33        6.912194
   34        6.920260
   35        6.980860
   36        6.987740
   37        7.336107
   38        7.344693
   39        8.100425
   40        8.105569
   41        8.216831
   42        8.405879
   43        8.440798
   44       10.495299
   45       10.503678
   46       10.725898
   47       10.734166
   48       11.051953
   49       11.056235
   50       11.305967
   51       12.088823
   52       12.098247
   53       12.262092
   54       12.324548
   55       12.492938
   56       15.382328
   57       15.390784
   58       15.694814
   59       15.701602
   60       15.704392
   61       15.710294
   62       15.712563
   63       15.812905
   64       15.835046
   65       16.069554
   66       16.076422
   67       18.918537
   68       18.922157
   69       19.079324
   70       19.102428
   71       19.140923
   72       19.157781
   73       19.160922
   74       19.183816
   75       19.352055
   76       19.747901
   77       19.752530
   78       19.950819
   79       20.888787
   80       21.753251
   81       21.757870
   82       21.850854
   83       22.131757
   84       22.260557
 
  0.1111111E+00  0.1111111E+00  0.0000000E+00  0.6172840E-02
    1      -10.991735
    2       -7.763338
    3       -7.756091
    4       -6.861573
    5       -6.855571
    6       -5.429767
    7       -3.887381
    8       -3.713494
    9       -3.705382
   10       -3.703248
   11       -3.694790
   12       -2.481060
   13       -2.474737
   14       -2.424119
   15       -2.415544
   16       -0.500246
   17       -0.492502
   18        0.306929
   19        0.751446
   20        0.758592
   21        0.759824
   22        0.768737
   23        2.756137
   24        3.479724
   25        3.921922
   26        3.924556
   27        4.140494
   28        4.144357
   29        4.876716
   30        5.947603
   31        5.956488
   32        6.296282
   33        6.302750
   34        7.052922
   35        7.060750
   36        7.065283
   37        7.068006
   38        7.387024
   39        7.402110
   40        7.837904
   41        8.000918
   42        8.874488
   43        8.881603
   44        9.806992
   45        9.818846
   46       10.348219
   47       10.360252
   48       11.140650
   49       11.707868
   50       11.836375
   51       11.840387
   52       12.185844
   53       12.191767
   54       12.409840
   55       12.680071
   56       15.783089
   57       15.790203
   58       15.792197
   59       15.798636
   60       15.998031
   61       16.019597
   62       16.266463
   63       16.275977
   64       16.540773
   65       16.549686
   66       17.250830
   67       17.934768
   68       18.996111
   69       19.019106
   70       19.021728
   71       19.038429
   72       19.084665
   73       19.088041
   74       19.162907
   75       19.169392
   76       19.202029
   77       19.226155
   78       19.496455
   79       20.917383
   80       21.278146
   81       22.292348
   82       22.305620
   83       22.688419
   84       22.710561
 
  0.2222222E+00  0.1111111E+00  0.0000000E+00  0.6172840E-02
    1      -10.677207
    2       -7.894145
    3       -7.450692
    4       -7.443396
    5       -7.220163
    6       -5.413302
    7       -4.706034
    8       -4.698241
    9       -4.051251
   10       -4.043299
   11       -3.339468
   12       -2.372372
   13       -2.363834
   14       -1.574497
   15       -0.912789
   16       -0.009795
   17       -0.001901
   18        0.640247
   19        1.516439
   20        1.609759
   21        1.617881
   22        2.244517
   23        2.253061
   24        3.073216
   25        3.351578
   26        3.688376
   27        3.909082
   28        4.237926
   29        4.753031
   30        4.761591
   31        4.990824
   32        5.627646
   33        6.017015
   34        6.116261
   35        6.261877
   36        6.270174
   37        6.972000
   38        7.357247
   39        7.366730
   40        7.438497
   41        8.407885
   42        8.628321
   43        8.640031
   44        9.489715
   45        9.715176
   46        9.720283
   47        9.727435
   48       11.151023
   49       11.561818
   50       11.892719
   51       12.298785
   52       12.369653
   53       12.558155
   54       12.882921
   55       13.101720
   56       15.952848
   57       15.962135
   58       16.248139
   59       16.267843
   60       16.664202
   61       16.670845
   62       16.677987
   63       16.702967
   64       17.518042
   65       17.526175
   66       17.613585
   67       18.320040
   68       18.623677
   69       18.631650
   70       18.651211
   71       18.769520
   72       18.790965
   73       18.940159
   74       18.962336
   75       18.998833
   76       19.242685
   77       19.268480
   78       19.419422
   79       20.106575
   80       21.472625
   81       22.106707
   82       23.202071
   83       23.214064
   84       23.841941
 
  0.3333333E+00  0.1111111E+00  0.0000000E+00  0.6172840E-02
    1      -10.206971
    2       -8.809513
    3       -7.441503
    4       -6.983781
    5       -6.976411
    6       -5.602825
    7       -5.595211
    8       -5.525006
    9       -4.263021
   10       -4.255134
   11       -2.445328
   12       -2.437197
   13       -2.426889
   14       -0.593288
   15        0.259783
   16        0.775320
   17        0.813148
   18        0.821350
   19        1.131748
   20        2.027270
   21        2.518874
   22        2.524379
   23        2.529258
   24        3.557469
   25        3.565599
   26        3.754529
   27        3.852635
   28        3.861637
   29        3.933463
   30        4.411034
   31        4.647231
   32        5.038156
   33        5.088871
   34        5.287786
   35        5.295693
   36        5.991870
   37        6.133654
   38        7.140475
   39        7.151031
   40        7.344650
   41        7.798170
   42        7.807678
   43        9.018109
   44        9.029209
   45        9.063383
   46       10.155415
   47       10.488348
   48       10.536715
   49       11.417738
   50       11.886465
   51       12.197640
   52       12.602570
   53       12.948671
   54       13.296266
   55       14.580658
   56       15.533207
   57       16.166159
   58       16.176102
   59       16.403688
   60       16.419665
   61       17.283531
   62       17.453323
   63       17.489688
   64       17.540523
   65       17.548405
   66       18.269614
   67       18.274437
   68       18.314597
   69       18.324069
   70       18.498995
   71       18.518117
   72       18.883024
   73       18.905516
   74       19.049991
   75       19.291216
   76       19.320292
   77       19.497888
   78       19.916967
   79       21.115937
   80       21.335782
   81       22.368584
   82       24.195068
   83       24.364279
   84       24.373063
 
  0.4444444E+00  0.1111111E+00  0.0000000E+00  0.6172840E-02
    1       -9.586129
    2       -9.579974
    3       -7.515749
    4       -6.370882
    5       -6.363340
    6       -6.361198
    7       -6.353284
    8       -5.574860
    9       -4.334516
   10       -4.326655
   11       -2.482647
   12       -2.474201
   13       -1.706747
   14       -0.571012
   15        0.084403
   16        1.313843
   17        1.423267
   18        1.431467
   19        1.765187
   20        1.771077
   21        2.528798
   22        2.531688
   23        2.828564
   24        2.835986
   25        3.086336
   26        3.095350
   27        3.700997
   28        4.440702
   29        4.447790
   30        4.684963
   31        4.692972
   32        5.049833
   33        5.399090
   34        5.406301
   35        5.507701
   36        5.510647
   37        5.515639
   38        5.525015
   39        5.947831
   40        7.306194
   41        8.352908
   42        8.368115
   43        8.369857
   44        8.375802
   45        9.769749
   46        9.780757
   47       10.730939
   48       10.905022
   49       11.272903
   50       11.279268
   51       12.606717
   52       12.821341
   53       12.830949
   54       13.664064
   55       14.940502
   56       16.089724
   57       16.096043
   58       16.351096
   59       16.360638
   60       16.363682
   61       16.377026
   62       17.027101
   63       17.922010
   64       17.927581
   65       18.082423
   66       18.088397
   67       18.288908
   68       18.305602
   69       18.309221
   70       18.322477
   71       18.539371
   72       18.539761
   73       18.855335
   74       18.878544
   75       19.328245
   76       19.359590
   77       20.567436
   78       20.571319
   79       21.677474
   80       21.797043
   81       23.368688
   82       23.559044
   83       23.732286
   84       23.743692
 
 -0.4444444E+00  0.1111111E+00  0.0000000E+00  0.6172840E-02
    1      -10.207084
    2       -8.809337
    3       -7.441759
    4       -6.983874
    5       -6.976508
    6       -5.602723
    7       -5.595108
    8       -5.524672
    9       -4.263234
   10       -4.255364
   11       -2.444911
   12       -2.436442
   13       -2.425210
   14       -0.596076
   15        0.256840
   16        0.775001
   17        0.815997
   18        0.823805
   19        1.131683
   20        2.030686
   21        2.515426
   22        2.522959
   23        2.528542
   24        3.554574
   25        3.562204
   26        3.754582
   27        3.852605
   28        3.861652
   29        3.933475
   30        4.410676
   31        4.646270
   32        5.038065
   33        5.091336
   34        5.290885
   35        5.299660
   36        5.991582
   37        6.132628
   38        7.139735
   39        7.149330
   40        7.345212
   41        7.798153
   42        7.807977
   43        9.020115
   44        9.029537
   45        9.067076
   46       10.150589
   47       10.483590
   48       10.534397
   49       11.423603
   50       11.888902
   51       12.200166
   52       12.602802
   53       12.949093
   54       13.294272
   55       14.580995
   56       15.530730
   57       16.165837
   58       16.175569
   59       16.403178
   60       16.419319
   61       17.283635
   62       17.455436
   63       17.488989
   64       17.541780
   65       17.549706
   66       18.268473
   67       18.272809
   68       18.317060
   69       18.326963
   70       18.498242
   71       18.517030
   72       18.882941
   73       18.905555
   74       19.049574
   75       19.291721
   76       19.320600
   77       19.503857
   78       19.916590
   79       21.109359
   80       21.336447
   81       22.372464
   82       24.188367
   83       24.365036
   84       24.370506
 
 -0.3333333E+00  0.1111111E+00  0.0000000E+00  0.6172840E-02
    1      -10.677288
    2       -7.893935
    3       -7.450787
    4       -7.443492
    5       -7.220597
    6       -5.412942
    7       -4.705833
    8       -4.698030
    9       -4.051664
   10       -4.043749
   11       -3.336924
   12       -2.372138
   13       -2.363446
   14       -1.577230
   15       -0.913058
   16       -0.006780
   17        0.000588
   18        0.640197
   19        1.513028
   20        1.606659
   21        1.615146
   22        2.244336
   23        2.252866
   24        3.077210
   25        3.351623
   26        3.688335
   27        3.909168
   28        4.238067
   29        4.749469
   30        4.757500
   31        4.990610
   32        5.628877
   33        6.015348
   34        6.115698
   35        6.265925
   36        6.275063
   37        6.972389
   38        7.357392
   39        7.367010
   40        7.439657
   41        8.410807
   42        8.626390
   43        8.635764
   44        9.485445
   45        9.715021
   46        9.722985
   47        9.729676
   48       11.145665
   49       11.565006
   50       11.898948
   51       12.299922
   52       12.369936
   53       12.555384
   54       12.884791
   55       13.101911
   56       15.952446
   57       15.961635
   58       16.247366
   59       16.267160
   60       16.665970
   61       16.672688
   62       16.678020
   63       16.700138
   64       17.516177
   65       17.523440
   66       17.619263
   67       18.322870
   68       18.627532
   69       18.634586
   70       18.650979
   71       18.769300
   72       18.790345
   73       18.939870
   74       18.962692
   75       18.992583
   76       19.243313
   77       19.268377
   78       19.419194
   79       20.105754
   80       21.475142
   81       22.107361
   82       23.201850
   83       23.207267
   84       23.839516
 
 -0.2222222E+00  0.1111111E+00  0.0000000E+00  0.6172840E-02
    1      -10.991783
    2       -7.763387
    3       -7.756140
    4       -6.859297
    5       -6.858290
    6       -5.429226
    7       -3.884715
    8       -3.712884
    9       -3.704842
   10       -3.704118
   11       -3.696095
   12       -2.481068
   13       -2.477963
   14       -2.423517
   15       -2.414738
   16       -0.497273
   17       -0.490109
   18        0.306879
   19        0.750547
   20        0.757620
   21        0.758662
   22        0.765881
   23        2.752339
   24        3.479720
   25        3.922692
   26        3.928323
   27        4.142368
   28        4.142679
   29        4.876370
   30        5.943574
   31        5.951884
   32        6.297495
   33        6.301390
   34        7.055600
   35        7.063554
   36        7.065110
   37        7.072842
   38        7.381611
   39        7.405156
   40        7.842368
   41        8.002262
   42        8.874181
   43        8.876987
   44        9.801915
   45        9.810252
   46       10.357590
   47       10.365314
   48       11.144021
   49       11.702079
   50       11.835348
   51       11.838413
   52       12.187366
   53       12.196791
   54       12.405559
   55       12.686744
   56       15.783652
   57       15.791123
   58       15.793297
   59       15.799496
   60       15.997491
   61       16.018894
   62       16.270745
   63       16.277055
   64       16.538578
   65       16.546807
   66       17.244913
   67       17.931549
   68       18.996021
   69       19.019085
   70       19.021350
   71       19.039058
   72       19.086412
   73       19.089115
   74       19.167452
   75       19.172619
   76       19.202455
   77       19.225924
   78       19.495994
   79       20.913044
   80       21.283662
   81       22.289796
   82       22.294564
   83       22.685882
   84       22.711028
 
 -0.1111111E+00  0.1111111E+00  0.0000000E+00  0.6172840E-02
    1      -11.149283
    2       -7.920332
    3       -7.913109
    4       -6.375960
    5       -5.829616
    6       -5.827498
    7       -3.775944
    8       -3.773660
    9       -3.259319
   10       -3.251337
   11       -3.236994
   12       -2.775035
   13       -2.766950
   14       -2.766248
   15       -2.757238
   16       -0.434351
   17       -0.430733
   18       -0.427135
   19       -0.422551
   20        0.042708
   21        0.050751
   22        0.139163
   23        3.373442
   24        3.760593
   25        3.763616
   26        4.233560
   27        4.416825
   28        4.677538
   29        4.678702
   30        6.563454
   31        6.900465
   32        6.908171
   33        6.912234
   34        6.915345
   35        6.984031
   36        6.988286
   37        7.340709
   38        7.350241
   39        8.101918
   40        8.104380
   41        8.210315
   42        8.403836
   43        8.446982
   44       10.485911
   45       10.498349
   46       10.731490
   47       10.743768
   48       11.054928
   49       11.056676
   50       11.302692
   51       12.087697
   52       12.093297
   53       12.268667
   54       12.317708
   55       12.500311
   56       15.384280
   57       15.393137
   58       15.693421
   59       15.700937
   60       15.703708
   61       15.709285
   62       15.716800
   63       15.812531
   64       15.834740
   65       16.065647
   66       16.074694
   67       18.917932
   68       18.919478
   69       19.079116
   70       19.103206
   71       19.140645
   72       19.157593
   73       19.160925
   74       19.183689
   75       19.355273
   76       19.750450
   77       19.755513
   78       19.950643
   79       20.887026
   80       21.741486
   81       21.754883
   82       21.858689
   83       22.124902
   84       22.260500
 
  0.0000000E+00  0.2222222E+00  0.0000000E+00  0.6172840E-02
    1      -10.913058
    2       -7.685339
    3       -7.678078
    4       -7.444702
    5       -6.161372
    6       -6.155735
    7       -4.270605
    8       -4.262704
    9       -3.054759
   10       -3.045403
   11       -3.044546
   12       -3.037737
   13       -3.027854
   14       -3.020641
   15       -1.763432
   16        0.244141
   17        0.251435
   18        0.252661
   19        0.259542
   20        0.391007
   21        1.433774
   22        1.441810
   23        2.830337
   24        2.837932
   25        3.532392
   26        3.711953
   27        4.475214
   28        4.589077
   29        4.593244
   30        5.875147
   31        6.019623
   32        6.028146
   33        6.029624
   34        6.037970
   35        6.832667
   36        6.839594
   37        6.908638
   38        7.560609
   39        7.569189
   40        7.726368
   41        8.617602
   42        8.624457
   43        9.209537
   44        9.427088
   45        9.435770
   46       10.261743
   47       10.270133
   48       11.539607
   49       11.545656
   50       11.748625
   51       11.757977
   52       12.261387
   53       12.383816
   54       12.407171
   55       12.864817
   56       15.523061
   57       15.531609
   58       16.025449
   59       16.051264
   60       16.072044
   61       16.569453
   62       16.576713
   63       16.579159
   64       16.586313
   65       17.335353
   66       17.343440
   67       18.027555
   68       18.032046
   69       18.882843
   70       18.904514
   71       18.951784
   72       18.956961
   73       19.119449
   74       19.139631
   75       19.142628
   76       19.163636
   77       19.271769
   78       19.587087
   79       20.327859
   80       22.276104
   81       22.355235
   82       22.570860
   83       22.705583
   84       22.710813
 
  0.1111111E+00  0.2222222E+00  0.0000000E+00  0.6172840E-02
    1      -10.677214
    2       -7.894241
    3       -7.450728
    4       -7.443433
    5       -7.219991
    6       -5.413238
    7       -4.706143
    8       -4.698349
    9       -4.051116
   10       -4.043169
   11       -3.339554
   12       -2.372308
   13       -2.363778
   14       -1.573796
   15       -0.913567
   16       -0.009799
   17       -0.001910
   18        0.640253
   19        1.516416
   20        1.610577
   21        1.618987
   22        2.243671
   23        2.251897
   24        3.072060
   25        3.351696
   26        3.688403
   27        3.908935
   28        4.239507
   29        4.752994
   30        4.761502
   31        4.990803
   32        5.626355
   33        6.015285
   34        6.117635
   35        6.259834
   36        6.268735
   37        6.973923
   38        7.359810
   39        7.368289
   40        7.439619
   41        8.406517
   42        8.627792
   43        8.637339
   44        9.490518
   45        9.713405
   46        9.722954
   47        9.729030
   48       11.151079
   49       11.561884