    2    2  200    1
  0.5698463E+01  0.2526005E-09  0.2526005E-09  0.2526005E-09  0.5000000E-15
  1.000000000000000E-004
  CAR 
 graphite                                
      8    194      8
 
  0.0000000E+00  0.0000000E+00  0.0000000E+00  0.8680556E-03
    1      -11.724904
    2        9.687301
    3        9.687301
    4        9.687302
    5       15.264341
    6       15.264342
    7       15.264342
    8       22.909426
 
  0.8333333E-01  0.6938894E-17  0.1387779E-16  0.3472222E-02
    1      -11.533282
    2        8.465602
    3        9.366131
    4        9.366132
    5       15.684879
    6       15.684880
    7       15.973246
    8       23.077572
 
  0.1666667E+00  0.0000000E+00  0.6938894E-17  0.3472222E-02
    1      -10.960781
    2        5.943932
    3        8.668851
    4        8.668852
    5       16.599499
    6       16.599500
    7       17.050464
    8       23.562639
 
  0.2500000E+00  0.0000000E+00  0.1387779E-16  0.6944444E-02
    1      -10.015883
    2        3.118040
    3        7.949277
    4        7.949278
    5       17.453819
    6       17.453820
    7       17.788251
    8       24.244386
 
  0.3333333E+00  0.0000000E+00  0.0000000E+00  0.3472222E-02
    1       -8.720151
    2        0.348882
    3        7.377798
    4        7.377799
    5       17.941673
    6       17.941675
    7       18.201614
    8       24.876154
 
  0.4166667E+00  0.0000000E+00 -0.2775558E-16  0.3472222E-02
    1       -7.149679
    2       -2.147051
    3        7.020014
    4        7.020015
    5       18.102628
    6       18.102629
    7       18.407890
    8       25.240565
 
  0.5000000E+00  0.0000000E+00  0.2775558E-16  0.3472222E-02
    1       -5.977608
    2       -3.633532
    3        6.898888
    4        6.898889
    5       18.126473
    6       18.126474
    7       18.470937
    8       25.340339
 
  0.8333333E-01  0.8333333E-01  0.0000000E+00  0.1736111E-02
    1      -11.469452
    2        8.781305
    3        8.781305
    4        9.072349
    5       15.068417
    6       16.388751
    7       16.388751
    8       23.035852
 
  0.1666667E+00  0.8333333E-01  0.1387779E-16  0.3472222E-02
    1      -11.024009
    2        6.802861
    3        7.982793
    4        8.744921
    5       15.360932
    6       17.455912
    7       17.469302
    8       23.121973
 
  0.2500000E+00  0.8333333E-01  0.0000000E+00  0.1041667E-01
    1      -10.203201
    2        4.120567
    3        7.265328
    4        8.084456
    5       16.209774
    6       18.318868
    7       18.398186
    8       23.344997
 
  0.3333333E+00  0.8333333E-01  0.0000000E+00  0.6944444E-02
    1       -9.022980
    2        1.358253
    3        6.761371
    4        7.340059
    5       16.983867
    6       18.809938
    7       18.900795
    8       23.854422
 
  0.4166667E+00  0.8333333E-01 -0.2775558E-16  0.3472222E-02
    1       -7.530665
    2       -1.227695
    3        6.520440
    4        6.700403
    5       17.441548
    6       18.953486
    7       19.051646
    8       24.632765
 
  0.5000000E+00  0.8333333E-01  0.2775558E-16  0.1041667E-01
    1       -6.020335
    2       -3.249992
    3        6.252716
    4        6.552435
    5       17.733025
    6       18.756890
    7       19.134704
    8       25.228481
 
 -0.4166667E+00  0.8333333E-01 -0.1387779E-16  0.6944444E-02
    1       -6.464596
    2       -2.701101
    3        6.042954
    4        6.844507
    5       18.013909
    6       18.464729
    7       19.095948
    8       25.251879
 
 -0.3333333E+00  0.8333333E-01 -0.2775558E-16  0.3472222E-02
    1       -8.057008
    2       -0.393735
    3        6.097191
    4        7.365361
    5       18.063837
    6       18.247771
    7       18.919890
    8       24.720490
 
 -0.2500000E+00  0.8333333E-01 -0.2081668E-16  0.1041667E-01
    1       -9.454968
    2        2.277757
    3        6.424987
    4        8.057581
    5       17.425956
    6       18.234440
    7       18.497708
    8       24.026855
 
 -0.1666667E+00  0.8333333E-01 -0.6938894E-17  0.6944444E-02
    1      -10.518022
    2        5.044625
    3        7.017201
    4        8.805511
    5       16.546632
    6       17.665739
    7       17.802390
    8       23.544552
 
 -0.8333333E-01  0.8333333E-01 -0.1408141E-16  0.1736111E-02
    1      -11.214730
    2        7.451926
    3        7.953335
    4        9.362646
    5       15.780608
    6       16.575167
    7       16.917840
    8       23.253307
 
  0.1666667E+00  0.1666667E+00  0.0000000E+00  0.1736111E-02
    1      -10.706692
    2        7.127934
    3        7.127935
    4        7.448356
    5       14.604070
    6       18.680549
    7       18.680549
    8       22.317500
 
  0.2500000E+00  0.1666667E+00  0.2775558E-16  0.1041667E-01
    1      -10.013236
    2        5.041137
    3        6.380073
    4        7.025433
    5       14.862584
    6       19.762456
    7       19.814807
    8       21.555597
 
  0.3333333E+00  0.1666667E+00  0.5551115E-16  0.3472222E-02
    1       -8.956178
    2        2.488288
    3        5.870440
    4        6.271773
    5       15.684969
    6       20.418772
    7       20.505659
    8       21.431263
 
  0.4166667E+00  0.1666667E+00  0.0000000E+00  0.6944444E-02
    1       -7.568577
    2       -0.054186
    3        5.430989
    4        5.652484
    5       16.346671
    6       20.642008
    7       20.740863
    8       22.335404
 
  0.5000000E+00  0.1666667E+00 -0.2775558E-16  0.1041667E-01
    1       -5.995594
    2       -2.282853
    3        4.716649
    4        5.738999
    5       16.768306
    6       20.374520
    7       20.852608
    8       23.925637
 
 -0.4166667E+00  0.1666667E+00 -0.1387779E-16  0.3472222E-02
    1       -5.569600
    2       -2.794667
    3        4.232618
    4        6.115425
    5       17.203903
    6       19.886794
    7       20.830722
    8       25.068321
 
 -0.3333333E+00  0.1666667E+00 -0.1387779E-16  0.6944444E-02
    1       -7.055768
    2       -0.814252
    3        4.035013
    4        6.739476
    5       17.725706
    6       19.222895
    7       20.664192
    8       24.560432
 
 -0.2500000E+00  0.1666667E+00 -0.1387779E-16  0.1041667E-01
    1       -8.531901
    2        1.678274
    3        4.167826
    4        7.527836
    5       18.183353
    6       18.327534
    7       20.144028
    8       23.576002
 
 -0.1666667E+00  0.1666667E+00 -0.9066045E-17  0.1736111E-02
    1       -9.702601
    2        4.007245
    3        4.899863
    4        8.316937
    5       17.291778
    6       18.280263
    7       19.006505
    8       23.322838
 
  0.2500000E+00  0.2500000E+00  0.2775558E-16  0.5208333E-02
    1       -9.448487
    2        5.177210
    3        5.584742
    4        5.584743
    5       14.119087
    6       19.904546
    7       21.230420
    8       21.230420
 
  0.3333333E+00  0.2500000E+00  0.2775558E-16  0.1041667E-01
    1       -8.518915
    2        3.274424
    3        4.965117
    4        5.026073
    5       14.444663
    6       19.014158
    7       22.236967
    8       22.247228
 
  0.4166667E+00  0.2500000E+00 -0.2775558E-16  0.1041667E-01
    1       -7.249784
    2        1.081446
    3        3.960394
    4        4.768549
    5       15.228168
    6       19.360604
    7       22.638571
    8       22.750006
 
  0.5000000E+00  0.2500000E+00 -0.2775558E-16  0.2083333E-01
    1       -5.726334
    2       -1.064667
    3        2.971835
    4        4.832688
    5       15.752348
    6       21.084288
    7       22.448955
    8       22.949422
 
 -0.4166667E+00  0.2500000E+00  0.1387779E-16  0.1041667E-01
    1       -4.641028
    2       -2.339186
    3        2.224360
    4        5.208863
    5       16.225262
    6       21.845747
    7       22.870201
    8       23.535056
 
 -0.3333333E+00  0.2500000E+00 -0.2775558E-16  0.1041667E-01
    1       -5.766103
    2       -0.928468
    3        1.821638
    4        5.856868
    5       16.855271
    6       20.907850
    7       22.812462
    8       24.487193
 
 -0.2500000E+00  0.2500000E+00 -0.2865598E-17  0.1041667E-01
    1       -7.273978
    2        1.010715
    3        2.112193
    4        6.688812
    5       17.593392
    6       19.660205
    7       21.991742
    8       23.530509
 
  0.3333333E+00  0.3333333E+00  0.0000000E+00  0.1736111E-02
    1       -7.718477
    2        2.522394
    3        4.400771
    4        4.400771
    5       13.830618
    6       17.413967
    7       23.674590
    8       23.674590
 
  0.4166667E+00  0.3333333E+00  0.2775558E-16  0.3472222E-02
    1       -6.575035
    2        1.020381
    3        3.500743
    4        4.073662
    5       14.282098
    6       16.909552
    7       24.445531
    8       24.502136
 
  0.5000000E+00  0.3333333E+00  0.0000000E+00  0.1041667E-01
    1       -5.145980
    2       -0.508501
    3        2.070229
    4        4.074791
    5       14.942338
    6       18.021613
    7       24.453295
    8       24.824982
 
 -0.4166667E+00  0.3333333E+00 -0.2775558E-16  0.6944444E-02
    1       -3.773881
    2       -1.778082
    3        0.812401
    4        4.402279
    5       15.399508
    6       20.472259
    7       23.788413
    8       24.856797
 
 -0.3333333E+00  0.3333333E+00 -0.1813209E-16  0.1736111E-02
    1       -4.332802
    2       -1.220227
    3        0.354645
    4        5.022840
    5       16.023656
    6       22.555687
    7       23.166146
    8       24.604892
 
  0.4166667E+00  0.4166667E+00  0.5551115E-16  0.1736111E-02
    1       -5.559153
    2       -0.290600
    3        3.665590
    4        3.665590
    5       13.894995
    6       15.576574
    7       25.621305
    8       25.621305
 
  0.5000000E+00  0.4166667E+00  0.5551115E-16  0.1041667E-01
    1       -4.243655
    2       -1.636419
    3        2.868053
    4        3.585213
    5       14.449821
    6       15.578132
    7       25.895842
    8       26.029620
 
 -0.4166667E+00  0.4166667E+00 -0.4814338E-16  0.1736111E-02
    1       -2.951964
    2       -2.584829
    3        1.465264
    4        3.838825
    5       14.850267
    6       17.565594
    7       25.239487
    8       25.824149
 
  0.5000000E+00  0.5000000E+00  0.5551115E-16  0.2604167E-02
    1       -3.043369
    2       -3.043369
    3        3.417017
    4        3.417018
    5       14.437567
    6       14.437568
    7       26.418284
    8       26.418284
 
  0.0000000E+00  0.0000000E+00  0.1250000E+00  0.1736111E-02
    1      -11.294301
    2        7.280826
    3        9.037902
    4        9.037902
    5       16.118158
    6       16.118158
    7       16.538549
    8       23.284577
 
  0.8333333E-01  0.6938894E-17  0.1250000E+00  0.3472222E-02
    1      -11.294197
    2        7.967716
    3        8.385558
    4        8.940891
    5       15.103600
    6       16.909941
    7       16.925032
    8       23.064598
 
  0.1666667E+00  0.0000000E+00  0.1250000E+00  0.3472222E-02
    1      -10.912784
    2        7.101379
    3        7.554929
    4        8.183488
    5       14.868819
    6       18.046130
    7       18.052496
    8       22.747710
 
  0.2500000E+00  0.0000000E+00  0.1250000E+00  0.5208333E-02
    1      -10.155366
    2        4.616140
    3        6.825630
    4        7.661659
    5       15.508930
    6       18.987879
    7       19.078550
    8       22.492318
 
  0.3333333E+00  0.0000000E+00  0.1250000E+00  0.3472222E-02
    1       -9.036011
    2        1.924080
    3        6.326350
    4        6.888943
    5       16.351525
    6       19.543984
    7       19.655620
    8       22.724870
 
  0.4166667E+00  0.0000000E+00  0.1250000E+00  0.3472222E-02
    1       -7.593761
    2       -0.662513
    3        6.107287
    4        6.139392
    5       16.915948
    6       19.726634
    7       19.815116
    8       23.668675
 
  0.5000000E+00  0.0000000E+00  0.1250000E+00  0.5208333E-02
    1       -6.030629
    2       -2.820276
    3        5.552116
    4        6.178793
    5       17.283257
    6       19.474559
    7       19.908812
    8       24.816999
 
 -0.4166667E+00  0.0000000E+00  0.1250000E+00  0.3472222E-02
    1       -6.033989
    2       -2.812419
    3        5.198740
    4        6.525717
    5       17.661010
    6       19.072889
    7       19.878158
    8       25.235448
 
 -0.3333333E+00  0.0000000E+00  0.1250000E+00  0.3472222E-02
    1       -7.596491
    2       -0.645555
    3        5.120061
    4        7.109216
    5       18.062138
    6       18.540191
    7       19.708604
    8       24.615402
 
 -0.2500000E+00  0.0000000E+00  0.1250000E+00  0.5208333E-02
    1       -9.037534
    2        1.948579
    3        5.339491
    4        7.856010
    5       17.785053
    6       18.297157
    7       19.255470
    8       23.779034
 
 -0.1666667E+00  0.0000000E+00  0.1250000E+00  0.3472222E-02
    1      -10.156146
    2        4.606340
    3        5.897901
    4        8.622955
    5       16.845919
    6       18.116373
    7       18.317959
    8       23.423255
 
 -0.8333333E-01 -0.6938894E-17  0.1250000E+00  0.3472222E-02
    1      -10.913144
    2        6.360055
    3        7.412673
    4        9.130625
    5       16.113706
    6       17.125267
    7       17.411972
    8       23.383437
 
  0.8333333E-01  0.8333333E-01  0.1250000E+00  0.1736111E-02
    1      -11.421672
    2        8.058240
    3        8.767930
    4        9.450402
    5       15.622705
    6       16.093462
    7       16.371884
    8       23.150150
 
  0.1666667E+00  0.8333333E-01  0.1250000E+00  0.3472222E-02
    1      -11.167011
    2        7.219164
    3        8.068902
    4        9.157569
    5       15.573490
    6       16.900595
    7       17.066828
    8       23.220366
 
  0.2500000E+00  0.8333333E-01  0.1250000E+00  0.6944444E-02
    1      -10.533619
    2        5.476755
    3        6.640339
    4        8.746806
    5       16.160161
    6       17.982330
    7       18.015343
    8       23.274716
 
  0.3333333E+00  0.8333333E-01  0.1250000E+00  0.3472222E-02
    1       -9.531832
    2        2.800834
    3        5.993613
    4        8.021048
    5       17.070877
    6       18.431910
    7       18.975285
    8       23.520991
 
  0.4166667E+00  0.8333333E-01  0.1250000E+00  0.3472222E-02
    1       -8.188258
    2        0.127530
    3        5.646660
    4        7.276923
    5       17.785989
    6       18.458045
    7       19.504572
    8       24.231547
 
  0.5000000E+00  0.8333333E-01  0.1250000E+00  0.6944444E-02
    1       -6.606257
    2       -2.255932
    3        5.573232
    4        6.686526
    5       17.994230
    6       18.454601
    7       19.731698
    8       25.044146
 
 -0.4166667E+00  0.8333333E-01  0.1250000E+00  0.3472222E-02
    1       -5.765318
    2       -3.302478
    3        5.714130
    4        6.377278
    5       17.747208
    6       18.710786
    7       19.805878
    8       25.202975
 
 -0.3333333E+00  0.8333333E-01  0.1250000E+00  0.3472222E-02
    1       -7.141728
    2       -1.521436
    3        5.885476
    4        6.547261
    5       17.441783
    6       18.937488
    7       19.762933
    8       24.488286
 
 -0.2500000E+00  0.8333333E-01  0.1250000E+00  0.6944444E-02
    1       -8.670267
    2        0.991883
    3        6.113770
    4        7.138196
    5       16.980656
    6       18.989716
    7       19.546921
    8       23.528000
 
 -0.1666667E+00  0.8333333E-01  0.1250000E+00  0.3472222E-02
    1       -9.905238
    2        3.702440
    3        6.566023
    4        7.884577
    5       16.206006
    6       18.706658
    7       18.992196
    8       23.002941
 
 -0.8333333E-01  0.8333333E-01  0.1250000E+00  0.3472222E-02
    1      -10.786214
    2        6.334783
    3        7.263351
    4        8.544909
    5       15.364637
    6       17.994184
    7       18.018677
    8       22.966913
 
  0.1666667E+00  0.1666667E+00  0.1250000E+00  0.1736111E-02
    1      -11.040026
    2        6.396480
    3        8.371198
    4        8.930388
    5       15.979023
    6       16.950752
    7       17.092490
    8       23.399891
 
  0.3333333E+00  0.1666667E+00  0.1250000E+00  0.3472222E-02
    1       -9.655702
    2        3.761288
    3        5.136186
    4        8.152452
    5       17.004785
    6       18.449665
    7       19.258046
    8       23.131023
 
  0.4166667E+00  0.1666667E+00  0.1250000E+00  0.3472222E-02
    1       -8.426053
    2        1.168159
    3        4.678375
    4        7.358506
    5       17.937959
    6       18.410273
    7       20.138897
    8       23.592975
 
  0.5000000E+00  0.1666667E+00  0.1250000E+00  0.6944444E-02
    1       -6.906522
    2       -1.307571
    3        4.576270
    4        6.625620
    5       17.931152
    6       18.742342
    7       20.538791
    8       24.628416
 
 -0.4166667E+00  0.1666667E+00  0.1250000E+00  0.3472222E-02
    1       -5.541195
    2       -3.073482
    3        4.757092
    4        6.102717
    5       17.496810
    6       19.219249
    7       20.704947
    8       25.096047
 
 -0.3333333E+00  0.1666667E+00  0.1250000E+00  0.3472222E-02
    1       -6.369041
    2       -2.053726
    3        5.121794
    4        5.923774
    5       17.114049
    6       19.566314
    7       20.735615
    8       24.142248
 
 -0.2500000E+00  0.1666667E+00  0.1250000E+00  0.6944444E-02
    1       -7.942608
    2        0.286178
    3        5.453246
    4        6.284717
    5       16.679748
    6       19.745543
    7       20.596125
    8       22.781935
 
 -0.1666667E+00  0.1666667E+00  0.1250000E+00  0.3472222E-02
    1       -9.281630
    2        2.887743
    3        5.834632
    4        7.008918
    5       15.959879
    6       19.624214
    7       20.152831
    8       22.034855
 
 -0.8333333E-01  0.1666667E+00  0.1250000E+00  0.3472222E-02
    1      -10.280781
    2        5.452303
    3        6.450752
    4        7.702401
    5       15.120775
    6       19.063486
    7       19.250542
    8       22.179941
 
  0.3333333E+00  0.2500000E+00  0.1250000E+00  0.6944444E-02
    1       -9.404942
    2        3.778193
    3        5.101414
    4        7.144067
    5       15.783821
    6       19.634771
    7       20.503121
    8       21.614708
 
  0.4166667E+00  0.2500000E+00  0.1250000E+00  0.6944444E-02
    1       -8.298051
    2        2.213885
    3        3.744903
    4        6.415284
    5       16.776645
    6       19.602427
    7       21.401532
    8       21.873838
 
  0.5000000E+00  0.2500000E+00  0.1250000E+00  0.1041667E-01
    1       -6.877069
    2       -0.127088
    3        3.431892
    4        5.623977
    5       17.633124
    6       19.291796
    7       22.021314
    8       22.984418
 
 -0.4166667E+00  0.2500000E+00  0.1250000E+00  0.6944444E-02
    1       -5.348755
    2       -2.182477
    3        3.392046
    4        5.097029
    5       17.944601
    6       19.115971
    7       22.605406
    8       24.194255
 
  0.3333333E+00  0.3333333E+00  0.1250000E+00  0.1736111E-02
    1       -8.783608
    2        2.985294
    3        5.428757
    4        5.586937
    5       15.030088
    6       20.144752
    7       21.352474
    8       21.388997
 
  0.4166667E+00  0.3333333E+00  0.1250000E+00  0.3472222E-02
    1       -7.804736
    2        2.168570
    3        3.792633
    4        5.094687
    5       15.450805
    6       19.269465
    7       21.663969
    8       23.062460
 
  0.5000000E+00  0.3333333E+00  0.1250000E+00  0.6944444E-02
    1       -6.500524
    2        0.791820
    3        2.657997
    4        4.305680
    5       16.589551
    6       19.306583
    7       21.589033
    8       24.221941
 
 -0.4166667E+00  0.3333333E+00  0.1250000E+00  0.3472222E-02
    1       -4.985276
    2       -1.061227
    3        2.094280
    4        3.852874
    5       17.307146
    6       20.471818
    7       21.648149
    8       24.487671
 
 -0.3333333E+00  0.3333333E+00  0.1250000E+00  0.3472222E-02
    1       -4.225484
    2       -1.900926
    3        1.627460
    4        4.035654
    5       17.770589
    6       20.450395
    7       23.321220
    8       23.713882
 
 -0.2500000E+00  0.3333333E+00  0.1250000E+00  0.6944444E-02
    1       -5.526637
    2       -0.369152
    3        1.458957
    4        4.682416
    5       18.367942
    6       19.554766
    7       22.390259
    8       24.243029
 
 -0.1666667E+00  0.3333333E+00  0.1250000E+00  0.3472222E-02
    1       -6.985758
    2        0.818742
    3        2.500102
    4        5.564858
    5       18.024312
    6       19.101043
    7       21.753663
    8       23.209235
 
 -0.8333333E-01  0.3333333E+00  0.1250000E+00  0.3472222E-02
    1       -8.178924
    2        1.284109
    3        4.609744
    4        6.375833
    5       16.685485
    6       19.678501
    7       21.246429
    8       22.062635
 
  0.4166667E+00  0.4166667E+00  0.1250000E+00  0.1736111E-02
    1       -6.956360
    2        1.308338
    3        3.513205
    4        4.389578
    5       14.721812
    6       18.019340
    7       23.595538
    8       23.686558
 
  0.5000000E+00  0.4166667E+00  0.1250000E+00  0.6944444E-02
    1       -5.779294
    2        0.249390
    3        2.784855
    4        3.594531
    5       15.366250
    6       17.479839
    7       23.690951
    8       25.100314
 
 -0.4166667E+00  0.4166667E+00  0.1250000E+00  0.3472222E-02
    1       -4.347686
    2       -0.942727
    3        1.920096
    4        2.884909
    5       16.624498
    6       18.099352
    7       23.433750
    8       25.289047
 
 -0.3333333E+00  0.4166667E+00  0.1250000E+00  0.3472222E-02
    1       -3.173584
    2       -1.847810
    3        0.751727
    4        3.155016
    5       17.143379
    6       20.494551
    7       22.894079
    8       24.117627
 
 -0.2500000E+00  0.4166667E+00  0.1250000E+00  0.6944444E-02
    1       -4.086093
    2       -1.301411
    3        0.759426
    4        3.856139
    5       17.718130
    6       21.105709
    7       23.197436
    8       23.343805
 
 -0.1666667E+00  0.4166667E+00  0.1250000E+00  0.3472222E-02
    1       -5.455542
    2       -1.270924
    3        2.406923
    4        4.813492
    5       18.249170
    6       19.266199
    7       22.773675
    8       24.035499
 
 -0.8333333E-01  0.4166667E+00  0.1250000E+00  0.3472222E-02
    1       -6.665831
    2       -1.131074
    3        4.374039
    4        5.740887
    5       17.261243
    6       19.455287
    7       21.630755
    8       23.371880
 
  0.5000000E+00  0.5000000E+00  0.1250000E+00  0.5208333E-02
    1       -4.734425
    2       -0.958090
    3        2.378278
    4        3.792026
    5       14.651250
    6       16.677140
    7       25.272003
    8       25.529767
 
 -0.4166667E+00  0.5000000E+00  0.1250000E+00  0.6944444E-02
    1       -3.421560
    2       -2.166464
    3        2.289423
    4        3.058185
    5       15.540009
    6       16.484892
    7       25.299897
    8       25.731501
 
 -0.3333333E+00  0.5000000E+00  0.1250000E+00  0.6944444E-02
    1       -3.195095
    2       -2.023563
    3        1.742483
    4        2.628479
    5       16.688254
    6       17.791066
    7       24.291854
    8       25.016440
 
 -0.2500000E+00  0.5000000E+00  0.1250000E+00  0.1041667E-01
    1       -4.000245
    2       -1.449869
    3        1.311200
    4        3.368668
    5       17.199517
    6       20.559699
    7       22.161947
    8       24.548894
 
 -0.1666667E+00  0.5000000E+00  0.1250000E+00  0.6944444E-02
    1       -4.648456
    2       -2.251060
    3        2.593077
    4        4.436353
    5       17.860099
    6       19.708497
    7       23.192048
    8       24.016361
 
 -0.8333333E-01  0.5000000E+00  0.1250000E+00  0.6944444E-02
    1       -5.314751
    2       -2.857067
    3        4.187177
    4        5.556872
    5       17.622621
    6       19.146922
    7       21.745033
    8       24.706252
 
 -0.4166667E+00 -0.4166667E+00  0.1250000E+00  0.1736111E-02
    1       -3.512260
    2       -2.228732
    3        2.180984
    4        3.670988
    5       14.667259
    6       16.377053
    7       25.678623
    8       26.003088
 
 -0.3333333E+00 -0.4166667E+00  0.1250000E+00  0.3472222E-02
    1       -4.632885
    2       -0.923590
    3        2.456266
    4        3.227124
    5       15.437114
    6       16.861988
    7       24.595746
    8       25.648192
 
 -0.2500000E+00 -0.4166667E+00  0.1250000E+00  0.6944444E-02
    1       -5.460111
    2       -0.000198
    3        2.239930
    4        3.445472
    5       16.578767
    6       18.627040
    7       22.497930
    8       25.012773
 
 -0.1666667E+00 -0.4166667E+00  0.1250000E+00  0.3472222E-02
    1       -5.962562
    2       -0.634354
    3        2.809952
    4        4.647744
    5       17.456684
    6       19.935143
    7       21.762066
    8       23.822448
 
 -0.8333333E-01 -0.4166667E+00  0.1250000E+00  0.3472222E-02
    1       -6.140734
    2       -1.834479
    3        4.017879
    4        5.900970
    5       17.952212
    6       18.809540
    7       21.624623
    8       24.427960
 
 -0.3333333E+00 -0.3333333E+00  0.1250000E+00  0.1736111E-02
    1       -5.889098
    2        0.251137
    3        2.805265
    4        4.032621
    5       14.659316
    6       17.236324
    7       24.541402
    8       24.712271
 
 -0.2500000E+00 -0.3333333E+00  0.1250000E+00  0.6944444E-02
    1       -6.840929
    2        1.282990
    3        3.245202
    4        4.215778
    5       15.370612
    6       18.289136
    7       22.692045
    8       24.192631
 
 -0.1666667E+00 -0.3333333E+00  0.1250000E+00  0.3472222E-02
    1       -7.450496
    2        1.504359
    3        3.159675
    4        5.345906
    5       16.659904
    6       19.926091
    7       20.940957
    8       23.111388
 
 -0.8333333E-01 -0.3333333E+00  0.1250000E+00  0.3472222E-02
    1       -7.702995
    2        0.473739
    3        4.041716
    4        6.579062
    5       17.811757
    6       18.759863
    7       21.277368
    8       23.117478
 
 -0.2500000E+00 -0.2500000E+00  0.1250000E+00  0.5208333E-02
    1       -7.924064
    2        2.190442
    3        4.484699
    4        4.857636
    5       14.847099
    6       19.001676
    7       22.524272
    8       22.545540
 
 -0.1666667E+00 -0.2500000E+00  0.1250000E+00  0.6944444E-02
    1       -8.661584
    2        2.976046
    3        4.411587
    4        6.118575
    5       15.594900
    6       20.319337
    7       20.715637
    8       21.814021
 
 -0.8333333E-01 -0.2500000E+00  0.1250000E+00  0.6944444E-02
    1       -9.035005
    2        2.961877
    3        4.408747
    4        7.386599
    5       16.912447
    6       18.969187
    7       20.506037
    8       22.379891
 
 -0.1666667E+00 -0.1666667E+00  0.1250000E+00  0.1736111E-02
    1       -9.528873
    2        3.781200
    3        6.090953
    4        6.679835
    5       15.257241
    6       20.141784
    7       20.230112
    8       21.378283
 
 -0.8333333E-01 -0.1666667E+00  0.1250000E+00  0.3472222E-02
    1      -10.030076
    2        4.610232
    3        5.852833
    4        8.053937
    5       15.989615
    6       18.744231
    7       19.215871
    8       22.651820
 
 -0.8333333E-01 -0.8333333E-01  0.1250000E+00  0.1736111E-02
    1      -10.659866
    2        5.494117
    3        7.602872
    4        8.443603
    5       15.760008
    6       17.942240
    7       17.968201
    8       23.210119
 
  0.1666667E+00  0.8333333E-01  0.2500000E+00  0.3472222E-02
    1      -10.454450
    2        5.696127
    3        6.380015
    4        8.348479
    5       15.595473
    6       18.432824
    7       18.626582
    8       22.788204
 
  0.3333333E+00  0.8333333E-01  0.2500000E+00  0.6944444E-02
    1       -9.201502
    2        3.954523
    3        4.888248
    4        6.464907
    5       15.156781
    6       20.453753
    7       20.625438
    8       21.217390
 
  0.4166667E+00  0.8333333E-01  0.2500000E+00  0.6944444E-02
    1       -8.037317
    2        1.825517
    3        4.126880
    4        5.737830
    5       16.067964
    6       20.288614
    7       20.870102
    8       22.291076
 
  0.5000000E+00  0.8333333E-01  0.2500000E+00  0.2083333E-01
    1       -6.572574
    2       -0.510058
    3        3.728979
    4        5.128458
    5       16.762644
    6       20.307263
    7       21.749056
    8       22.915627
 
 -0.4166667E+00  0.8333333E-01  0.2500000E+00  0.1388889E-01
    1       -5.111410
    2       -2.393188
    3        3.326300
    4        5.032563
    5       17.199147
    6       20.009893
    7       22.648040
    8       23.904851
 
 -0.3333333E+00  0.8333333E-01  0.2500000E+00  0.6944444E-02
    1       -5.548841
    2       -1.849432
    3        2.993722
    4        5.437803
    5       17.684715
    6       19.511227
    7       22.541952
    8       24.441039
 
 -0.2500000E+00  0.8333333E-01  0.2500000E+00  0.2083333E-01
    1       -7.096857
    2        0.310891
    3        2.922033
    4        6.155966
    5       18.244967
    6       18.741181
    7       22.143789
    8       23.148426
 
 -0.1666667E+00  0.8333333E-01  0.2500000E+00  0.6944444E-02
    1       -8.467859
    2        2.433607
    3        3.475778
    4        6.999760
    5       17.491440
    6       18.856544
    7       21.263254
    8       22.294911
 
 -0.8333333E-01  0.8333333E-01  0.2500000E+00  0.6944444E-02
    1       -9.515170
    2        3.325753
    3        5.526655
    4        7.690883
    5       16.454790
    6       18.924753
    7       19.723839
    8       22.645798
 
  0.4166667E+00  0.3333333E+00  0.2500000E+00  0.6944444E-02
    1       -8.229158
    2        0.697082
    3        5.134109
    4        6.919925