mesh: [     9,     9,     4 ]
nqpoint: 324    
reciprocal_lattice:
- [   0.39588201,  -0.22856259,  -0.16161815 ] # a*
- [   0.00000000,   0.45712517,  -0.16161815 ] # b*
- [   0.00000000,   0.00000000,   0.48485446 ] # c*
natom:   2      
lattice:
- [     2.526005146401671,     0.000000000000000,     0.000000000000000 ] # a
- [     1.263002573152561,     2.187584626883220,     0.000000000000000 ] # b
- [     1.263002573152561,     0.729194875595557,     2.062474565369026 ] # c
points:
- symbol: C  # 1
  coordinates: [  0.000000000000000,  0.000000000000000,  0.000000000000000 ]
  mass: 12.010700
- symbol: C  # 2
  coordinates: [  0.250000000000000,  0.250000000000000,  0.249999985000000 ]
  mass: 12.010700
phonon:
- q-position: [    0.0000000,    0.0000000,    0.1250000 ]
  weight: 1    
  band:
  - # 1
    frequency:     5.7431018659
  - # 2
    frequency:     5.7431018660
  - # 3
    frequency:    10.5797977850
  - # 4
    frequency:    38.2894284592
  - # 5
    frequency:    38.2894284601
  - # 6
    frequency:    38.8190988213

- q-position: [    0.1111111,    0.0000000,    0.1250000 ]
  weight: 1    
  band:
  - # 1
    frequency:     6.9107733597
  - # 2
    frequency:     6.9185827796
  - # 3
    frequency:    10.8880002334
  - # 4
    frequency:    38.1608566408
  - # 5
    frequency:    38.1622768786
  - # 6
    frequency:    38.9583619054

- q-position: [    0.2222222,    0.0000000,    0.1250000 ]
  weight: 1    
  band:
  - # 1
    frequency:    10.5023626931
  - # 2
    frequency:    10.5057422545
  - # 3
    frequency:    16.9513703718
  - # 4
    frequency:    37.5383582959
  - # 5
    frequency:    37.6174017231
  - # 6
    frequency:    39.1713562898

- q-position: [    0.3333333,    0.0000000,    0.1250000 ]
  weight: 1    
  band:
  - # 1
    frequency:    14.1634211073
  - # 2
    frequency:    14.5850308434
  - # 3
    frequency:    23.6578646825
  - # 4
    frequency:    36.5681259669
  - # 5
    frequency:    36.8710736005
  - # 6
    frequency:    38.8531409605

- q-position: [    0.4444444,    0.0000000,    0.1250000 ]
  weight: 1    
  band:
  - # 1
    frequency:    16.7195568695
  - # 2
    frequency:    17.8248371414
  - # 3
    frequency:    29.1084539659
  - # 4
    frequency:    35.6534797472
  - # 5
    frequency:    36.1151835589
  - # 6
    frequency:    37.6327247913

- q-position: [   -0.4444444,    0.0000000,    0.1250000 ]
  weight: 1    
  band:
  - # 1
    frequency:    17.2443993029
  - # 2
    frequency:    19.1283688736
  - # 3
    frequency:    31.2518095842
  - # 4
    frequency:    35.4214871482
  - # 5
    frequency:    35.8328204568
  - # 6
    frequency:    36.5881523865

- q-position: [   -0.3333333,    0.0000000,    0.1250000 ]
  weight: 1    
  band:
  - # 1
    frequency:    15.4909764032
  - # 2
    frequency:    17.9605457889
  - # 3
    frequency:    27.7607479719
  - # 4
    frequency:    36.0727740874
  - # 5
    frequency:    36.3697396903
  - # 6
    frequency:    37.7791751077

- q-position: [   -0.2222222,    0.0000000,    0.1250000 ]
  weight: 1    
  band:
  - # 1
    frequency:    12.1746600822
  - # 2
    frequency:    14.7129827413
  - # 3
    frequency:    21.8470153966
  - # 4
    frequency:    37.0817333733
  - # 5
    frequency:    37.1704795744
  - # 6
    frequency:    38.7460740072

- q-position: [   -0.1111111,    0.0000000,    0.1250000 ]
  weight: 1    
  band:
  - # 1
    frequency:     8.3566793101
  - # 2
    frequency:    10.0938822913
  - # 3
    frequency:    15.4105131337
  - # 4
    frequency:    37.8617120786
  - # 5
    frequency:    37.9050940037
  - # 6
    frequency:    38.9528627589

- q-position: [    0.0000000,    0.1111111,    0.1250000 ]
  weight: 1    
  band:
  - # 1
    frequency:     6.9107733597
  - # 2
    frequency:     6.9185827795
  - # 3
    frequency:    10.8880002334
  - # 4
    frequency:    38.1608566404
  - # 5
    frequency:    38.1622768790
  - # 6
    frequency:    38.9583619053

- q-position: [    0.1111111,    0.1111111,    0.1250000 ]
  weight: 1    
  band:
  - # 1
    frequency:     5.2837703786
  - # 2
    frequency:     5.4726172039
  - # 3
    frequency:     9.8620149272
  - # 4
    frequency:    38.3232611975
  - # 5
    frequency:    38.3349300558
  - # 6
    frequency:    38.7957573913

- q-position: [    0.2222222,    0.1111111,    0.1250000 ]
  weight: 1    
  band:
  - # 1
    frequency:     7.9196059189
  - # 2
    frequency:     9.4911705496
  - # 3
    frequency:    14.6248830641
  - # 4
    frequency:    37.9307905693
  - # 5
    frequency:    37.9779434475
  - # 6
    frequency:    38.9468397609

- q-position: [    0.3333333,    0.1111111,    0.1250000 ]
  weight: 1    
  band:
  - # 1
    frequency:    11.7822599813
  - # 2
    frequency:    14.1165555436
  - # 3
    frequency:    21.2244595128
  - # 4
    frequency:    37.1804751820
  - # 5
    frequency:    37.2473140405
  - # 6
    frequency:    38.8186542322

- q-position: [    0.4444444,    0.1111111,    0.1250000 ]
  weight: 1    
  band:
  - # 1
    frequency:    15.1985459941
  - # 2
    frequency:    17.4854260964
  - # 3
    frequency:    27.3231276489
  - # 4
    frequency:    36.1754495550
  - # 5
    frequency:    36.4301325420
  - # 6
    frequency:    37.9541132805

- q-position: [    0.5555556,    0.1111111,    0.1250000 ]
  weight: 1    
  band:
  - # 1
    frequency:    17.1017417759
  - # 2
    frequency:    18.8724617822
  - # 3
    frequency:    31.1415216577
  - # 4
    frequency:    35.4803145907
  - # 5
    frequency:    35.8811085199
  - # 6
    frequency:    36.6788720391

- q-position: [   -0.3333333,    0.1111111,    0.1250000 ]
  weight: 1    
  band:
  - # 1
    frequency:    16.7310003310
  - # 2
    frequency:    17.8141771172
  - # 3
    frequency:    29.4439624162
  - # 4
    frequency:    35.6488698537
  - # 5
    frequency:    36.0934194197
  - # 6
    frequency:    37.5285703956

- q-position: [   -0.2222222,    0.1111111,    0.1250000 ]
  weight: 1    
  band:
  - # 1
    frequency:    14.2386235289
  - # 2
    frequency:    14.7686779283
  - # 3
    frequency:    24.0995608519
  - # 4
    frequency:    36.5319805520
  - # 5
    frequency:    36.8424465131
  - # 6
    frequency:    38.7846658214

- q-position: [   -0.1111111,    0.1111111,    0.1250000 ]
  weight: 1    
  band:
  - # 1
    frequency:    10.5017812847
  - # 2
    frequency:    10.7897224072
  - # 3
    frequency:    17.3419869253
  - # 4
    frequency:    37.5106975454
  - # 5
    frequency:    37.6053482488
  - # 6
    frequency:    39.1482028244

- q-position: [    0.0000000,    0.2222222,    0.1250000 ]
  weight: 1    
  band:
  - # 1
    frequency:    10.5023626930
  - # 2
    frequency:    10.5057422545
  - # 3
    frequency:    16.9513703720
  - # 4
    frequency:    37.5383582956
  - # 5
    frequency:    37.6174017233
  - # 6
    frequency:    39.1713562900

- q-position: [    0.1111111,    0.2222222,    0.1250000 ]
  weight: 1    
  band:
  - # 1
    frequency:     7.9196059189
  - # 2
    frequency:     9.4911705496
  - # 3
    frequency:    14.6248830642
  - # 4
    frequency:    37.9307905693
  - # 5
    frequency:    37.9779434472
  - # 6
    frequency:    38.9468397612

- q-position: [    0.2222222,    0.2222222,    0.1250000 ]
  weight: 1    
  band:
  - # 1
    frequency:     9.9977907110
  - # 2
    frequency:    10.0930872222
  - # 3
    frequency:    16.7976377852
  - # 4
    frequency:    37.6266208156
  - # 5
    frequency:    37.7252858889
  - # 6
    frequency:    39.0914267324

- q-position: [    0.3333333,    0.2222222,    0.1250000 ]
  weight: 1    
  band:
  - # 1
    frequency:    12.6217707433
  - # 2
    frequency:    14.7967125724
  - # 3
    frequency:    21.2255902492
  - # 4
    frequency:    36.9270910108
  - # 5
    frequency:    37.0655354437
  - # 6
    frequency:    38.9784939901

- q-position: [    0.4444444,    0.2222222,    0.1250000 ]
  weight: 1    
  band:
  - # 1
    frequency:    15.8446004524
  - # 2
    frequency:    19.1642400636
  - # 3
    frequency:    26.1163001407
  - # 4
    frequency:    35.8315191369
  - # 5
    frequency:    36.4416914388
  - # 6
    frequency:    38.0270869855

- q-position: [    0.5555556,    0.2222222,    0.1250000 ]
  weight: 1    
  band:
  - # 1
    frequency:    18.1816645762
  - # 2
    frequency:    21.6227658193
  - # 3
    frequency:    30.3927651044
  - # 4
    frequency:    34.7725962982
  - # 5
    frequency:    35.9855096714
  - # 6
    frequency:    36.2744684736

- q-position: [   -0.3333333,    0.2222222,    0.1250000 ]
  weight: 1    
  band:
  - # 1
    frequency:    18.4202455376
  - # 2
    frequency:    21.5679391178
  - # 3
    frequency:    30.7233243810
  - # 4
    frequency:    34.6577394020
  - # 5
    frequency:    35.7399113960
  - # 6
    frequency:    36.3747315637

- q-position: [   -0.2222222,    0.2222222,    0.1250000 ]
  weight: 1    
  band:
  - # 1
    frequency:    16.3927154945
  - # 2
    frequency:    19.1158553993
  - # 3
    frequency:    26.6723142722
  - # 4
    frequency:    35.6313247666
  - # 5
    frequency:    36.2397451995
  - # 6
    frequency:    38.0892627799

- q-position: [   -0.1111111,    0.2222222,    0.1250000 ]
  weight: 1    
  band:
  - # 1
    frequency:    13.2243551330
  - # 2
    frequency:    15.0051388467
  - # 3
    frequency:    21.6837122543
  - # 4
    frequency:    36.7544947008
  - # 5
    frequency:    36.8981264641
  - # 6
    frequency:    39.0738383881

- q-position: [    0.0000000,    0.3333333,    0.1250000 ]
  weight: 1    
  band:
  - # 1
    frequency:    14.1634211072
  - # 2
    frequency:    14.5850308433
  - # 3
    frequency:    23.6578646827
  - # 4
    frequency:    36.5681259665
  - # 5
    frequency:    36.8710736006
  - # 6
    frequency:    38.8531409608

- q-position: [    0.1111111,    0.3333333,    0.1250000 ]
  weight: 1    
  band:
  - # 1
    frequency:    11.7822599812
  - # 2
    frequency:    14.1165555436
  - # 3
    frequency:    21.2244595131
  - # 4
    frequency:    37.1804751815
  - # 5
    frequency:    37.2473140405
  - # 6
    frequency:    38.8186542327

- q-position: [    0.2222222,    0.3333333,    0.1250000 ]
  weight: 1    
  band:
  - # 1
    frequency:    12.6217707432
  - # 2
    frequency:    14.7967125724
  - # 3
    frequency:    21.2255902493
  - # 4
    frequency:    36.9270910105
  - # 5
    frequency:    37.0655354438
  - # 6
    frequency:    38.9784939903

- q-position: [    0.3333333,    0.3333333,    0.1250000 ]
  weight: 1    
  band:
  - # 1
    frequency:    15.5367932488
  - # 2
    frequency:    16.1711151987
  - # 3
    frequency:    24.1021299535
  - # 4
    frequency:    36.0567682308
  - # 5
    frequency:    36.2473942130
  - # 6
    frequency:    39.1541153170

- q-position: [    0.4444444,    0.3333333,    0.1250000 ]
  weight: 1    
  band:
  - # 1
    frequency:    18.1561475573
  - # 2
    frequency:    20.0994679580
  - # 3
    frequency:    27.4664789830
  - # 4
    frequency:    34.8434106918
  - # 5
    frequency:    35.3915385480
  - # 6
    frequency:    38.4492462275

- q-position: [    0.5555556,    0.3333333,    0.1250000 ]
  weight: 1    
  band:
  - # 1
    frequency:    20.5571267097
  - # 2
    frequency:    24.0173025922
  - # 3
    frequency:    30.2245303211
  - # 4
    frequency:    33.4956233768
  - # 5
    frequency:    34.8490060940
  - # 6
    frequency:    36.7174939693

- q-position: [   -0.3333333,    0.3333333,    0.1250000 ]
  weight: 1    
  band:
  - # 1
    frequency:    20.9706820555
  - # 2
    frequency:    26.0591589187
  - # 3
    frequency:    31.5503180161
  - # 4
    frequency:    32.5756896372
  - # 5
    frequency:    34.5978836505
  - # 6
    frequency:    35.7063386381

- q-position: [   -0.2222222,    0.3333333,    0.1250000 ]
  weight: 1    
  band:
  - # 1
    frequency:    19.1027539255
  - # 2
    frequency:    24.2199216932
  - # 3
    frequency:    28.7967191788
  - # 4
    frequency:    34.1993355581
  - # 5
    frequency:    35.8596889009
  - # 6
    frequency:    36.3731338631

- q-position: [   -0.1111111,    0.3333333,    0.1250000 ]
  weight: 1    
  band:
  - # 1
    frequency:    16.3561935940
  - # 2
    frequency:    19.3317634910
  - # 3
    frequency:    26.3965745036
  - # 4
    frequency:    35.6268103584
  - # 5
    frequency:    36.2503918500
  - # 6
    frequency:    38.1186766611

- q-position: [    0.0000000,    0.4444444,    0.1250000 ]
  weight: 1    
  band:
  - # 1
    frequency:    16.7195568693
  - # 2
    frequency:    17.8248371414
  - # 3
    frequency:    29.1084539663
  - # 4
    frequency:    35.6534797469
  - # 5
    frequency:    36.1151835590
  - # 6
    frequency:    37.6327247916

- q-position: [    0.1111111,    0.4444444,    0.1250000 ]
  weight: 1    
  band:
  - # 1
    frequency:    15.1985459940
  - # 2
    frequency:    17.4854260964
  - # 3
    frequency:    27.3231276493
  - # 4
    frequency:    36.1754495546
  - # 5
    frequency:    36.4301325420
  - # 6
    frequency:    37.9541132809

- q-position: [    0.2222222,    0.4444444,    0.1250000 ]
  weight: 1    
  band:
  - # 1
    frequency:    15.8446004523
  - # 2
    frequency:    19.1642400635
  - # 3
    frequency:    26.1163001410
  - # 4
    frequency:    35.8315191368
  - # 5
    frequency:    36.4416914387
  - # 6
    frequency:    38.0270869859

- q-position: [    0.3333333,    0.4444444,    0.1250000 ]
  weight: 1    
  band:
  - # 1
    frequency:    18.1561475572
  - # 2
    frequency:    20.0994679580
  - # 3
    frequency:    27.4664789831
  - # 4
    frequency:    34.8434106917
  - # 5
    frequency:    35.3915385480
  - # 6
    frequency:    38.4492462275

- q-position: [    0.4444444,    0.4444444,    0.1250000 ]
  weight: 1    
  band:
  - # 1
    frequency:    20.3578560016
  - # 2
    frequency:    21.7453971920
  - # 3
    frequency:    30.2402733449
  - # 4
    frequency:    33.7590018170
  - # 5
    frequency:    33.9072348107
  - # 6
    frequency:    38.1779834409

- q-position: [    0.5555556,    0.4444444,    0.1250000 ]
  weight: 1    
  band:
  - # 1
    frequency:    22.8819643382
  - # 2
    frequency:    24.0059777774
  - # 3
    frequency:    31.9227757184
  - # 4
    frequency:    32.3866026816
  - # 5
    frequency:    33.7105008139
  - # 6
    frequency:    36.7023947337

- q-position: [    0.6666667,    0.4444444,    0.1250000 ]
  weight: 1    
  band:
  - # 1
    frequency:    23.3454756306
  - # 2
    frequency:    26.8328747010
  - # 3
    frequency:    31.4479432579
  - # 4
    frequency:    32.4897471726
  - # 5
    frequency:    33.6929843276
  - # 6
    frequency:    35.3266258699

- q-position: [   -0.2222222,    0.4444444,    0.1250000 ]
  weight: 1    
  band:
  - # 1
    frequency:    21.1746299576
  - # 2
    frequency:    26.5531256192
  - # 3
    frequency:    31.2693728238
  - # 4
    frequency:    32.5575571753
  - # 5
    frequency:    34.5006604037
  - # 6
    frequency:    35.6680844980

- q-position: [   -0.1111111,    0.4444444,    0.1250000 ]
  weight: 1    
  band:
  - # 1
    frequency:    18.5639790507
  - # 2
    frequency:    21.9848111001
  - # 3
    frequency:    30.4748241729
  - # 4
    frequency:    34.5575149463
  - # 5
    frequency:    35.7579363439
  - # 6
    frequency:    36.3716086987

- q-position: [    0.0000000,   -0.4444444,    0.1250000 ]
  weight: 1    
  band:
  - # 1
    frequency:    17.2443993027
  - # 2
    frequency:    19.1283688736
  - # 3
    frequency:    31.2518095846
  - # 4
    frequency:    35.4214871478
  - # 5
    frequency:    35.8328204568
  - # 6
    frequency:    36.5881523869

- q-position: [    0.1111111,    0.5555556,    0.1250000 ]
  weight: 1    
  band:
  - # 1
    frequency:    17.1017417758
  - # 2
    frequency:    18.8724617822
  - # 3
    frequency:    31.1415216580
  - # 4
    frequency:    35.4803145904
  - # 5
    frequency:    35.8811085199
  - # 6
    frequency:    36.6788720395

- q-position: [    0.2222222,    0.5555556,    0.1250000 ]
  weight: 1    
  band:
  - # 1
    frequency:    18.1816645761
  - # 2
    frequency:    21.6227658191
  - # 3
    frequency:    30.3927651048
  - # 4
    frequency:    34.7725962981
  - # 5
    frequency:    35.9855096713
  - # 6
    frequency:    36.2744684739

- q-position: [    0.3333333,    0.5555556,    0.1250000 ]
  weight: 1    
  band:
  - # 1
    frequency:    20.5571267096
  - # 2
    frequency:    24.0173025921
  - # 3
    frequency:    30.2245303214
  - # 4
    frequency:    33.4956233768
  - # 5
    frequency:    34.8490060941
  - # 6
    frequency:    36.7174939693

- q-position: [    0.4444444,    0.5555556,    0.1250000 ]
  weight: 1    
  band:
  - # 1
    frequency:    22.8819643381
  - # 2
    frequency:    24.0059777775
  - # 3
    frequency:    31.9227757184
  - # 4
    frequency:    32.3866026816
  - # 5
    frequency:    33.7105008140
  - # 6
    frequency:    36.7023947336

- q-position: [    0.5555556,    0.5555556,    0.1250000 ]
  weight: 1    
  band:
  - # 1
    frequency:    22.9248794358
  - # 2
    frequency:    24.9678621654
  - # 3
    frequency:    31.5607423308
  - # 4
    frequency:    32.1147044829
  - # 5
    frequency:    34.8228922428
  - # 6
    frequency:    35.9008485639

- q-position: [   -0.3333333,   -0.4444444,    0.1250000 ]
  weight: 1    
  band:
  - # 1
    frequency:    23.3148517171
  - # 2
    frequency:    24.2629688465
  - # 3
    frequency:    32.0311318503
  - # 4
    frequency:    32.1891884322
  - # 5
    frequency:    33.8624155720
  - # 6
    frequency:    36.3839892603

- q-position: [   -0.2222222,   -0.4444444,    0.1250000 ]
  weight: 1    
  band:
  - # 1
    frequency:    21.0837498990
  - # 2
    frequency:    24.5430031547
  - # 3
    frequency:    30.6390753861
  - # 4
    frequency:    33.1821580024
  - # 5
    frequency:    34.6113515717
  - # 6
    frequency:    36.5198398401

- q-position: [   -0.1111111,   -0.4444444,    0.1250000 ]
  weight: 1    
  band:
  - # 1
    frequency:    18.5961440232
  - # 2
    frequency:    22.1797048580
  - # 3
    frequency:    30.6912305964
  - # 4
    frequency:    34.5049731873
  - # 5
    frequency:    35.8503293861
  - # 6
    frequency:    36.1180292192

- q-position: [    0.0000000,   -0.3333333,    0.1250000 ]
  weight: 1    
  band:
  - # 1
    frequency:    15.4909764031
  - # 2
    frequency:    17.9605457888
  - # 3
    frequency:    27.7607479723
  - # 4
    frequency:    36.0727740871
  - # 5
    frequency:    36.3697396902
  - # 6
    frequency:    37.7791751082

- q-position: [    0.1111111,   -0.3333333,    0.1250000 ]
  weight: 1    
  band:
  - # 1
    frequency:    16.7310003308
  - # 2
    frequency:    17.8141771172
  - # 3
    frequency:    29.4439624166
  - # 4
    frequency:    35.6488698533
  - # 5
    frequency:    36.0934194197
  - # 6
    frequency:    37.5285703959

- q-position: [    0.2222222,   -0.3333333,    0.1250000 ]
  weight: 1    
  band:
  - # 1
    frequency:    18.4202455376
  - # 2
    frequency:    21.5679391176
  - # 3
    frequency:    30.7233243814
  - # 4
    frequency:    34.6577394020
  - # 5
    frequency:    35.7399113960
  - # 6
    frequency:    36.3747315637

- q-position: [    0.3333333,   -0.3333333,    0.1250000 ]
  weight: 1    
  band:
  - # 1
    frequency:    20.9706820555
  - # 2
    frequency:    26.0591589185
  - # 3
    frequency:    31.5503180164
  - # 4
    frequency:    32.5756896373
  - # 5
    frequency:    34.5978836506
  - # 6
    frequency:    35.7063386379

- q-position: [    0.4444444,    0.6666667,    0.1250000 ]
  weight: 1    
  band:
  - # 1
    frequency:    23.3454756306
  - # 2
    frequency:    26.8328747009
  - # 3
    frequency:    31.4479432579
  - # 4
    frequency:    32.4897471726
  - # 5
    frequency:    33.6929843276
  - # 6
    frequency:    35.3266258698

- q-position: [   -0.4444444,   -0.3333333,    0.1250000 ]
  weight: 1    
  band:
  - # 1
    frequency:    23.3148517171
  - # 2
    frequency:    24.2629688465
  - # 3
    frequency:    32.0311318503
  - # 4
    frequency:    32.1891884322
  - # 5
    frequency:    33.8624155718
  - # 6
    frequency:    36.3839892603

- q-position: [   -0.3333333,   -0.3333333,    0.1250000 ]
  weight: 1    
  band:
  - # 1
    frequency:    20.8586844568
  - # 2
    frequency:    22.3433265024
  - # 3
    frequency:    30.8623755145
  - # 4
    frequency:    33.4628249824
  - # 5
    frequency:    33.6120609117
  - # 6
    frequency:    37.9533612942

- q-position: [   -0.2222222,   -0.3333333,    0.1250000 ]
  weight: 1    
  band:
  - # 1
    frequency:    18.8203098192
  - # 2
    frequency:    20.7010929497
  - # 3
    frequency:    28.1652637112
  - # 4
    frequency:    34.5259687174
  - # 5
    frequency:    35.1321197178
  - # 6
    frequency:    38.3065287119

- q-position: [   -0.1111111,   -0.3333333,    0.1250000 ]
  weight: 1    
  band:
  - # 1
    frequency:    16.4420687591
  - # 2
    frequency:    19.8066081839
  - # 3
    frequency:    26.6885570856
  - # 4
    frequency:    35.5827383377
  - # 5
    frequency:    36.2892955968
  - # 6
    frequency:    37.8920346267

- q-position: [    0.0000000,   -0.2222222,    0.1250000 ]
  weight: 1    
  band:
  - # 1
    frequency:    12.1746600820
  - # 2
    frequency:    14.7129827413
  - # 3
    frequency:    21.8470153969
  - # 4
    frequency:    37.0817333729
  - # 5
    frequency:    37.1704795743
  - # 6
    frequency:    38.7460740076

- q-position: [    0.1111111,   -0.2222222,    0.1250000 ]
  weight: 1    
  band:
  - # 1
    frequency:    14.2386235288
  - # 2
    frequency:    14.7686779283
  - # 3
    frequency:    24.0995608522
  - # 4
    frequency:    36.5319805516
  - # 5
    frequency:    36.8424465132
  - # 6
    frequency:    38.7846658218

- q-position: [    0.2222222,   -0.2222222,    0.1250000 ]
  weight: 1    
  band:
  - # 1
    frequency:    16.3927154945
  - # 2
    frequency:    19.1158553992
  - # 3
    frequency:    26.6723142724
  - # 4
    frequency:    35.6313247664
  - # 5
    frequency:    36.2397451995
  - # 6
    frequency:    38.0892627801

- q-position: [    0.3333333,   -0.2222222,    0.1250000 ]
  weight: 1    
  band:
  - # 1
    frequency:    19.1027539255
  - # 2
    frequency:    24.2199216932
  - # 3
    frequency:    28.7967191789
  - # 4
    frequency:    34.1993355581
  - # 5
    frequency:    35.8596889009
  - # 6
    frequency:    36.3731338631

- q-position: [    0.4444444,   -0.2222222,    0.1250000 ]
  weight: 1    
  band:
  - # 1
    frequency:    21.1746299577
  - # 2
    frequency:    26.5531256195
  - # 3
    frequency:    31.2693728235
  - # 4
    frequency:    32.5575571752
  - # 5
    frequency:    34.5006604036
  - # 6
    frequency:    35.6680844982

- q-position: [   -0.4444444,   -0.2222222,    0.1250000 ]
  weight: 1    
  band:
  - # 1
    frequency:    21.0837498990
  - # 2
    frequency:    24.5430031548
  - # 3
    frequency:    30.6390753858
  - # 4
    frequency:    33.1821580024
  - # 5
    frequency:    34.6113515716
  - # 6
    frequency:    36.5198398402

- q-position: [   -0.3333333,   -0.2222222,    0.1250000 ]
  weight: 1    
  band:
  - # 1
    frequency:    18.8203098193
  - # 2
    frequency:    20.7010929497
  - # 3
    frequency:    28.1652637111
  - # 4
    frequency:    34.5259687174
  - # 5
    frequency:    35.1321197178
  - # 6
    frequency:    38.3065287119

- q-position: [   -0.2222222,   -0.2222222,    0.1250000 ]
  weight: 1    
  band:
  - # 1
    frequency:    16.1920929524
  - # 2
    frequency:    16.9211129049
  - # 3
    frequency:    24.9523975350
  - # 4
    frequency:    35.7995800662
  - # 5
    frequency:    35.9942355947
  - # 6
    frequency:    39.1033779357

- q-position: [   -0.1111111,   -0.2222222,    0.1250000 ]
  weight: 1    
  band:
  - # 1
    frequency:    13.3128387509
  - # 2
    frequency:    15.4872410911
  - # 3
    frequency:    22.0522550813
  - # 4
    frequency:    36.7201925277
  - # 5
    frequency:    36.9015920292
  - # 6
    frequency:    38.9599151574

- q-position: [    0.0000000,   -0.1111111,    0.1250000 ]
  weight: 1    
  band:
  - # 1
    frequency:     8.3566793100
  - # 2
    frequency:    10.0938822914
  - # 3
    frequency:    15.4105131339
  - # 4
    frequency:    37.8617120786
  - # 5
    frequency:    37.9050940033
  - # 6
    frequency:    38.9528627593

- q-position: [    0.1111111,   -0.1111111,    0.1250000 ]
  weight: 1    
  band:
  - # 1
    frequency:    10.5017812846
  - # 2
    frequency:    10.7897224072
  - # 3
    frequency:    17.3419869255
  - # 4
    frequency:    37.5106975450
  - # 5
    frequency:    37.6053482490
  - # 6
    frequency:    39.1482028246

- q-position: [    0.2222222,   -0.1111111,    0.1250000 ]
  weight: 1    
  band:
  - # 1
    frequency:    13.2243551330
  - # 2
    frequency:    15.0051388467
  - # 3
    frequency:    21.6837122543
  - # 4
    frequency:    36.7544947008
  - # 5
    frequency:    36.8981264641
  - # 6
    frequency:    39.0738383881

- q-position: [    0.3333333,   -0.1111111,    0.1250000 ]
  weight: 1    
  band:
  - # 1
    frequency:    16.3561935940
  - # 2
    frequency:    19.3317634911
  - # 3
    frequency:    26.3965745034
  - # 4
    frequency:    35.6268103585
  - # 5
    frequency:    36.2503918500
  - # 6
    frequency:    38.1186766610

- q-position: [    0.4444444,   -0.1111111,    0.1250000 ]
  weight: 1    
  band:
  - # 1
    frequency:    18.5639790507
  - # 2
    frequency:    21.9848111003
  - # 3
    frequency:    30.4748241726
  - # 4
    frequency:    34.5575149463
  - # 5
    frequency:    35.7579363439
  - # 6
    frequency:    36.3716086986

- q-position: [   -0.4444444,   -0.1111111,    0.1250000 ]
  weight: 1    
  band:
  - # 1
    frequency:    18.5961440233
  - # 2
    frequency:    22.1797048582
  - # 3
    frequency:    30.6912305960
  - # 4
    frequency:    34.5049731873
  - # 5
    frequency:    35.8503293861
  - # 6
    frequency:    36.1180292192

- q-position: [   -0.3333333,   -0.1111111,    0.1250000 ]
  weight: 1    
  band:
  - # 1
    frequency:    16.4420687592
  - # 2
    frequency:    19.8066081840
  - # 3
    frequency:    26.6885570853
  - # 4
    frequency:    35.5827383378
  - # 5
    frequency:    36.2892955969
  - # 6
    frequency:    37.8920346264

- q-position: [   -0.2222222,   -0.1111111,    0.1250000 ]
  weight: 1    
  band:
  - # 1
    frequency:    13.3128387510
  - # 2
    frequency:    15.4872410911
  - # 3
    frequency:    22.0522550811
  - # 4
    frequency:    36.7201925279
  - # 5
    frequency:    36.9015920292
  - # 6
    frequency:    38.9599151572

- q-position: [   -0.1111111,   -0.1111111,    0.1250000 ]
  weight: 1    
  band:
  - # 1
    frequency:    10.7608372465
  - # 2
    frequency:    10.7773789828
  - # 3
    frequency:    17.7384130862
  - # 4
    frequency:    37.4793564643
  - # 5
    frequency:    37.5925802636
  - # 6
    frequency:    39.1294154927

- q-position: [    0.0000000,    0.0000000,    0.3750000 ]
  weight: 1    
  band:
  - # 1
    frequency:    14.8517439773
  - # 2
    frequency:    14.8517439777
  - # 3
    frequency:    27.7030932281
  - # 4
    frequency:    36.3678498721
  - # 5
    frequency:    36.3678498729
  - # 6
    frequency:    38.3917512512

- q-position: [    0.1111111,    0.0000000,    0.3750000 ]
  weight: 1    
  band:
  - # 1
    frequency:    15.1561836298
  - # 2
    frequency:    15.6655169691
  - # 3
    frequency:    26.0510837687
  - # 4
    frequency:    36.2457966214
  - # 5
    frequency:    36.6024492680
  - # 6
    frequency:    38.4841238749

- q-position: [    0.2222222,    0.0000000,    0.3750000 ]
  weight: 1    
  band:
  - # 1
    frequency:    16.8906031634
  - # 2
    frequency:    17.9792313537
  - # 3
    frequency:    26.0936849279
  - # 4
    frequency:    35.5158923246
  - # 5
    frequency:    35.7879833189
  - # 6
    frequency:    38.8466197609

- q-position: [    0.3333333,    0.0000000,    0.3750000 ]
  weight: 1    
  band:
  - # 1
    frequency:    19.3286629100
  - # 2
    frequency:    19.4814562007
  - # 3
    frequency:    28.8223412298
  - # 4
    frequency:    34.3177637266
  - # 5
    frequency:    34.3406226102
  - # 6
    frequency:    38.9804109000

- q-position: [    0.4444444,    0.0000000,    0.3750000 ]
  weight: 1    
  band:
  - # 1
    frequency:    21.5046648392
  - # 2
    frequency:    22.0299062122
  - # 3
    frequency:    31.6961208192
  - # 4
    frequency:    33.0568205337
  - # 5
    frequency:    33.1606793338
  - # 6
    frequency:    38.0330846227

- q-position: [    0.5555556,    0.0000000,    0.3750000 ]
  weight: 1    
  band:
  - # 1
    frequency:    22.2061274636
  - # 2
    frequency:    25.9556198276
  - # 3
    frequency:    31.5517395110
  - # 4
    frequency:    32.6102553780
  - # 5
    frequency:    33.6043885420
  - # 6
    frequency:    36.2952375843

- q-position: [   -0.3333333,    0.0000000,    0.3750000 ]
  weight: 1    
  band:
  - # 1
    frequency:    20.8616019770
  - # 2
    frequency:    28.1828343987
  - # 3
    frequency:    30.8525911283
  - # 4
    frequency:    32.4656823558
  - # 5
    frequency:    33.4587017998
  - # 6
    frequency:    36.2026832281

- q-position: [   -0.2222222,    0.0000000,    0.3750000 ]
  weight: 1    
  band:
  - # 1
    frequency:    18.4461678561
  - # 2
    frequency:    23.5074005895
  - # 3
    frequency:    30.5004094394
  - # 4
    frequency:    34.7887813332
  - # 5
    frequency:    34.9251780665
  - # 6
    frequency:    36.3430179061

- q-position: [   -0.1111111,    0.0000000,    0.3750000 ]
  weight: 1    
  band:
  - # 1
    frequency:    16.1343552201
  - # 2
    frequency:    18.0606424665
  - # 3
    frequency:    29.3417068056
  - # 4
    frequency:    35.8561393607
  - # 5
    frequency:    36.1356828163
  - # 6
    frequency:    37.4394015722

- q-position: [    0.0000000,    0.1111111,    0.3750000 ]
  weight: 1    
  band:
  - # 1