   32   32    1    1
  0.8905205E+01  0.4932875E-09  0.4932875E-09  0.1352877E-08  0.5000000E-15
  1.000000000000000E-004
  CAR 
 graphite                                
    128    163     81
 
  0.0000000E+00  0.0000000E+00  0.0000000E+00  0.3086420E-02
    1      -15.016701
    2      -14.880869
    3      -14.879765
    4      -14.734922
    5       -9.697561
    6       -9.689370
    7       -9.686214
    8       -9.641585
    9       -9.641183
   10       -9.633712
   11       -9.629495
   12       -9.629487
   13       -9.628099
   14       -9.594024
   15       -9.583060
   16       -9.580655
   17       -8.624279
   18       -8.620863
   19       -8.619233
   20       -8.595842
   21       -8.591425
   22       -8.590130
   23       -8.588826
   24       -8.588823
   25       -8.585968
   26       -8.545972
   27       -8.541318
   28       -8.538777
   29       -3.859826
   30       -3.008368
   31       -3.006529
   32       -1.973861
   33       -1.796951
   34       -1.794162
   35       -1.775206
   36       -1.772958
   37       -1.768435
   38       -1.768429
   39       -1.768273
   40       -1.749737
   41       -1.748491
   42       -1.744609
   43       -1.742213
   44       -1.722961
   45        1.592302
   46        1.603321
   47        1.608422
   48        1.615004
   49        1.617268
   50        1.624551
   51        1.627889
   52        1.638235
   53        1.866300
   54        1.867774
   55        1.869631
   56        2.249606
   57        2.250698
   58        2.253056
   59        2.257206
   60        2.257235
   61        2.257945
   62        2.514793
   63        2.529045
   64        2.530840
   65        6.118460
   66        6.120563
   67        6.121279
   68        6.256374
   69        6.262780
   70        6.266740
   71        6.268031
   72        6.268447
   73        6.273736
   74        6.762573
   75        6.775923
   76        6.779055
   77        8.844780
   78       11.417077
   79       11.420421
   80       11.816405
   81       11.828567
 
  0.1111111E+00  0.1387779E-16  0.0000000E+00  0.6172840E-02
    1      -14.943090
    2      -14.807749
    3      -14.806648
    4      -14.662515
    5      -10.483436
    6      -10.387058
    7      -10.385738
    8      -10.285820
    9       -9.945275
   10       -9.936994
   11       -9.862320
   12       -9.861352
   13       -9.853063
   14       -9.852543
   15       -9.777814
   16       -9.768538
   17       -8.319650
   18       -8.313195
   19       -8.254800
   20       -8.251153
   21       -8.246507
   22       -8.245686
   23       -8.179242
   24       -8.172239
   25       -7.799830
   26       -7.724275
   27       -7.723326
   28       -7.644139
   29       -3.770455
   30       -2.921262
   31       -2.919423
   32       -2.021421
   33       -2.002028
   34       -1.993314
   35       -1.992219
   36       -1.973936
   37       -1.972558
   38       -1.963774
   39       -1.944215
   40       -1.890157
   41       -1.723635
   42       -1.699644
   43       -1.696107
   44       -1.672167
   45        1.278479
   46        1.311358
   47        1.322251
   48        1.325623
   49        1.337486
   50        1.440410
   51        1.451204
   52        1.456271
   53        1.465203
   54        1.751598
   55        1.754032
   56        1.827538
   57        1.830347
   58        2.197937
   59        2.198906
   60        2.204657
   61        2.205220
   62        2.371877
   63        2.565048
   64        2.578012
   65        6.197076
   66        6.198585
   67        6.387886
   68        6.394077
   69        6.398355
   70        6.400686
   71        6.496157
   72        6.808663
   73        6.812339
   74        6.898232
   75        6.910081
   76        7.374336
   77        8.933876
   78       11.494864
   79       11.498197
   80       11.856760
   81       12.035773
 
  0.2222222E+00  0.2775558E-16  0.0000000E+00  0.6172840E-02
    1      -14.722437
    2      -14.588850
    3      -14.587758
    4      -14.445634
    5      -11.494445
    6      -11.386752
    7      -11.385706
    8      -11.272995
    9      -10.291995
   10      -10.286247
   11      -10.197760
   12      -10.196301
   13      -10.191113
   14      -10.190579
   15      -10.098263
   16      -10.092153
   17       -7.638811
   18       -7.629553
   19       -7.566931
   20       -7.563665
   21       -7.556385
   22       -7.555423
   23       -7.487971
   24       -7.478670
   25       -6.474255
   26       -6.403732
   27       -6.402925
   28       -6.329747
   29       -3.503153
   30       -2.661033
   31       -2.659183
   32       -2.628028
   33       -2.609840
   34       -2.593374
   35       -2.592364
   36       -2.575153
   37       -2.573689
   38       -2.556644
   39       -2.538206
   40       -1.640059
   41       -1.508754
   42       -1.485319
   43       -1.481641
   44       -1.458139
   45        0.261933
   46        0.485104
   47        0.503748
   48        0.506942
   49        0.526178
   50        0.938427
   51        0.940614
   52        1.020782
   53        1.034750
   54        1.040077
   55        1.053004
   56        1.531665
   57        1.534702
   58        1.705545
   59        2.076908
   60        2.077386
   61        2.082142
   62        2.083175
   63        2.616957
   64        2.625837
   65        6.445645
   66        6.449414
   67        6.722684
   68        6.728484
   69        6.732603
   70        6.734769
   71        7.208118
   72        7.216345
   73        7.630858
   74        8.031260
   75        8.034244
   76        8.586000
   77        9.201863
   78       11.727044
   79       11.730374
   80       11.972421
   81       12.144953
 
  0.3333333E+00  0.0000000E+00  0.0000000E+00  0.6172840E-02
    1      -14.355951
    2      -14.225259
    3      -14.224181
    4      -14.085358
    5      -12.407399
    6      -12.292204
    7      -12.291198
    8      -12.169686
    9      -10.548287
   10      -10.544656
   11      -10.449887
   12      -10.448060
   13      -10.445137
   14      -10.444746
   15      -10.345170
   16      -10.341412
   17       -6.830880
   18       -6.820168
   19       -6.764864
   20       -6.761471
   21       -6.753091
   22       -6.751819
   23       -6.693071
   24       -6.682597
   25       -5.040494
   26       -4.979494
   27       -4.978503
   28       -4.915646
   29       -3.443371
   30       -3.427444
   31       -3.402173
   32       -3.401547
   33       -3.386533
   34       -3.384931
   35       -3.358905
   36       -3.342735
   37       -3.060518
   38       -2.230951
   39       -2.229091
   40       -1.227640
   41       -1.159625
   42       -1.137403
   43       -1.133506
   44       -1.110842
   45       -0.758478
   46       -0.700323
   47       -0.671648
   48       -0.668907
   49       -0.640001
   50       -0.015108
   51       -0.013153
   52        0.458458
   53        0.475377
   54        0.480337
   55        0.497071
   56        0.859229
   57        1.341213
   58        1.343873
   59        1.952785
   60        1.953408
   61        1.956527
   62        1.958128
   63        2.618673
   64        2.624052
   65        6.804647
   66        6.809887
   67        7.114729
   68        7.120081
   69        7.123032
   70        7.124895
   71        7.518981
   72        7.523641
   73        9.137740
   74        9.508993
   75        9.511691
   76        9.649112
   77        9.995443
   78       11.941742
   79       12.094957
   80       12.099457
   81       12.227189
 
  0.4444444E+00  0.5551115E-16  0.0000000E+00  0.6172840E-02
    1      -13.845522
    2      -13.718919
    3      -13.717847
    4      -13.583610
    5      -13.194232
    6      -13.072759
    7      -13.071756
    8      -12.943299
    9      -10.680176
   10      -10.678147
   11      -10.580565
   12      -10.578192
   13      -10.577179
   14      -10.576846
   15      -10.473484
   16      -10.471426
   17       -6.081044
   18       -6.073050
   19       -6.033842
   20       -6.029740
   21       -6.025184
   22       -6.022974
   23       -5.982822
   24       -5.975829
   25       -4.190909
   26       -4.182207
   27       -4.156974
   28       -4.156401
   29       -4.148412
   30       -4.146348
   31       -4.118507
   32       -4.108827
   33       -3.559591
   34       -3.509270
   35       -3.507883
   36       -3.456219
   37       -2.447668
   38       -2.086980
   39       -2.048034
   40       -2.046154
   41       -2.005565
   42       -1.674257
   43       -1.636336
   44       -1.634603
   45       -0.890712
   46       -0.888837
   47       -0.693599
   48       -0.672411
   49       -0.668183
   50       -0.660823
   51       -0.646948
   52       -0.138346
   53       -0.118929
   54       -0.114467
   55       -0.094856
   56        0.045332
   57        1.235804
   58        1.237860
   59        1.877972
   60        1.879378
   61        1.880489
   62        1.882838
   63        2.604262
   64        2.607064
   65        7.090922
   66        7.094576
   67        7.382773
   68        7.388076
   69        7.388659
   70        7.389950
   71        7.692963
   72        7.695648
   73       10.272113
   74       10.760474
   75       11.044883
   76       11.049647
   77       11.067295
   78       11.453633
   79       12.346265
   80       12.357332
   81       12.404203
 
 -0.6776264E-20  0.1111111E+00  0.0000000E+00  0.6172840E-02
    1      -14.943092
    2      -14.807752
    3      -14.806648
    4      -14.662516
    5      -10.483356
    6      -10.386886
    7      -10.385735
    8      -10.285724
    9       -9.945262
   10       -9.937294
   11       -9.862312
   12       -9.861351
   13       -9.853674
   14       -9.852560
   15       -9.777783
   16       -9.768913
   17       -8.319772
   18       -8.311958
   19       -8.255092
   20       -8.251153
   21       -8.245698
   22       -8.243841
   23       -8.179337
   24       -8.170893
   25       -7.800768
   26       -7.725251
   27       -7.724250
   28       -7.645102
   29       -3.770450
   30       -2.921254
   31       -2.919420
   32       -2.022737
   33       -2.001918
   34       -1.995713
   35       -1.992220
   36       -1.973936
   37       -1.972623
   38       -1.965049
   39       -1.944371
   40       -1.890151
   41       -1.722155
   42       -1.697086
   43       -1.696107
   44       -1.671026
   45        1.279071
   46        1.309436
   47        1.320443
   48        1.322252
   49        1.333172
   50        1.445270
   51        1.456198
   52        1.456273
   53        1.467175
   54        1.751354
   55        1.753040
   56        1.829387
   57        1.830451
   58        2.197918
   59        2.198910
   60        2.202394
   61        2.205000
   62        2.372964
   63        2.565067
   64        2.576837
   65        6.197865
   66        6.199617
   67        6.388320
   68        6.394029
   69        6.399354
   70        6.403473
   71        6.494394
   72        6.807314
   73        6.810158
   74        6.898372
   75        6.912187
   76        7.372546
   77        8.933882
   78       11.494892
   79       11.498223
   80       11.857200
   81       12.037037
 
  0.1111111E+00  0.1111111E+00  0.0000000E+00  0.6172840E-02
    1      -14.795838
    2      -14.661650
    3      -14.660555
    4      -14.517751
    5      -10.948726
    6      -10.945724
    7      -10.847788
    8      -10.843733
    9      -10.843710
   10      -10.841788
   11      -10.738048
   12      -10.735037
   13       -9.508319
   14       -9.453226
   15       -9.452795
   16       -9.406792
   17       -8.440066
   18       -8.412673
   19       -8.408590
   20       -8.365110
   21       -7.117594
   22       -7.114453
   23       -7.045343
   24       -7.041950
   25       -7.041928
   26       -7.038890
   27       -6.966581
   28       -6.963238
   29       -3.591988
   30       -2.747509
   31       -2.745666
   32       -2.685240
   33       -2.650090
   34       -2.648867
   35       -2.613081
   36       -1.878270
   37       -1.875278
   38       -1.852147
   39       -1.847359
   40       -1.847354
   41       -1.846940
   42       -1.821048
   43       -1.818668
   44       -1.723127
   45        0.782307
   46        0.793326
   47        0.796181
   48        0.807328
   49        0.845710
   50        0.849188
   51        1.125484
   52        1.135492
   53        1.140336
   54        1.148488
   55        1.467486
   56        1.471270
   57        1.471378
   58        1.472508
   59        2.134935
   60        2.144740
   61        2.147117
   62        2.515673
   63        2.517417
   64        2.776225
   65        6.101776
   66        6.184518
   67        6.190126
   68        6.592814
   69        6.979443
   70        6.981819
   71        7.349321
   72        7.351358
   73        7.352082
   74        7.355974
   75        7.899558
   76        7.902253
   77        9.112739
   78       11.651222
   79       11.654549
   80       12.228980
   81       12.233423
 
  0.2222222E+00  0.1111111E+00  0.0000000E+00  0.6172840E-02
    1      -14.502189
    2      -14.370316
    3      -14.369236
    4      -14.229076
    5      -11.913954
    6      -11.802880
    7      -11.801831
    8      -11.685104
    9      -11.289528
   10      -11.183840
   11      -11.182725
   12      -11.071741
   13       -9.559251
   14       -9.479236
   15       -9.478877
   16       -9.398426
   17       -7.972758
   18       -7.912424
   19       -7.908835
   20       -7.842188
   21       -6.332642
   22       -6.265511
   23       -6.264125
   24       -6.194596
   25       -5.733590
   26       -5.668416
   27       -5.667587
   28       -5.600361
   29       -3.593444
   30       -3.550528
   31       -3.549342
   32       -3.505258
   33       -3.236845
   34       -2.403098
   35       -2.402047
   36       -2.400327
   37       -2.369163
   38       -2.368513
   39       -2.334133
   40       -1.591209
   41       -1.565576
   42       -1.561969
   43       -1.536075
   44       -1.391685
   45       -0.195054
   46       -0.171911
   47       -0.152945
   48       -0.148971
   49       -0.129850
   50        0.511657
   51        0.518477
   52        0.520194
   53        0.581903
   54        0.595275
   55        0.600815
   56        0.613581
   57        1.182590
   58        1.183813
   59        1.345054
   60        1.942112
   61        2.271562
   62        2.718006
   63        2.719638
   64        3.084205
   65        6.077687
   66        6.193277
   67        6.198537
   68        6.539989
   69        7.554727
   70        7.919989
   71        7.922795
   72        8.336537
   73        8.389530
   74        8.722152
   75        8.724726
   76        9.223224
   77        9.471336
   78       11.961250
   79       11.964652
   80       12.346031
   81       12.547214
 
  0.3333333E+00  0.1111111E+00  0.0000000E+00  0.6172840E-02
    1      -14.063644
    2      -13.935218
    3      -13.934155
    4      -13.797977
    5      -12.764509
    6      -12.646404
    7      -12.645376
    8      -12.520867
    9      -11.498493
   10      -11.390826
   11      -11.389676
   12      -11.276752
   13       -9.703228
   14       -9.613900
   15       -9.613102
   16       -9.520484
   17       -7.206772
   18       -7.146161
   19       -7.142713
   20       -7.079709
   21       -5.533427
   22       -5.478471
   23       -5.476380
   24       -5.420283
   25       -4.531746
   26       -4.487145
   27       -4.485806
   28       -4.438770
   29       -4.283861
   30       -4.229092
   31       -4.228064
   32       -4.171913
   33       -3.101290
   34       -3.064740
   35       -3.064524
   36       -3.025989
   37       -2.708756
   38       -1.890041
   39       -1.888113
   40       -1.419125
   41       -1.387315
   42       -1.384568
   43       -1.353473
   44       -1.174896
   45       -1.168628
   46       -1.150692
   47       -1.146920
   48       -1.122589
   49       -0.901534
   50       -0.405469
   51       -0.403614
   52       -0.041953
   53       -0.023806
   54       -0.018527
   55       -0.000488
   56        0.303025
   57        0.500406
   58        0.998480
   59        0.999715
   60        1.802883
   61        2.270751
   62        2.808192
   63        2.809473
   64        3.349904
   65        6.073853
   66        6.313224
   67        6.317638
   68        6.641129
   69        8.062255
   70        8.374588
   71        8.377453
   72        8.720755
   73        9.901434
   74       10.008207
   75       10.228361
   76       10.231052
   77       10.646626
   78       11.590770
   79       12.381019
   80       12.386279
   81       12.628556
 
  0.4444444E+00  0.1111111E+00  0.0000000E+00  0.6172840E-02
    1      -13.484672
    2      -13.481722
    3      -13.362143
    4      -13.358809
    5      -13.357861
    6      -13.356459
    7      -13.228756
    8      -13.225772
    9      -11.569006
   10      -11.461002
   11      -11.459834
   12      -11.346187
   13       -9.758088
   14       -9.666978
   15       -9.666003
   16       -9.571222
   17       -6.697272
   18       -6.658740
   19       -6.655430
   20       -6.618937
   21       -5.061772
   22       -5.054755
   23       -5.031316
   24       -5.031207
   25       -5.029028
   26       -5.026426
   27       -5.000124
   28       -4.996143
   29       -3.515730
   30       -3.494525
   31       -3.492504
   32       -3.466538
   33       -2.824559
   34       -2.821414
   35       -2.781227
   36       -2.780708
   37       -2.778724
   38       -2.775009
   39       -2.735606
   40       -2.731714
   41       -2.016417
   42       -2.013988
   43       -1.221180
   44       -1.217845
   45       -1.217026
   46       -1.215421
   47       -0.650986
   48       -0.643988
   49       -0.628825
   50       -0.621731
   51       -0.620279
   52       -0.619571
   53       -0.600276
   54       -0.596365
   55       -0.265169
   56       -0.262486
   57        0.231438
   58        0.934788
   59        0.936014
   60        1.753134
   61        2.259507
   62        2.831310
   63        2.832208
   64        3.448028
   65        6.086335
   66        6.381688
   67        6.385042
   68        6.696929
   69        8.280193
   70        8.551299
   71        8.554532
   72        8.824856
   73       10.718247
   74       10.719880
   75       11.493021
   76       11.496286
   77       11.717456
   78       11.721168
   79       11.722423
   80       11.728262
   81       12.063806
 
 -0.4444444E+00  0.1111111E+00  0.0000000E+00  0.6172840E-02
    1      -14.064413
    2      -13.935994
    3      -13.934908
    4      -13.798748
    5      -12.763305
    6      -12.645184
    7      -12.644192
    8      -12.519672
    9      -11.500270
   10      -11.392626
   11      -11.391456
   12      -11.278552
   13       -9.700543
   14       -9.611133
   15       -9.610089
   16       -9.517477
   17       -7.198391
   18       -7.136985
   19       -7.135230
   20       -7.071543
   21       -5.544781
   22       -5.490305
   23       -5.486764
   24       -5.431073
   25       -4.543905
   26       -4.499043
   27       -4.498694
   28       -4.451367
   29       -4.286075
   30       -4.231519
   31       -4.230142
   32       -4.174120
   33       -3.086886
   34       -3.050944
   35       -3.049014
   36       -3.011022
   37       -2.709504
   38       -1.890744
   39       -1.888857
   40       -1.419057
   41       -1.386687
   42       -1.385361
   43       -1.353808
   44       -1.172875
   45       -1.167550
   46       -1.148809
   47       -1.144663
   48       -1.120490
   49       -0.902235
   50       -0.404471
   51       -0.402530
   52       -0.041594
   53       -0.023422
   54       -0.019526
   55       -0.001076
   56        0.301630
   57        0.501366
   58        0.996839
   59        0.998044
   60        1.800731
   61        2.271456
   62        2.810930
   63        2.811609
   64        3.355888
   65        6.075048
   66        6.317049
   67        6.319688
   68        6.642800
   69        8.056751
   70        8.369405
   71        8.373286
   72        8.718356
   73        9.901839
   74       10.007188
   75       10.227859
   76       10.230710
   77       10.645524
   78       11.592231
   79       12.380766
   80       12.386000
   81       12.624591
 
 -0.3333333E+00  0.1111111E+00  0.0000000E+00  0.6172840E-02
    1      -14.502730
    2      -14.370865
    3      -14.369769
    4      -14.229628
    5      -11.912533
    6      -11.801432
    7      -11.800432
    8      -11.683679
    9      -11.293115
   10      -11.187469
   11      -11.186323
   12      -11.075384
   13       -9.553455
   14       -9.473292
   15       -9.472226
   16       -9.391503
   17       -7.965974
   18       -7.904074
   19       -7.902872
   20       -7.834678
   21       -6.344237
   22       -6.277821
   23       -6.274782
   24       -6.205968
   25       -5.735904
   26       -5.670809
   27       -5.669843
   28       -5.602697
   29       -3.609324
   30       -3.566366
   31       -3.565485
   32       -3.521254
   33       -3.237385
   34       -2.402714
   35       -2.400876
   36       -2.384560
   37       -2.351266
   38       -2.349679
   39       -2.315672
   40       -1.589506
   41       -1.563964
   42       -1.560127
   43       -1.534348
   44       -1.392199
   45       -0.194083
   46       -0.175582
   47       -0.155863
   48       -0.154466
   49       -0.135076
   50        0.509515
   51        0.519098
   52        0.521325
   53        0.587674
   54        0.600362
   55        0.603476
   56        0.616844
   57        1.179368
   58        1.180572
   59        1.346009
   60        1.937710
   61        2.271987
   62        2.723028
   63        2.723764
   64        3.095948
   65        6.076884
   66        6.199599
   67        6.202148
   68        6.546103
   69        7.547661
   70        7.911619
   71        7.916072
   72        8.336398
   73        8.383595
   74        8.721272
   75        8.724032
   76        9.221899
   77        9.470587
   78       11.960669
   79       11.964051
   80       12.343953
   81       12.546715
 
 -0.2222222E+00  0.1111111E+00  0.0000000E+00  0.6172840E-02
    1      -14.796170
    2      -14.661989
    3      -14.660884
    4      -14.518086
    5      -10.952595
    6      -10.945580
    7      -10.850279
    8      -10.849204
    9      -10.843217
   10      -10.842109
   11      -10.742148
   12      -10.735018
   13       -9.498772
   14       -9.442904
   15       -9.441849
   16       -9.394888
   17       -8.436976
   18       -8.407488
   19       -8.406450
   20       -8.360727
   21       -7.126338
   22       -7.117654
   23       -7.053854
   24       -7.050988
   25       -7.044119
   26       -7.043273
   27       -6.975291
   28       -6.966716
   29       -3.592315
   30       -2.747824
   31       -2.745996
   32       -2.703034
   33       -2.667850
   34       -2.666794
   35       -2.630977
   36       -1.876257
   37       -1.856334
   38       -1.849773
   39       -1.846164
   40       -1.828898
   41       -1.827404
   42       -1.819431
   43       -1.799634
   44       -1.723441
   45        0.770107
   46        0.781431
   47        0.783388
   48        0.794138
   49        0.844047
   50        0.848128
   51        1.140714
   52        1.149424
   53        1.150165
   54        1.159819
   55        1.465692
   56        1.466968
   57        1.470109
   58        1.472613
   59        2.134717
   60        2.139670
   61        2.146207
   62        2.522064
   63        2.522966
   64        2.791452
   65        6.099065
   66        6.192216
   67        6.194938
   68        6.603349
   69        6.973789
   70        6.981223
   71        7.340325
   72        7.345178
   73        7.350579
   74        7.353882
   75        7.891586
   76        7.900323
   77        9.112274
   78       11.650795
   79       11.654115
   80       12.229018
   81       12.265078
 
 -0.1111111E+00  0.1111111E+00  0.0000000E+00  0.6172840E-02
    1      -14.943202
    2      -14.807863
    3      -14.806755
    4      -14.662624
    5      -10.490716
    6      -10.394272
    7      -10.393358
    8      -10.293405
    9       -9.937002
   10       -9.934692
   11       -9.854840
   12       -9.851199
   13       -9.851180
   14       -9.850286
   15       -9.768642
   16       -9.766424
   17       -8.315094
   18       -8.313289
   19       -8.249044
   20       -8.247327
   21       -8.247316
   22       -8.245248
   23       -8.174372
   24       -8.172406
   25       -7.808433
   26       -7.733854
   27       -7.730940
   28       -7.652802
   29       -3.770559
   30       -2.921360
   31       -2.919531
   32       -2.023079
   33       -2.020388
   34       -1.996484
   35       -1.991875
   36       -1.991864
   37       -1.991795
   38       -1.965132
   39       -1.963007
   40       -1.890257
   41       -1.702449
   42       -1.677515
   43       -1.676048
   44       -1.651118
   45        1.274505
   46        1.294065
   47        1.305084
   48        1.310137
   49        1.320134
   50        1.458615
   51        1.468416
   52        1.471787
   53        1.483113
   54        1.752507
   55        1.755015
   56        1.823431
   57        1.824850
   58        2.201038
   59        2.205376
   60        2.205547
   61        2.205888
   62        2.363305
   63        2.576472
   64        2.578452
   65        6.197677
   66        6.199850
   67        6.396770
   68        6.398816
   69        6.399228
   70        6.404154
   71        6.491007
   72        6.797875
   73        6.803114
   74        6.908691
   75        6.911757
   76        7.362574
   77        8.933724
   78       11.494735
   79       11.498065
   80       11.891767
   81       12.071471
 
 -0.1355253E-19  0.2222222E+00  0.0000000E+00  0.6172840E-02
    1      -14.722444
    2      -14.588862
    3      -14.587758
    4      -14.445641
    5      -11.494481
    6      -11.386820
    7      -11.385707
    8      -11.273030
    9      -10.292147
   10      -10.286204
   11      -10.198224
   12      -10.196304
   13      -10.190832
   14      -10.190539
   15      -10.098354
   16      -10.092106
   17       -7.638971
   18       -7.628462
   19       -7.567320
   20       -7.563666
   21       -7.555439
   22       -7.553873
   23       -7.488034
   24       -7.477432
   25       -6.475129
   26       -6.404745
   27       -6.403708
   28       -6.330670
   29       -3.503134
   30       -2.661000
   31       -2.659171
   32       -2.629337
   33       -2.609899
   34       -2.595737
   35       -2.592366
   36       -2.575153
   37       -2.573899
   38       -2.557798
   39       -2.538347
   40       -1.640030
   41       -1.507202
   42       -1.482674
   43       -1.481641
   44       -1.456969
   45        0.262404
   46        0.483265
   47        0.502446
   48        0.503748
   49        0.523223
   50        0.939395
   51        0.940761
   52        1.024471
   53        1.039152
   54        1.040077
   55        1.054702
   56        1.531205
   57        1.534118
   58        1.706245
   59        2.076246
   60        2.077153
   61        2.081326
   62        2.082608
   63        2.616839
   64        2.624721
   65        6.445906
   66        6.451171
   67        6.723194
   68        6.728447
   69        6.733730
   70        6.737326
   71        7.208329
   72        7.218262
   73        7.629414
   74        8.030057
   75        8.032803
   76        8.584698
   77        9.201878
   78       11.727144
   79       11.730488
   80       11.972865
   81       12.146318
 
  0.1111111E+00  0.2222222E+00  0.0000000E+00  0.6172840E-02
    1      -14.502193
    2      -14.370325
    3      -14.369236
    4      -14.229081
    5      -11.914006
    6      -11.802982
    7      -11.801833
    8      -11.685156
    9      -11.289491
   10      -11.183770
   11      -11.182724
   12      -11.071707
   13       -9.559242
   14       -9.479221
   15       -9.478875
   16       -9.398419
   17       -7.972697
   18       -7.912306
   19       -7.908835
   20       -7.842128
   21       -6.331658
   22       -6.264146
   23       -6.263476
   24       -6.193567
   25       -5.734553
   26       -5.669594
   27       -5.668397
   28       -5.601386
   29       -3.593521
   30       -3.550529
   31       -3.549503
   32       -3.505344
   33       -3.236830
   34       -2.404464
   35       -2.402108
   36       -2.400321
   37       -2.371836
   38       -2.368516
   39       -2.335379
   40       -1.589614
   41       -1.562781
   42       -1.561968
   43       -1.534815
   44       -1.391662
   45       -0.194762
   46       -0.172598
   47       -0.152945
   48       -0.150985
   49       -0.131574
   50        0.511232
   51        0.519127
   52        0.520378
   53        0.584190
   54        0.597156
   55        0.600815
   56        0.614264
   57        1.181573
   58        1.183614
   59        1.345620
   60        1.941363
   61        2.271392
   62        2.717999
   63        2.719340
   64        3.084115
   65        6.077771
   66        6.193753
   67        6.198557
   68        6.540362
   69        7.556300
   70        7.921699
   71        7.923968
   72        8.335170
   73        8.390892
   74        8.720744
   75        8.723636
   76        9.222005
   77        9.471340
   78       11.961316
   79       11.964711
   80       12.346491
   81       12.550033
 
  0.2222222E+00  0.2222222E+00  0.0000000E+00  0.6172840E-02
    1      -14.136469
    2      -14.007465
    3      -14.006396
    4      -13.869556
    5      -12.198647
    6      -12.195757
    7      -12.086656
    8      -12.082745
    9      -12.082721
   10      -12.080858