   32   32    1    1
  0.8905205E+01  0.4932875E-09  0.4932875E-09  0.1352877E-08  0.5000000E-15
  1.000000000000000E-004
  CAR 
 graphite                                
    128    163     84
 
  0.0000000E+00  0.0000000E+00  0.0000000E+00  0.3086420E-02
    1      -15.016896
    2      -14.880844
    3      -14.880178
    4      -14.735118
    5       -9.697756
    6       -9.689553
    7       -9.686416
    8       -9.641692
    9       -9.641469
   10       -9.633651
   11       -9.629951
   12       -9.629945
   13       -9.628039
   14       -9.594220
   15       -9.583269
   16       -9.580847
   17       -8.624472
   18       -8.621075
   19       -8.619458
   20       -8.595805
   21       -8.591894
   22       -8.590087
   23       -8.589296
   24       -8.589292
   25       -8.585923
   26       -8.546201
   27       -8.541534
   28       -8.538974
   29       -3.859943
   30       -3.008403
   31       -3.006708
   32       -1.973950
   33       -1.797143
   34       -1.794394
   35       -1.775414
   36       -1.772941
   37       -1.768943
   38       -1.768937
   39       -1.768236
   40       -1.750246
   41       -1.748471
   42       -1.744857
   43       -1.742421
   44       -1.723170
   45        1.592299
   46        1.603203
   47        1.607899
   48        1.614716
   49        1.617006
   50        1.624027
   51        1.627767
   52        1.638212
   53        1.866208
   54        1.867679
   55        1.869535
   56        2.249299
   57        2.250808
   58        2.253171
   59        2.256912
   60        2.256923
   61        2.258042
   62        2.514689
   63        2.528936
   64        2.530734
   65        6.118329
   66        6.120427
   67        6.121154
   68        6.256421
   69        6.262497
   70        6.266696
   71        6.267863
   72        6.268166
   73        6.273748
   74        6.762467
   75        6.775820
   76        6.778953
   77        8.844447
   78       11.416740
   79       11.420074
   80       11.814120
   81       11.818458
   82       11.851881
   83       11.998779
   84       12.003044
 
  0.1111111E+00  0.1387779E-16  0.0000000E+00  0.6172840E-02
    1      -14.943285
    2      -14.807724
    3      -14.807061
    4      -14.662711
    5      -10.483635
    6      -10.387010
    7      -10.386184
    8      -10.286023
    9       -9.945473
   10       -9.937193
   11       -9.862275
   12       -9.861793
   13       -9.853129
   14       -9.852874
   15       -9.778014
   16       -9.768737
   17       -8.319854
   18       -8.313407
   19       -8.254754
   20       -8.251621
   21       -8.246477
   22       -8.246137
   23       -8.179461
   24       -8.172452
   25       -7.800044
   26       -7.724742
   27       -7.723278
   28       -7.644346
   29       -3.770572
   30       -2.921296
   31       -2.919603
   32       -2.021644
   33       -2.002259
   34       -1.993275
   35       -1.992722
   36       -1.974443
   37       -1.972521
   38       -1.963998
   39       -1.944426
   40       -1.890246
   41       -1.723840
   42       -1.699599
   43       -1.696616
   44       -1.672416
   45        1.278380
   46        1.311097
   47        1.321730
   48        1.325588
   49        1.337376
   50        1.440326
   51        1.451160
   52        1.455749
   53        1.464921
   54        1.751500
   55        1.753933
   56        1.827639
   57        1.830045
   58        2.197631
   59        2.199013
   60        2.204510
   61        2.205169
   62        2.371778
   63        2.564947
   64        2.577910
   65        6.196948
   66        6.198461
   67        6.387942
   68        6.393792
   69        6.398279
   70        6.400517
   71        6.496029
   72        6.808394
   73        6.812369
   74        6.898125
   75        6.909977
   76        7.374232
   77        8.933543
   78       11.494528
   79       11.497849
   80       11.856512
   81       12.034911
   82       12.036768
   83       12.158877
   84       12.196293
 
  0.2222222E+00  0.2775558E-16  0.0000000E+00  0.6172840E-02
    1      -14.722632
    2      -14.588824
    3      -14.588172
    4      -14.445831
    5      -11.494644
    6      -11.386719
    7      -11.386137
    8      -11.273197
    9      -10.292193
   10      -10.286448
   11      -10.197708
   12      -10.196752
   13      -10.191190
   14      -10.190901
   15      -10.098466
   16      -10.092355
   17       -7.639016
   18       -7.629763
   19       -7.566881
   20       -7.564135
   21       -7.556349
   22       -7.555880
   23       -7.488188
   24       -7.478882
   25       -6.474470
   26       -6.404203
   27       -6.402875
   28       -6.329956
   29       -3.503270
   30       -2.661062
   31       -2.659367
   32       -2.628251
   33       -2.610073
   34       -2.593331
   35       -2.592859
   36       -2.575654
   37       -2.573644
   38       -2.556871
   39       -2.538420
   40       -1.640148
   41       -1.508958
   42       -1.485275
   43       -1.482150
   44       -1.458389
   45        0.261823
   46        0.484853
   47        0.503234
   48        0.506972
   49        0.526003
   50        0.938493
   51        0.940342
   52        1.020646
   53        1.034749
   54        1.039558
   55        1.052731
   56        1.531561
   57        1.534597
   58        1.705451
   59        2.076635
   60        2.077461
   61        2.081940
   62        2.083174
   63        2.616860
   64        2.625738
   65        6.445526
   66        6.449293
   67        6.722753
   68        6.728193
   69        6.732563
   70        6.734572
   71        7.208011
   72        7.216240
   73        7.630733
   74        8.031019
   75        8.034249
   76        8.585892
   77        9.201532
   78       11.726711
   79       11.730024
   80       11.972036
   81       12.143936
   82       12.145866
   83       12.300350
   84       12.990670
 
  0.3333333E+00  0.0000000E+00  0.0000000E+00  0.6172840E-02
    1      -14.356147
    2      -14.225234
    3      -14.224597
    4      -14.085555
    5      -12.407597
    6      -12.292177
    7      -12.291620
    8      -12.169886
    9      -10.548484
   10      -10.544858
   11      -10.449833
   12      -10.448514
   13      -10.445327
   14      -10.444957
   15      -10.345374
   16      -10.341613
   17       -6.831083
   18       -6.820377
   19       -6.764812
   20       -6.761944
   21       -6.753044
   22       -6.752286
   23       -6.693290
   24       -6.682810
   25       -5.040712
   26       -4.979973
   27       -4.978450
   28       -4.915856
   29       -3.443595
   30       -3.427676
   31       -3.402161
   32       -3.402006
   33       -3.387028
   34       -3.384885
   35       -3.359129
   36       -3.342949
   37       -3.060634
   38       -2.230974
   39       -2.229281
   40       -1.227730
   41       -1.159825
   42       -1.137360
   43       -1.134016
   44       -1.111094
   45       -0.758589
   46       -0.700564
   47       -0.672154
   48       -0.668859
   49       -0.640199
   50       -0.015076
   51       -0.013393
   52        0.458289
   53        0.475402
   54        0.479820
   55        0.496806
   56        0.859137
   57        1.341106
   58        1.343765
   59        1.952762
   60        1.953234
   61        1.956286
   62        1.958160
   63        2.618578
   64        2.623956
   65        6.804535
   66        6.809773
   67        7.114818
   68        7.119779
   69        7.123055
   70        7.124644
   71        7.518872
   72        7.523534
   73        9.137616
   74        9.508818
   75        9.511627
   76        9.648786
   77        9.995331
   78       11.941491
   79       12.094288
   80       12.097848
   81       12.223960
   82       12.310481
   83       12.312611
   84       12.594535
 
  0.4444444E+00  0.5551115E-16  0.0000000E+00  0.6172840E-02
    1      -13.845718
    2      -13.718892
    3      -13.718265
    4      -13.583808
    5      -13.194429
    6      -13.072735
    7      -13.072172
    8      -12.943498
    9      -10.680373
   10      -10.678350
   11      -10.580509
   12      -10.578646
   13      -10.577599
   14      -10.576828
   15      -10.473688
   16      -10.471627
   17       -6.081240
   18       -6.073254
   19       -6.033787
   20       -6.030217
   21       -6.025127
   22       -6.023450
   23       -5.983044
   24       -5.976046
   25       -4.191138
   26       -4.182441
   27       -4.157464
   28       -4.156358
   29       -4.148903
   30       -4.146308
   31       -4.118724
   32       -4.109035
   33       -3.559814
   34       -3.509758
   35       -3.507828
   36       -3.456429
   37       -2.447784
   38       -2.087210
   39       -2.048529
   40       -2.046099
   41       -2.005774
   42       -1.674372
   43       -1.636347
   44       -1.634805
   45       -0.890704
   46       -0.889055
   47       -0.693794
   48       -0.672371
   49       -0.668695
   50       -0.660914
   51       -0.647203
   52       -0.138534
   53       -0.118893
   54       -0.114981
   55       -0.095115
   56        0.045241
   57        1.235697
   58        1.237750
   59        1.878040
   60        1.879123
   61        1.880217
   62        1.882886
   63        2.604168
   64        2.606969
   65        7.090818
   66        7.094471
   67        7.382885
   68        7.387773
   69        7.388733
   70        7.389639
   71        7.692851
   72        7.695539
   73       10.271792
   74       10.760350
   75       11.044869
   76       11.049348
   77       11.067049
   78       11.453515
   79       12.339697
   80       12.348942
   81       12.357057
   82       12.426630
   83       12.500562
   84       12.501421
 
 -0.6776264E-20  0.1111111E+00  0.0000000E+00  0.6172840E-02
    1      -14.943286
    2      -14.807727
    3      -14.807062
    4      -14.662713
    5      -10.483555
    6      -10.386842
    7      -10.386177
    8      -10.285926
    9       -9.945460
   10       -9.937493
   11       -9.862270
   12       -9.861790
   13       -9.853627
   14       -9.853005
   15       -9.777984
   16       -9.769115
   17       -8.319975
   18       -8.312175
   19       -8.255045
   20       -8.251622
   21       -8.246167
   22       -8.243792
   23       -8.179557
   24       -8.171097
   25       -7.800978
   26       -7.725216
   27       -7.724706
   28       -7.645315
   29       -3.770568
   30       -2.921289
   31       -2.919599
   32       -2.022945
   33       -2.002154
   34       -1.995670
   35       -1.992726
   36       -1.974443
   37       -1.972576
   38       -1.965293
   39       -1.944585
   40       -1.890240
   41       -1.722382
   42       -1.697038
   43       -1.696611
   44       -1.671259
   45        1.278974
   46        1.309221
   47        1.320496
   48        1.321731
   49        1.332921
   50        1.445031
   51        1.455747
   52        1.456255
   53        1.466953
   54        1.751255
   55        1.752941
   56        1.829405
   57        1.830234
   58        2.197617
   59        2.199013
   60        2.202504
   61        2.204691
   62        2.372866
   63        2.564966
   64        2.576733
   65        6.197741
   66        6.199487
   67        6.388378
   68        6.393737
   69        6.399078
   70        6.403511
   71        6.494267
   72        6.807253
   73        6.809980
   74        6.898266
   75        6.912085
   76        7.372440
   77        8.933549
   78       11.494555
   79       11.497874
   80       11.856996
   81       12.035578
   82       12.036769
   83       12.150957
   84       12.194104
 
  0.1111111E+00  0.1111111E+00  0.0000000E+00  0.6172840E-02
    1      -14.796033
    2      -14.661625
    3      -14.660970
    4      -14.517948
    5      -10.948920
    6      -10.945928
    7      -10.847731
    8      -10.844186
    9      -10.844165
   10      -10.841735
   11      -10.738254
   12      -10.735235
   13       -9.508518
   14       -9.453680
   15       -9.452735
   16       -9.406988
   17       -8.440260
   18       -8.412634
   19       -8.409060
   20       -8.365338
   21       -7.117798
   22       -7.114672
   23       -7.045291
   24       -7.042422
   25       -7.042401
   26       -7.038839
   27       -6.966799
   28       -6.963441
   29       -3.592105
   30       -2.747539
   31       -2.745848
   32       -2.685474
   33       -2.650591
   34       -2.648819
   35       -2.613297
   36       -1.878465
   37       -1.875512
   38       -1.852106
   39       -1.847866
   40       -1.847860
   41       -1.846891
   42       -1.821300
   43       -1.818890
   44       -1.723216
   45        0.782048
   46        0.792809
   47        0.796162
   48        0.807201
   49        0.845604
   50        0.849085
   51        1.125436
   52        1.135418
   53        1.139816
   54        1.148201
   55        1.467571
   56        1.471009
   57        1.471111
   58        1.472546
   59        2.134838
   60        2.144644
   61        2.147022
   62        2.515362
   63        2.517530
   64        2.776120
   65        6.101653
   66        6.184590
   67        6.189827
   68        6.592710
   69        6.979319
   70        6.981693
   71        7.349325
   72        7.351204
   73        7.351760
   74        7.355975
   75        7.899450
   76        7.902147
   77        9.112408
   78       11.650890
   79       11.654203
   80       12.228741
   81       12.232915
   82       12.405154
   83       12.411315
   84       12.414890
 
  0.2222222E+00  0.1111111E+00  0.0000000E+00  0.6172840E-02
    1      -14.502384
    2      -14.370290
    3      -14.369651
    4      -14.229274
    5      -11.914153
    6      -11.802848
    7      -11.802259
    8      -11.685305
    9      -11.289727
   10      -11.183802
   11      -11.183161
   12      -11.071942
   13       -9.559452
   14       -9.479425
   15       -9.479086
   16       -9.398626
   17       -7.972961
   18       -7.912376
   19       -7.909305
   20       -7.842407
   21       -6.332853
   22       -6.265462
   23       -6.264595
   24       -6.194810
   25       -5.733806
   26       -5.668891
   27       -5.667535
   28       -5.600570
   29       -3.593675
   30       -3.551022
   31       -3.549294
   32       -3.505474
   33       -3.236962
   34       -2.403293
   35       -2.402105
   36       -2.400513
   37       -2.369139
   38       -2.368987
   39       -2.334360
   40       -1.591416
   41       -1.565530
   42       -1.562476
   43       -1.536323
   44       -1.391775
   45       -0.195162
   46       -0.172163
   47       -0.153454
   48       -0.148954
   49       -0.130010
   50        0.511562
   51        0.518495
   52        0.519956
   53        0.581784
   54        0.595258
   55        0.600299
   56        0.613305
   57        1.182535
   58        1.183662
   59        1.344961
   60        1.942018
   61        2.271461
   62        2.717698
   63        2.719746
   64        3.084104
   65        6.077574
   66        6.193362
   67        6.198232
   68        6.539883
   69        7.554608
   70        7.920015
   71        7.922541
   72        8.336414
   73        8.389421
   74        8.721944
   75        8.724700
   76        9.223114
   77        9.471007
   78       11.960924
   79       11.964309
   80       12.345521
   81       12.546752
   82       12.548680
   83       12.564617
   84       12.929425
 
  0.3333333E+00  0.1111111E+00  0.0000000E+00  0.6172840E-02
    1      -14.063839
    2      -13.935193
    3      -13.934571
    4      -13.798174
    5      -12.764706
    6      -12.646377
    7      -12.645798
    8      -12.521067
    9      -11.498692
   10      -11.390788
   11      -11.390112
   12      -11.276954
   13       -9.703428
   14       -9.613879
   15       -9.613523
   16       -9.520686
   17       -7.206973
   18       -7.146108
   19       -7.143185
   20       -7.079927
   21       -5.533635
   22       -5.478416
   23       -5.476857
   24       -5.420501
   25       -4.531976
   26       -4.487634
   27       -4.485762
   28       -4.438985
   29       -4.284081
   30       -4.229576
   31       -4.228009
   32       -4.172123
   33       -3.101518
   34       -3.065227
   35       -3.064485
   36       -3.026210
   37       -2.708872
   38       -1.890057
   39       -1.888309
   40       -1.419362
   41       -1.387815
   42       -1.384519
   43       -1.353671
   44       -1.175099
   45       -1.168742
   46       -1.150647
   47       -1.147429
   48       -1.122838
   49       -0.901624
   50       -0.405455
   51       -0.403838
   52       -0.042122
   53       -0.023783
   54       -0.019041
   55       -0.000752
   56        0.302914
   57        0.500314
   58        0.998392
   59        0.999596
   60        1.802790
   61        2.270647
   62        2.807902
   63        2.809561
   64        3.349806
   65        6.073748
   66        6.313328
   67        6.317322
   68        6.641021
   69        8.062144
   70        8.374676
   71        8.377144
   72        8.720643
   73        9.901313
   74       10.007883
   75       10.228183
   76       10.230991
   77       10.646511
   78       11.590465
   79       12.380645
   80       12.385899
   81       12.627312
   82       12.720245
   83       12.722415
   84       12.962595
 
  0.4444444E+00  0.1111111E+00  0.0000000E+00  0.6172840E-02
    1      -13.484864
    2      -13.481922
    3      -13.362090
    4      -13.359254
    5      -13.358304
    6      -13.356410
    7      -13.228957
    8      -13.225968
    9      -11.569205
   10      -11.460964
   11      -11.460270
   12      -11.346388
   13       -9.758289
   14       -9.666941
   15       -9.666441
   16       -9.571426
   17       -6.697466
   18       -6.658682
   19       -6.655903
   20       -6.619156
   21       -5.061963
   22       -5.054990
   23       -5.031802
   24       -5.031161
   25       -5.028984
   26       -5.026907
   27       -5.000336
   28       -4.996370
   29       -3.515970
   30       -3.495019
   31       -3.492465
   32       -3.466740
   33       -2.824775
   34       -2.821648
   35       -2.781217
   36       -2.781153
   37       -2.779216
   38       -2.774961
   39       -2.735825
   40       -2.731910
   41       -2.016531
   42       -2.014103
   43       -1.221130
   44       -1.218076
   45       -1.217253
   46       -1.215435
   47       -0.651116
   48       -0.644222
   49       -0.628835
   50       -0.622242
   51       -0.620235
   52       -0.620078
   53       -0.600541
   54       -0.596591
   55       -0.265260
   56       -0.262576
   57        0.231326
   58        0.934668
   59        0.935927
   60        1.753041
   61        2.259402
   62        2.831066
   63        2.832249
   64        3.447931
   65        6.086233
   66        6.381805
   67        6.384716
   68        6.696821
   69        8.280088
   70        8.551417
   71        8.554197
   72        8.824742
   73       10.717929
   74       10.719562
   75       11.492897
   76       11.496164
   77       11.717389
   78       11.721119
   79       11.722083
   80       11.728207
   81       12.063121
   82       12.066543
   83       12.820138
   84       12.831784
 
 -0.4444444E+00  0.1111111E+00  0.0000000E+00  0.6172840E-02
    1      -14.064608
    2      -13.935967
    3      -13.935326
    4      -13.798946
    5      -12.763503
    6      -12.645160
    7      -12.644611
    8      -12.519872
    9      -11.500469
   10      -11.392587
   11      -11.391893
   12      -11.278753
   13       -9.700744
   14       -9.611091
   15       -9.610531
   16       -9.517680
   17       -7.198597
   18       -7.136932
   19       -7.135699
   20       -7.071757
   21       -5.544983
   22       -5.490250
   23       -5.487243
   24       -5.431295
   25       -4.544129
   26       -4.499221
   27       -4.498959
   28       -4.451589
   29       -4.286295
   30       -4.232004
   31       -4.230087
   32       -4.174329
   33       -3.087121
   34       -3.051440
   35       -3.048968
   36       -3.011233
   37       -2.709621
   38       -1.890767
   39       -1.889046
   40       -1.419288
   41       -1.387188
   42       -1.385306
   43       -1.354017
   44       -1.173074
   45       -1.167664
   46       -1.148767
   47       -1.145172
   48       -1.120742
   49       -0.902325
   50       -0.404448
   51       -0.402762
   52       -0.041787
   53       -0.023382
   54       -0.020039
   55       -0.001332
   56        0.301519
   57        0.501275
   58        0.996680
   59        0.997996
   60        1.800638
   61        2.271352
   62        2.810795
   63        2.811543
   64        3.355789
   65        6.074942
   66        6.317134
   67        6.319389
   68        6.642692
   69        8.056642
   70        8.369506
   71        8.372966
   72        8.718245
   73        9.901717
   74       10.006863
   75       10.227642
   76       10.230688
   77       10.645409
   78       11.591926
   79       12.380461
   80       12.385657
   81       12.624003
   82       12.716963
   83       12.719875
   84       12.961618
 
 -0.3333333E+00  0.1111111E+00  0.0000000E+00  0.6172840E-02
    1      -14.502925
    2      -14.370839
    3      -14.370185
    4      -14.229825
    5      -11.912731
    6      -11.801404
    7      -11.800857
    8      -11.683880
    9      -11.293314
   10      -11.187430
   11      -11.186760
   12      -11.075586
   13       -9.553654
   14       -9.473243
   15       -9.472672
   16       -9.391705
   17       -7.966185
   18       -7.904031
   19       -7.903336
   20       -7.834891
   21       -6.344443
   22       -6.277769
   23       -6.275257
   24       -6.206187
   25       -5.736120
   26       -5.671285
   27       -5.669790
   28       -5.602906
   29       -3.609546
   30       -3.566328
   31       -3.565968
   32       -3.521480
   33       -3.237502
   34       -2.402742
   35       -2.401060
   36       -2.384797
   37       -2.351768
   38       -2.349631
   39       -2.315885
   40       -1.589710
   41       -1.563920
   42       -1.560635
   43       -1.534596
   44       -1.392288
   45       -0.194190
   46       -0.175822
   47       -0.156372
   48       -0.154417
   49       -0.135280
   50        0.509406
   51        0.519155
   52        0.521062
   53        0.587481
   54        0.600403
   55        0.602960
   56        0.616585
   57        1.179164
   58        1.180569
   59        1.345916
   60        1.937617
   61        2.271889
   62        2.723062
   63        2.723532
   64        3.095845
   65        6.076767
   66        6.199601
   67        6.201923
   68        6.545998
   69        7.547545
   70        7.911696
   71        7.915767
   72        8.336275
   73        8.383486
   74        8.721036
   75        8.724033
   76        9.221789
   77        9.470258
   78       11.960342
   79       11.963711
   80       12.343569
   81       12.544207
   82       12.546567
   83       12.564223
   84       12.929307
 
 -0.2222222E+00  0.1111111E+00  0.0000000E+00  0.6172840E-02
    1      -14.796364
    2      -14.661962
    3      -14.661299
    4      -14.518282
    5      -10.952794
    6      -10.945779
    7      -10.850242
    8      -10.849640
    9      -10.843178
   10      -10.842547
   11      -10.742350
   12      -10.735221
   13       -9.498966
   14       -9.442845
   15       -9.442300
   16       -9.395088
   17       -8.437189
   18       -8.407448
   19       -8.406916
   20       -8.360942
   21       -7.126543
   22       -7.117868
   23       -7.053803
   24       -7.051459
   25       -7.044587
   26       -7.043224
   27       -6.975508
   28       -6.966924
   29       -3.592432
   30       -2.747858
   31       -2.746176
   32       -2.703257
   33       -2.667804
   34       -2.667289
   35       -2.631206
   36       -1.876464
   37       -1.856574
   38       -1.849728
   39       -1.846671
   40       -1.829405
   41       -1.827356
   42       -1.819678
   43       -1.799847
   44       -1.723530
   45        0.769901
   46        0.781485
   47        0.782873
   48        0.793888
   49        0.843940
   50        0.848023
   51        1.140483
   52        1.149475
   53        1.149649
   54        1.159584
   55        1.465446
   56        1.467012
   57        1.470190
   58        1.472326
   59        2.134624
   60        2.139575
   61        2.146111
   62        2.522167
   63        2.522666
   64        2.791345
   65        6.098935
   66        6.192161
   67        6.194762
   68        6.603246
   69        6.973668
   70        6.981097
   71        7.340384
   72        7.344887
   73        7.350317
   74        7.353907
   75        7.891478
   76        7.900217
   77        9.111942
   78       11.650462
   79       11.653770
   80       12.228814
   81       12.264725
   82       12.406862
   83       12.424926
   84       12.444047
 
 -0.1111111E+00  0.1111111E+00  0.0000000E+00  0.6172840E-02
    1      -14.943396
    2      -14.807837
    3      -14.807169
    4      -14.662820
    5      -10.490915
    6      -10.394242
    7      -10.393786
    8      -10.293607
    9       -9.937194
   10       -9.934894
   11       -9.854780
   12       -9.851652
   13       -9.851637
   14       -9.850230
   15       -9.768849
   16       -9.766622
   17       -8.315303
   18       -8.313506
   19       -8.248999
   20       -8.247795
   21       -8.247783
   22       -8.245199
   23       -8.174586
   24       -8.172610
   25       -7.808638
   26       -7.733805
   27       -7.731410
   28       -7.653018
   29       -3.770676
   30       -2.921396
   31       -2.919708
   32       -2.023276
   33       -2.020620
   34       -1.996442
   35       -1.992375
   36       -1.992369
   37       -1.991753
   38       -1.965383
   39       -1.963231
   40       -1.890346
   41       -1.702691
   42       -1.678025
   43       -1.676001
   44       -1.651330
   45        1.274415
   46        1.293944
   47        1.305059
   48        1.309616
   49        1.319855
   50        1.458351
   51        1.467893
   52        1.471732
   53        1.483025
   54        1.752411
   55        1.754917
   56        1.823146
   57        1.824933
   58        2.201148
   59        2.205137
   60        2.205240
   61        2.205929
   62        2.363208
   63        2.576367
   64        2.578349
   65        6.197549
   66        6.199719
   67        6.396710
   68        6.398666
   69        6.398946
   70        6.404171
   71        6.490883
   72        6.797933
   73        6.802820
   74        6.908588
   75        6.911654
   76        7.362467
   77        8.933391
   78       11.494399
   79       11.497716
   80       11.891505
   81       12.070430
   82       12.071388
   83       12.149257
   84       12.153174
 
 -0.1355253E-19  0.2222222E+00  0.0000000E+00  0.6172840E-02
    1      -14.722638
    2      -14.588836
    3      -14.588173
    4      -14.445837
    5      -11.494680
    6      -11.386784
    7      -11.386141
    8      -11.273231
    9      -10.292344
   10      -10.286405
   11      -10.198169
   12      -10.196758
   13      -10.191118
   14      -10.190653
   15      -10.098558
   16      -10.092307
   17       -7.639174
   18       -7.628677
   19       -7.567270
   20       -7.564136
   21       -7.555910
   22       -7.553821
   23       -7.488251
   24       -7.477636
   25       -6.475341
   26       -6.404705
   27       -6.404171
   28       -6.330884
   29       -3.503251
   30       -2.661032
   31       -2.659352
   32       -2.629548
   33       -2.610132
   34       -2.595693
   35       -2.592866
   36       -2.575654
   37       -2.573852
   38       -2.558036
   39       -2.538563
   40       -1.640119
   41       -1.507428
   42       -1.482625
   43       -1.482146
   44       -1.457202
   45        0.262295
   46        0.483042
   47        0.502502
   48        0.503236
   49        0.522987
   50        0.939378
   51        0.940573
   52        1.024244
   53        1.039207
   54        1.039561
   55        1.054465
   56        1.531100
   57        1.534014
   58        1.706152
   59        2.076238
   60        2.076961
   61        2.081387
   62        2.082345
   63        2.616742
   64        2.624622
   65        6.445787
   66        6.451048
   67        6.723264
   68        6.728150
   69        6.733451
   70        6.737374
   71        7.208223
   72        7.218159
   73        7.629289
   74        8.030008
   75        8.032615
   76        8.584589
   77        9.201547
   78       11.726812
   79       11.730117
   80       11.972618
   81       12.145085
   82       12.145892
   83       12.300935
   84       13.000445
 
  0.1111111E+00  0.2222222E+00  0.0000000E+00  0.6172840E-02
    1      -14.502388
    2      -14.370299
    3      -14.369652
    4      -14.229278
    5      -11.914204
    6      -11.802945
    7      -11.802267
    8      -11.685357
    9      -11.289690
   10      -11.183737
   11      -11.183156
   12      -11.071909
   13       -9.559443
   14       -9.479423
   15       -9.479072
   16       -9.398619
   17       -7.972900
   18       -7.912257
   19       -7.909305
   20       -7.842347
   21       -6.331872
   22       -6.264617
   23       -6.263426
   24       -6.193776
   25       -5.734765
   26       -5.669548
   27       -5.668867
   28       -5.601602
   29       -3.593751
   30       -3.551023
   31       -3.549456
   32       -3.505562
   33       -3.236946
   34       -2.404668
   35       -2.402146
   36       -2.400504
   37       -2.371789
   38       -2.369017
   39       -2.335619
   40       -1.589842
   41       -1.562737
   42       -1.562466
   43       -1.535046
   44       -1.391752
   45       -0.194870
   46       -0.172842
   47       -0.153455
   48       -0.150943
   49       -0.131770