 running on    6 total cores
 distrk:  each k-point on    6 cores,    1 groups
 distr:  one band on    1 cores,    6 groups
 using from now: INCAR     
 vasp.5.3.5 31Mar14 (build Nov 02 2014 15:17:37) complex                        
  
 POSCAR found :  1 types and      32 ions
 scaLAPACK will be used

 ----------------------------------------------------------------------------- 
|                                                                             |
|           W    W    AA    RRRRR   N    N  II  N    N   GGGG   !!!           |
|           W    W   A  A   R    R  NN   N  II  NN   N  G    G  !!!           |
|           W    W  A    A  R    R  N N  N  II  N N  N  G       !!!           |
|           W WW W  AAAAAA  RRRRR   N  N N  II  N  N N  G  GGG   !            |
|           WW  WW  A    A  R   R   N   NN  II  N   NN  G    G                |
|           W    W  A    A  R    R  N    N  II  N    N   GGGG   !!!           |
|                                                                             |
|      For optimal performance we recommend to set                            |
|        NCORE= 4 - approx SQRT( number of cores)                             |
|      NCORE specifies how many cores store one orbital (NPAR=cpu/NCORE).     |
|      This setting can  greatly improve the performance of VASP for DFT.     |
|      The default, NPAR=number of cores might be grossly inefficient         |
|      on modern multi-core architectures or massively parallel machines.     |
|      Do your own testing !!!!                                               |
|      Unfortunately you need to use the default for GW and RPA calculations. |
|      (for HF NCORE is supported but not extensively tested yet)             |
|                                                                             |
 ----------------------------------------------------------------------------- 


 ----------------------------------------------------------------------------- 
|                                                                             |
|  ADVICE TO THIS USER RUNNING 'VASP/VAMP'   (HEAR YOUR MASTER'S VOICE ...):  |
|                                                                             |
|      You have a (more or less) 'large supercell' and for larger cells       |
|      it might be more efficient to use real space projection operators      |
|      So try LREAL= Auto  in the INCAR   file.                               |
|      Mind: If you want to do a very accurate calculations keep the          |
|      reciprocal projection scheme          (i.e. LREAL=.FALSE.)             |
|                                                                             |
 ----------------------------------------------------------------------------- 

 LDA part: xc-table for Pade appr. of Perdew
 POSCAR, INCAR and KPOINTS ok, starting setup
 WARNING: small aliasing (wrap around) errors must be expected
 FFT: planning ...
 WAVECAR not read
 WARNING: random wavefunctions but no delay for mixing, default for NELMDL
 entering main loop
       N       E                     dE             d eps       ncg     rms          rms(c)
DAV:   1     0.595829722427E+03    0.59583E+03   -0.71660E+04 27384   0.160E+03
DAV:   2    -0.262914888698E+03   -0.85874E+03   -0.82796E+03 34272   0.312E+02
DAV:   3    -0.312764007353E+03   -0.49849E+02   -0.49384E+02 33312   0.756E+01
DAV:   4    -0.313709044029E+03   -0.94504E+00   -0.94331E+00 35040   0.113E+01
DAV:   5    -0.313736300981E+03   -0.27257E-01   -0.27245E-01 35172   0.179E+00    0.221E+01
DAV:   6    -0.299247350922E+03    0.14489E+02   -0.14940E+01 31296   0.107E+01    0.116E+01
DAV:   7    -0.294649240592E+03    0.45981E+01   -0.15723E+01 30840   0.110E+01    0.194E+00
DAV:   8    -0.294713483065E+03   -0.64242E-01   -0.39658E-01 30984   0.183E+00    0.291E-01
DAV:   9    -0.294715009611E+03   -0.15265E-02   -0.18318E-02 32712   0.448E-01    0.130E-01
DAV:  10    -0.294715644650E+03   -0.63504E-03   -0.37979E-03 33996   0.181E-01    0.979E-02
DAV:  11    -0.294716296456E+03   -0.65181E-03   -0.35904E-03 31440   0.146E-01    0.822E-02
DAV:  12    -0.294716334749E+03   -0.38292E-04   -0.18991E-03 31416   0.105E-01    0.434E-02
DAV:  13    -0.294716404862E+03   -0.70113E-04   -0.56425E-04 31956   0.600E-02    0.340E-02
DAV:  14    -0.294716415836E+03   -0.10974E-04   -0.51552E-04 32148   0.489E-02    0.250E-02
DAV:  15    -0.294716399603E+03    0.16232E-04   -0.68546E-05 31728   0.221E-02    0.910E-03
DAV:  16    -0.294716399994E+03   -0.39109E-06   -0.78335E-06 31080   0.843E-03
   1 F= -.29967067E+03 E0= -.29967067E+03  d E =0.000000E+00
