    4    4  200    1
  0.8948858E+01  0.2466437E-09  0.2466437E-09  0.6797544E-09  0.5000000E-15
  1.000000000000000E-004
  CAR 
 graphite                                
     16    455     12
 
  0.0000000E+00  0.0000000E+00  0.0000000E+00  0.3858025E-03
    1      -15.054661
    2      -14.783484
    3       -3.882381
    4       -2.043248
    5        1.556142
    6        1.572518
    7        1.572552
    8        1.588398
    9        8.763014
   10       12.895796
   11       12.902418
   12       12.941923
 
  0.5555556E-01 -0.6938894E-17  0.0000000E+00  0.1543210E-02
    1      -14.981076
    2      -14.711066
    3       -3.793068
    4       -1.959469
    5        1.266687
    6        1.289407
    7        1.401702
    8        1.422514
    9        8.852301
   10       12.929814
   11       12.991293
   12       13.212180
 
  0.1111111E+00 -0.1387779E-16  0.0000000E+00  0.1543210E-02
    1      -14.760488
    2      -14.494125
    3       -3.525829
    4       -1.709096
    5        0.440740
    6        0.478844
    7        0.981531
    8        1.010290
    9        9.120815
   10       12.945531
   11       13.047112
   12       14.101339
 
  0.1666667E+00 -0.1387779E-16  0.0000000E+00  0.1543210E-02
    1      -14.394138
    2      -14.133785
    3       -3.083388
    4       -1.296251
    5       -0.744238
    6       -0.687122
    7        0.418533
    8        0.454082
    9        9.568765
   10       12.845326
   11       13.012271
   12       13.750478
 
  0.2222222E+00 -0.2775558E-16  0.0000000E+00  0.1543210E-02
    1      -13.883852
    2      -13.631881
    3       -2.470790
    4       -2.130283
    5       -2.052428
    6       -0.728728
    7       -0.178713
    8       -0.138075
    9       10.193741
   10       12.317381
   11       12.637882
   12       12.870770
 
  0.2777778E+00  0.2775558E-16  0.0000000E+00  0.1543210E-02
    1      -13.232850
    2      -12.991432
    3       -3.602003
    4       -3.503210
    5       -1.697727
    6       -0.734123
    7       -0.690285
    8       -0.021694
    9       10.726680
   10       10.987172
   11       11.399558
   12       12.388962
 
  0.3333333E+00  0.0000000E+00  0.0000000E+00  0.1543210E-02
    1      -12.446164
    2      -12.217677
    3       -5.082296
    4       -4.962771
    5       -1.200353
    6       -1.154329
    7       -0.782122
    8        0.794192
    9        9.104870
   10        9.938937
   11       11.877051
   12       12.181567
 
  0.3888889E+00  0.0000000E+00  0.0000000E+00  0.1543210E-02
    1      -11.533469
    2      -11.320627
    3       -6.515588
    4       -6.377034
    5       -1.549603
    6       -1.501737
    7        0.237107
    8        1.643825
    9        7.597213
   10        8.527657
   11       11.935723
   12       12.251337
 
  0.4444444E+00 -0.5551115E-16  0.0000000E+00  0.1543210E-02
    1      -10.522741
    2      -10.332871
    3       -7.841069
    4       -7.691682
    5       -1.764565
    6       -1.715835
    7        1.252494
    8        2.317290
    9        6.457555
   10        7.315287
   11       11.820658
   12       12.171176
 
  0.5000000E+00 -0.5551115E-16  0.0000000E+00  0.7716049E-03
    1       -9.728110
    2       -9.626686
    3       -8.663018
    4       -8.586442
    5       -1.837021
    6       -1.787923
    7        1.837866
    8        2.482549
    9        6.075332
   10        6.720513
   11       11.780144
   12       12.139059
 
  0.5555556E-01  0.5555556E-01  0.0000000E+00  0.7716049E-03
    1      -14.833867
    2      -14.566260
    3       -3.614634
    4       -1.792255
    5        0.737838
    6        0.760059
    7        1.087505
    8        1.105802
    9        9.031529
   10       13.032715
   11       13.109573
   12       13.741905
 
  0.1111111E+00  0.5555556E-01  0.0000000E+00  0.1543210E-02
    1      -14.540318
    2      -14.277520
    3       -3.259633
    4       -1.460457
    5       -0.216599
    6       -0.177846
    7        0.543119
    8        0.570970
    9        9.390720
   10       13.119517
   11       13.244053
   12       14.274448
 
  0.1666667E+00  0.5555556E-01  0.0000000E+00  0.1543210E-02
    1      -14.101911
    2      -13.846320
    3       -2.731750
    4       -1.462889
    5       -1.400646
    6       -0.969729
    7       -0.081556
    8       -0.043344
    9        9.929011
   10       12.949470
   11       13.030646
   12       13.227368
 
  0.2222222E+00  0.5555556E-01  0.0000000E+00  0.1543210E-02
    1      -13.521117
    2      -13.275012
    3       -2.866726
    4       -2.781685
    5       -2.038072
    6       -0.686070
    7       -0.640964
    8       -0.330782
    9       10.642314
   10       11.460315
   11       12.012416
   12       12.822759
 
  0.2777778E+00  0.5555556E-01  0.0000000E+00  0.1543210E-02
    1      -12.801975
    2      -12.567696
    3       -4.328308
    4       -4.221219
    5       -1.213366
    6       -1.191433
    7       -1.163923
    8        0.435374
    9        9.868481
   10       10.590890
   11       11.517429
   12       12.586684
 
  0.3333333E+00  0.5555556E-01  0.0000000E+00  0.1543210E-02
    1      -11.951480
    2      -11.731530
    3       -5.777528
    4       -5.649921
    5       -1.630181
    6       -1.577961
    7       -0.217565
    8        1.282383
    9        8.303153
   10        9.165073
   11       12.301401
   12       12.509129
 
  0.3888889E+00  0.5555556E-01  0.0000000E+00  0.1543210E-02
    1      -10.984810
    2      -10.782439
    3       -7.158903
    4       -7.014153
    5       -1.917050
    6       -1.863166
    7        0.821899
    8        2.087294
    9        6.945666
   10        7.841881
   11       12.192698
   12       12.537461
 
  0.4444444E+00  0.5555556E-01  0.0000000E+00  0.1543210E-02
    1       -9.975524
    2       -9.813929
    3       -8.355447
    4       -8.220311
    5       -2.063155
    6       -2.008465
    7        1.724874
    8        2.527457
    9        6.156625
   10        6.853245
   11       12.113637
   12       12.479007
 
  0.5000000E+00  0.5555556E-01  0.0000000E+00  0.1543210E-02
    1       -9.976985
    2       -9.815259
    3       -8.353918
    4       -8.218612
    5       -2.063556
    6       -2.008860
    7        1.724086
    8        2.527343
    9        6.156570
   10        6.854190
   11       12.114104
   12       12.479480
 
 -0.4444444E+00  0.5555556E-01  0.0000000E+00  0.1543210E-02
    1      -10.986392
    2      -10.784011
    3       -7.156707
    4       -7.011916
    5       -1.918234
    6       -1.864317
    7        0.820657
    8        2.086480
    9        6.946066
   10        7.843437
   11       12.194091
   12       12.538791
 
 -0.3888889E+00  0.5555556E-01  0.0000000E+00  0.1543210E-02
    1      -11.952878
    2      -11.732926
    3       -5.775153
    4       -5.647506
    5       -1.632043
    6       -1.579776
    7       -0.218816
    8        1.281322
    9        8.303520
   10        9.166635
   11       12.302967
   12       12.509306
 
 -0.3333333E+00  0.5555556E-01  0.0000000E+00  0.1543210E-02
    1      -12.803163
    2      -12.568879
    3       -4.325949
    4       -4.218814
    5       -1.215672
    6       -1.192570
    7       -1.166175
    8        0.434332
    9        9.868339
   10       10.592253
   11       11.515879
   12       12.589648
 
 -0.2777778E+00  0.5555556E-01  0.0000000E+00  0.1543210E-02
    1      -13.522089
    2      -13.275977
    3       -2.864766
    4       -2.779691
    5       -2.039041
    6       -0.688284
    7       -0.643158
    8       -0.331700
    9       10.640986
   10       11.459313
   11       12.013485
   12       12.826389
 
 -0.2222222E+00  0.5555556E-01  0.0000000E+00  0.1543210E-02
    1      -14.102665
    2      -13.847069
    3       -2.732524
    4       -1.462257
    5       -1.400034
    6       -0.970474
    7       -0.082488
    8       -0.044388
    9        9.927956
   10       12.949338
   11       13.034513
   12       13.231776
 
 -0.1666667E+00  0.5555556E-01  0.0000000E+00  0.1543210E-02
    1      -14.540850
    2      -14.278063
    3       -3.260196
    4       -1.461003
    5       -0.219502
    6       -0.180813
    7        0.545969
    8        0.573448
    9        9.389948
   10       13.122675
   11       13.248172
   12       14.216643
 
 -0.1111111E+00  0.5555556E-01  0.0000000E+00  0.1543210E-02
    1      -14.834193
    2      -14.566589
    3       -3.614974
    4       -1.792588
    5        0.727615
    6        0.750428
    7        1.097415
    8        1.115532
    9        9.031049
   10       13.034467
   11       13.112446
   12       13.742781
 
 -0.5555556E-01  0.5555556E-01  0.0000000E+00  0.7716049E-03
    1      -14.981183
    2      -14.711172
    3       -3.793181
    4       -1.959581
    5        1.254390
    6        1.277461
    7        1.413976
    8        1.434547
    9        8.852138
   10       12.929560
   11       12.989488
   12       13.217685
 
  0.1111111E+00  0.1111111E+00  0.0000000E+00  0.7716049E-03
    1      -14.174704
    2      -13.917904
    3       -2.819046
    4       -1.116745
    5       -1.081830
    6       -1.050428
    7       -0.159135
    8       -0.134337
    9        9.841537
   10       13.195962
   11       13.530295
   12       13.606050
 
  0.1666667E+00  0.1111111E+00  0.0000000E+00  0.1543210E-02
    1      -13.665779
    2      -13.417321
    3       -2.265947
    4       -2.209496
    5       -2.209241
    6       -0.906433
    7       -0.868213
    8       -0.486789
    9       10.470765
   10       11.922049
   11       12.336602
   12       13.692063
 
  0.2222222E+00  0.1111111E+00  0.0000000E+00  0.1543210E-02
    1      -13.016835
    2      -12.779066
    3       -3.594329
    4       -3.508803
    5       -1.555131
    6       -1.502452
    7       -1.439683
    8        0.216081
    9       10.475316
   10       11.023149
   11       11.272938
   12       13.561814
 
  0.2777778E+00  0.1111111E+00  0.0000000E+00  0.1543210E-02
    1      -12.233369
    2      -12.008564
    3       -4.992494
    4       -4.881619
    5       -2.069654
    6       -2.008604
    7       -0.527754
    8        1.028804
    9        8.961856
   10        9.663483
   11       12.235261
   12       13.358167
 
  0.3333333E+00  0.1111111E+00  0.0000000E+00  0.1543210E-02
    1      -11.325590
    2      -11.116356
    3       -6.377613
    4       -6.245510
    5       -2.442510
    6       -2.376824
    7        0.489192
    8        1.881631
    9        7.521876
   10        8.331900
   11       13.114570
   12       13.334556
 
  0.3888889E+00  0.1111111E+00  0.0000000E+00  0.1543210E-02
    1      -10.322628
    2      -10.136305
    3       -7.673887
    4       -7.529392
    5       -2.668707
    6       -2.600562
    7        1.508664
    8        2.570925
    9        6.412154
   10        7.158390
   11       13.033285
   12       13.424570
 
  0.4444444E+00  0.1111111E+00  0.0000000E+00  0.1543210E-02
    1       -9.539612
    2       -9.439885
    3       -8.479413
    4       -8.406084
    5       -2.744962
    6       -2.676135
    7        2.104622
    8        2.743713
    9        6.054389
   10        6.550286
   11       12.993442
   12       13.397428
 
  0.5000000E+00  0.1111111E+00  0.0000000E+00  0.1543210E-02
    1      -10.325862
    2      -10.139481
    3       -7.669893
    4       -7.525151
    5       -2.670071
    6       -2.601906
    7        1.506420
    8        2.569899
    9        6.412178
   10        7.161372
   11       13.034905
   12       13.426130
 
 -0.4444444E+00  0.1111111E+00  0.0000000E+00  0.1543210E-02
    1      -11.328603
    2      -11.119349
    3       -6.373069
    4       -6.240749
    5       -2.445163
    6       -2.379396
    7        0.486667
    8        1.879627
    9        7.522280
   10        8.335205
   11       13.116789
   12       13.333437
 
 -0.3888889E+00  0.1111111E+00  0.0000000E+00  0.1543210E-02
    1      -12.235959
    2      -12.011145
    3       -4.987920
    4       -4.876935
    5       -2.073151
    6       -2.012010
    7       -0.530143
    8        1.026645
    9        8.961452
   10        9.666564
   11       12.231807
   12       13.362738
 
 -0.3333333E+00  0.1111111E+00  0.0000000E+00  0.1543210E-02
    1      -13.018995
    2      -12.781213
    3       -3.590582
    4       -3.504945
    5       -1.558440
    6       -1.505721
    7       -1.441787
    8        0.214093
    9       10.473249
   10       11.025792
   11       11.270011
   12       13.568105
 
 -0.2777778E+00  0.1111111E+00  0.0000000E+00  0.1543210E-02
    1      -13.667503
    2      -13.419035
    3       -2.265150
    4       -2.210983
    5       -2.208536
    6       -0.907166
    7       -0.869012
    8       -0.488466
    9       10.468408
   10       11.917971
   11       12.338614
   12       13.700455
 
 -0.2222222E+00  0.1111111E+00  0.0000000E+00  0.1543210E-02
    1      -14.175995
    2      -13.919185
    3       -2.820382
    4       -1.122455
    5       -1.086709
    6       -1.051727
    7       -0.153895
    8       -0.128870
    9        9.839744
   10       13.190466
   11       13.540601
   12       13.543525
 
 -0.1666667E+00  0.1111111E+00  0.0000000E+00  0.1543210E-02
    1      -14.541182
    2      -14.278385
    3       -3.260536
    4       -1.461340
    5       -0.228468
    6       -0.189069
    7        0.554830
    8        0.582789
    9        9.389500
   10       13.132805
   11       13.257574
   12       14.213861
 
 -0.1111111E+00  0.1111111E+00  0.0000000E+00  0.7716049E-03
    1      -14.760917
    2      -14.494551
    3       -3.526284
    4       -1.709542
    5        0.427599
    6        0.465999
    7        0.994959
    8        1.023541
    9        9.120194
   10       12.954730
   11       13.056199
   12       14.113393
 
  0.1666667E+00  0.1666667E+00  0.0000000E+00  0.7716049E-03
    1      -13.088668
    2      -12.849745
    3       -3.183460
    4       -3.135509
    5       -1.824444
    6       -1.789366
    7       -1.522874
    8        0.142336
    9       10.726801
   10       11.163639
   11       11.188905
   12       14.485789
 
  0.2222222E+00  0.1666667E+00  0.0000000E+00  0.1543210E-02
    1      -12.375188
    2      -12.147936
    3       -4.309272
    4       -4.234395
    5       -2.597402
    6       -2.543803
    7       -0.684802
    8        0.898538
    9        9.403275
   10        9.918795
   11       12.075436
   12       14.673531
 
  0.2777778E+00  0.1666667E+00  0.0000000E+00  0.1543210E-02
    1      -11.533277
    2      -11.320163
    3       -5.580421
    4       -5.472099
    5       -3.140427
    6       -3.068710
    7        0.281226
    8        1.742210
    9        8.031126
   10        8.664541
   11       13.116787
   12       14.524138
 
  0.3333333E+00  0.1666667E+00  0.0000000E+00  0.1543210E-02
    1      -10.579434
    2      -10.384291
    3       -6.866958
    4       -6.735254
    5       -3.482835
    6       -3.402183
    7        1.320193
    8        2.566444
    9        6.776169
   10        7.465434
   11       14.228975
   12       14.421775
 
  0.3888889E+00  0.1666667E+00  0.0000000E+00  0.1543210E-02
    1       -9.589134
    2       -9.433971
    3       -8.011269
    4       -7.885909
    5       -3.650125
    6       -3.565915
    7        2.244900
    8        3.045709
    9        6.036361
   10        6.490597
   11       14.266525
   12       14.762640
 
  0.4444444E+00  0.1666667E+00  0.0000000E+00  0.1543210E-02
    1       -9.593510
    2       -9.437973
    3       -8.006755
    4       -7.880815
    5       -3.651003
    6       -3.566821
    7        2.242469
    8        3.045348
    9        6.034550
   10        6.494785
   11       14.267487
   12       14.763438
 
  0.5000000E+00  0.1666667E+00  0.0000000E+00  0.1543210E-02
    1      -10.584179
    2      -10.388955
    3       -6.860579
    4       -6.728672
    5       -3.485284
    6       -3.404547
    7        1.316540
    8        2.563847
    9        6.775644
   10        7.470813
   11       14.225829
   12       14.420912
 
 -0.4444444E+00  0.1666667E+00  0.0000000E+00  0.1543210E-02
    1      -11.537476
    2      -11.324352
    3       -5.574073
    4       -5.465514
    5       -3.143825
    6       -3.071977
    7        0.277547
    8        1.738926
    9        8.029745
   10        8.669803
   11       13.111032
   12       14.528902
 
 -0.3888889E+00  0.1666667E+00  0.0000000E+00  0.1543210E-02
    1      -12.378751
    2      -12.151486
    3       -4.304897
    4       -4.229655
    5       -2.599759
    6       -2.546024
    7       -0.688151
    8        0.895354
    9        9.399587
   10        9.923526
   11       12.070627
   12       14.681808
 
 -0.3333333E+00  0.1666667E+00  0.0000000E+00  0.1543210E-02
    1      -13.091565
    2      -12.852639
    3       -3.184876
    4       -3.135780
    5       -1.822255
    6       -1.786474
    7       -1.525741
    8        0.139547
    9       10.720668
   10       11.167047
   11       11.185000
   12       14.506168
 
 -0.2777778E+00  0.1666667E+00  0.0000000E+00  0.1543210E-02
    1      -13.668038
    2      -13.419567
    3       -2.273728
    4       -2.216301
    5       -2.211537
    6       -0.898043
    7       -0.859338
    8       -0.489047
    9       10.467726
   10       11.914657
   11       12.337621
   12       13.718476
 
 -0.2222222E+00  0.1666667E+00  0.0000000E+00  0.1543210E-02
    1      -14.103520
    2      -13.847921
    3       -2.733421
    4       -1.474677
    5       -1.411972
    6       -0.971381
    7       -0.068663
    8       -0.030439
    9        9.926825
   10       12.942176
   11       13.053979
   12       13.250784
 
 -0.1666667E+00  0.1666667E+00  0.0000000E+00  0.7716049E-03
    1      -14.395100
    2      -14.134742
    3       -3.084399
    4       -1.297249
    5       -0.757678
    6       -0.700272
    7        0.433137
    8        0.468623
    9        9.567439
   10       12.863718
   11       13.030134
   12       13.743854
 
  0.2222222E+00  0.2222222E+00  0.0000000E+00  0.7716049E-03
    1      -11.602752
    2      -11.388601
    3       -5.104337
    4       -5.043457
    5       -3.560771
    6       -3.515042
    7        0.210692
    8        1.693167
    9        8.252686
   10        8.769247
   11       13.035987
   12       15.786976
 
  0.2777778E+00  0.2222222E+00  0.0000000E+00  0.1543210E-02
    1      -10.711873
    2      -10.513281
    3       -6.120676
    4       -6.028173
    5       -4.231847
    6       -4.162830
    7        1.215565
    8        2.548712
    9        7.064310
   10        7.636959
   11       14.132653
   12       15.839515
 
  0.3333333E+00  0.2222222E+00  0.0000000E+00  0.1543210E-02
    1       -9.733730
    2       -9.558013
    3       -7.246366
    4       -7.125186
    5       -4.584198
    6       -4.495665
    7        2.247654
    8        3.302019
    9        6.042175
   10        6.583968
   11       15.306008
   12       15.715157
 
  0.3888889E+00  0.2222222E+00  0.0000000E+00  0.1543210E-02
    1       -8.974700
    2       -8.880387
    3       -7.991245
    4       -7.937101
    5       -4.692579
    6       -4.598996
    7        2.895421
    8        3.514571
    9        5.824598
   10        5.841207
   11       15.630574
   12       16.341705
 
  0.4444444E+00  0.2222222E+00  0.0000000E+00  0.1543210E-02
    1       -9.740240
    2       -9.564446
    3       -7.238840
    4       -7.117144
    5       -4.585812
    6       -4.497156
    7        2.243207
    8        3.299515
    9        6.039165
   10        6.591952
   11       15.296441
   12       15.715549
 
  0.5000000E+00  0.2222222E+00  0.0000000E+00  0.1543210E-02
    1      -10.717885
    2      -10.519288
    3       -6.113633
    4       -6.020545
    5       -4.233728
    6       -4.164468
    7        1.210704
    8        2.544334
    9        7.061334
   10        7.644706
   11       14.124194
   12       15.843032
 
 -0.4444444E+00  0.2222222E+00  0.0000000E+00  0.1543210E-02
    1      -11.607939
    2      -11.393784
    3       -5.102058
    4       -5.039733
    5       -3.559575
    6       -3.512915
    7        0.206080
    8        1.688649
    9        8.247558
   10        8.775820
   11       13.028987
   12       16.043374
 
 -0.3888889E+00  0.2222222E+00  0.0000000E+00  0.1543210E-02
    1      -12.379508
    2      -12.152243
    3       -4.313092
    4       -4.237017
    5       -2.590668
    6       -2.536318
    7       -0.688889
    8        0.894444
    9        9.396326
   10        9.922607
   11       12.069730
   12       14.708591
 
 -0.3333333E+00  0.2222222E+00  0.0000000E+00  0.1543210E-02
    1      -13.020280
    2      -12.782498
    3       -3.602442
    4       -3.516309
    5       -1.544062
    6       -1.491151
    7       -1.443087
    8        0.212649
    9       10.467337
   10       11.023439
   11       11.268453
   12       13.595004
 
 -0.2777778E+00  0.2222222E+00  0.0000000E+00  0.1543210E-02
    1      -13.523695
    2      -13.277575
    3       -2.877885
    4       -2.792501
    5       -2.040694
    6       -0.671971
    7       -0.626878
    8       -0.333430
    9       10.638988
   10       11.451920
   11       12.009991
   12       12.852149
 
 -0.2222222E+00  0.2222222E+00  0.0000000E+00  0.7716049E-03
    1      -13.885567
    2      -13.633583
    3       -2.472567
    4       -2.143401
    5       -2.065284
    6       -0.730525
    7       -0.162946
    8       -0.122410
    9       10.191508
   10       12.309560
   11       12.662784
   12       12.859763
 
  0.2777778E+00  0.2777778E+00  0.0000000E+00  0.7716049E-03
    1       -9.789716
    2       -9.610233
    3       -6.742962
    4       -6.669813
    5       -5.099750
    6       -5.048652
    7        2.237194
    8        3.394386
    9        6.057610
   10        6.637105
   11       15.236511
   12       16.056481
 
  0.3333333E+00  0.2777778E+00  0.0000000E+00  0.1543210E-02
    1       -8.838751
    2       -8.695010
    3       -7.562210
    4       -7.474100
    5       -5.541039
    6       -5.470666
    7        3.223938
    8        4.037900
    9        5.253194
   10        5.750385
   11       15.829629
   12       15.935925
 
  0.3888889E+00  0.2777778E+00  0.0000000E+00  0.1543210E-02
    1       -8.846439
    2       -8.702303
    3       -7.555469
    4       -7.465600
    5       -5.541224
    6       -5.470662
    7        3.219678
    8        4.036979
    9        5.247737
   10        5.759255
   11       15.846356
   12       15.920413
 
  0.4444444E+00  0.2777778E+00  0.0000000E+00  0.1543210E-02
    1       -9.797750
    2       -9.618317
    3       -6.737681
    4       -6.662868
    5       -5.098274
    6       -5.046130
    7        2.231569
    8        3.388711
    9        6.054010
   10        6.646484
   11       15.224793
   12       16.287106
 
  0.5000000E+00  0.2777778E+00  0.0000000E+00  0.1543210E-02
    1      -10.718934
    2      -10.520377
    3       -6.120734
    4       -6.026924
    5       -4.225519
    6       -4.155606
    7        1.209895
    8        2.542550
    9        7.059365
   10        7.644057
   11       14.123129
   12       15.877572
 
 -0.4444444E+00  0.2777778E+00  0.0000000E+00  0.1543210E-02
    1      -11.539246
    2      -11.326143
    3       -5.584656
    4       -5.475680
    5       -3.130152
    6       -3.058097
    7        0.275964
    8        1.736512
    9        8.024971
   10        8.667719
   11       13.109138
   12       14.562031
 
 -0.3888889E+00  0.2777778E+00  0.0000000E+00  0.1543210E-02
    1      -12.238232
    2      -12.013427
    3       -4.999940
    4       -4.888686
    5       -2.056589
    6       -1.995446
    7       -0.532326
    8        1.023910
    9        8.954549
   10        9.662711
   11       12.229461
   12       13.393846
 
 -0.3333333E+00  0.2777778E+00  0.0000000E+00  0.1543210E-02
    1      -12.805741
    2      -12.571457
    3       -4.338417
    4       -4.231058
    5       -1.198059
    6       -1.195133
    7       -1.148642
    8        0.431454
    9        9.860183
   10       10.587261
   11       11.513236
   12       12.619218
 
 -0.2777778E+00  0.2777778E+00  0.0000000E+00  0.7716049E-03
    1      -13.235532
    2      -12.994105
    3       -3.614231
    4       -3.515202
    5       -1.700438
    6       -0.717326
    7       -0.673577
    8       -0.024546
    9       10.718078
   10       10.984050
   11       11.394879
   12       12.418145
 
  0.3333333E+00  0.3333333E+00  0.0000000E+00  0.7716049E-03
    1       -8.080977
    2       -7.994558
    3       -7.992523
    4       -7.909693
    5       -5.946712
    6       -5.945867
    7        3.978759
    8        4.545578
    9        4.553797
   10        5.227643
   11       15.650973
   12       15.674130
 
  0.3888889E+00  0.3333333E+00  0.0000000E+00  0.1543210E-02
    1       -8.849245
    2       -8.705932
    3       -7.557707
    4       -7.468415
    5       -5.535555
    6       -5.464202
    7        3.219699
    8        4.028210
    9        5.251991
   10        5.760026
   11       15.845057
   12       15.923410
 
  0.4444444E+00  0.3333333E+00  0.0000000E+00  0.1543210E-02
    1       -9.743045
    2       -9.567583
    3       -7.246287
    4       -7.124555
    5       -4.574387
    6       -4.485465
    7        2.241992
    8        3.292915
    9        6.039176
   10        6.590837
   11       15.295382
   12       15.751288
 
  0.5000000E+00  0.3333333E+00  0.0000000E+00  0.1543210E-02
    1      -10.587375
    2      -10.392352
    3       -6.870284
    4       -6.738263
    5       -3.470281
    6       -3.389511
    7        1.314252
    8        2.558360
    9        6.772185
   10        7.467619
   11       14.231871
   12       14.448587
 
 -0.4444444E+00  0.3333333E+00  0.0000000E+00  0.1543210E-02
    1      -11.332172
    2      -11.122976
    3       -6.383789
    4       -6.251496
    5       -2.427880
    6       -2.362172
    7        0.483630
    8        1.874707
    9        7.516393
   10        8.330086
   11       13.140902
   12       13.348864
 
 -0.3888889E+00  0.3333333E+00  0.0000000E+00  0.1543210E-02
    1      -11.956827
    2      -11.736759
    3       -5.786229
    4       -5.658451
    5       -1.613780
    6       -1.561602
    7       -0.222339
    8        1.276744
    9        8.296114
   10        9.160472
   11       12.325169
   12       12.528617
 
 -0.3333333E+00  0.3333333E+00  0.0000000E+00  0.7716049E-03
    1      -12.450046
    2      -12.221568
    3       -5.093184
    4       -4.973468
    5       -1.182717
    6       -1.136781
    7       -0.785864
    8        0.789911
    9        9.096713
   10        9.933136
   11       11.879234
   12       12.210822
 
  0.3888889E+00  0.3888889E+00  0.0000000E+00  0.7716049E-03
    1       -8.983961
    2       -8.891804
    3       -7.990593
    4       -7.937750
    5       -4.681115
    6       -4.587334
    7        2.894830
    8        3.499780
    9        5.830778
   10        5.839635
   11       15.666553
   12       16.369640
 
  0.4444444E+00  0.3888889E+00  0.0000000E+00  0.1543210E-02
    1       -9.599655
    2       -9.445274
    3       -8.012251
    4       -7.887150
    5       -3.636098
    6       -3.551855
    7        2.241008
    8        3.032738
    9        6.037004
   10        6.490091
   11       14.303850
   12       14.800252
 
  0.5000000E+00  0.3888889E+00  0.0000000E+00  0.1543210E-02
    1      -10.331390
    2      -10.145372
    3       -7.678043
    4       -7.533474
    5       -2.652818
    6       -2.584723
    7        1.503264
    8        2.560347
    9        6.410497
   10        7.154883
   11       13.069547
   12       13.460811
 
 -0.4444444E+00  0.3888889E+00  0.0000000E+00  0.1543210E-02
    1      -10.991833
    2      -10.789591
    3       -7.165739
    4       -7.020912
    5       -1.899743
    6       -1.845919
    7        0.816498
    8        2.078867
    9        6.941532
   10        7.836203
   11       12.227192
   12       12.571664
 
 -0.3888889E+00  0.3888889E+00  0.0000000E+00  0.7716049E-03
    1      -11.538855
    2      -11.326067
    3       -6.524740
    4       -6.386068
    5       -1.531355
    6       -1.483575
    7        0.232450
    8        1.637364
    9        7.590991
   10        8.520962
   11       11.968118
   12       12.282867
 
  0.4444444E+00  0.4444444E+00  0.0000000E+00  0.7716049E-03
    1       -9.549875
    2       -9.452416
    3       -8.480721
    4       -8.408987
    5       -2.728217
    6       -2.659449
    7        2.103311
    8        2.727653
    9        6.058631
   10        6.541923
   11       13.029342
   12       13.433623
 
  0.5000000E+00  0.4444444E+00  0.0000000E+00  0.1543210E-02
    1       -9.985274
    2       -9.824606
    3       -8.359152
    4       -8.224392
    5       -2.045181
    6       -1.990567
    7        1.721327
    8        2.513557
    9        6.158307
   10        6.844602
   11       12.148500
   12       12.513941
 
 -0.4444444E+00  0.4444444E+00  0.0000000E+00  0.7716049E-03
    1      -10.530211
    2      -10.340680
    3       -7.847730
    4       -7.698470
    5       -1.745948
    6       -1.697299
    7        1.247919
    8        2.306688
    9        6.455806
   10        7.307056
   11       11.854539
   12       12.205028
 
  0.5000000E+00  0.5000000E+00  0.0000000E+00  0.3858025E-03
    1       -9.738708
    2       -9.639632
    3       -8.664771
    4       -8.589924
    5       -1.818278
    6       -1.769263
    7        1.836250
    8        2.466072
    9        6.079130
   10        6.709258
   11       11.814370
   12       12.173329
 