# Thermal properties / unit cell (natom)

unit:
  temperature:   K
  free_energy:   kJ/mol
  entropy:       J/K/mol
  heat_capacity: J/K/mol

natom:     4
num_modes: 3888
num_integrated_modes: 3874

zero_point_energy:      66.0797926
high_T_entropy:        229.5269768

thermal_properties:
- temperature:         0.0000000
  free_energy:        66.0797926
  entropy:             0.0000000
  heat_capacity:       0.0000000
  energy:             66.0797926

- temperature:        10.0000000
  free_energy:        66.0797731
  entropy:             0.0097696
  heat_capacity:       0.0320302
  energy:             66.0798708

- temperature:        20.0000000
  free_energy:        66.0794689
  entropy:             0.0545073
  heat_capacity:       0.1081071
  energy:             66.0805590

- temperature:        30.0000000
  free_energy:        66.0786186
  entropy:             0.1196825
  heat_capacity:       0.2370337
  energy:             66.0822091

- temperature:        40.0000000
  free_energy:        66.0769643
  entropy:             0.2180480
  heat_capacity:       0.4800402
  energy:             66.0856862

- temperature:        50.0000000
  free_energy:        66.0741016
  entropy:             0.3630031
  heat_capacity:       0.8550744
  energy:             66.0922517

- temperature:        60.0000000
  free_energy:        66.0695248
  entropy:             0.5616656
  heat_capacity:       1.3613964
  energy:             66.1032248

- temperature:        70.0000000
  free_energy:        66.0626767
  entropy:             0.8177756
  heat_capacity:       2.0001351
  energy:             66.1199209

- temperature:        80.0000000
  free_energy:        66.0529694
  entropy:             1.1338302
  heat_capacity:       2.7732471
  energy:             66.1436758

- temperature:        90.0000000
  free_energy:        66.0397946
  entropy:             1.5114915
  heat_capacity:       3.6790663
  energy:             66.1758288

- temperature:       100.0000000
  free_energy:        66.0225318
  entropy:             1.9514616
  heat_capacity:       4.7109730
  energy:             66.2176779

- temperature:       110.0000000
  free_energy:        66.0005587
  entropy:             2.4534005
  heat_capacity:       5.8581197
  energy:             66.2704327

- temperature:       120.0000000
  free_energy:        65.9732615
  entropy:             3.0159770
  heat_capacity:       7.1067514
  energy:             66.3351788

- temperature:       130.0000000
  free_energy:        65.9400442
  entropy:             3.6370057
  heat_capacity:       8.4415291
  energy:             66.4128550

- temperature:       140.0000000
  free_energy:        65.9003361
  entropy:             4.3136276
  heat_capacity:       9.8466942
  energy:             66.5042439

- temperature:       150.0000000
  free_energy:        65.8535975
  entropy:             5.0425007
  heat_capacity:      11.3070181
  energy:             66.6099726

- temperature:       160.0000000
  free_energy:        65.7993240
  entropy:             5.8199830
  heat_capacity:      12.8084984
  energy:             66.7305213

- temperature:       170.0000000
  free_energy:        65.7370484
  entropy:             6.6422941
  heat_capacity:      14.3387947
  energy:             66.8662384

- temperature:       180.0000000
  free_energy:        65.6663413
  entropy:             7.5056487
  heat_capacity:      15.8874248
  energy:             67.0173581

- temperature:       190.0000000
  free_energy:        65.5868109
  entropy:             8.4063587
  heat_capacity:      17.4457670
  energy:             67.1840191

- temperature:       200.0000000
  free_energy:        65.4981014
  entropy:             9.3409063
  heat_capacity:      19.0069261
  energy:             67.3662826

- temperature:       210.0000000
  free_energy:        65.3998910
  entropy:            10.3059898
  heat_capacity:      20.5655164
  energy:             67.5641489

- temperature:       220.0000000
  free_energy:        65.2918900
  entropy:            11.2985478
  heat_capacity:      22.1174095
  energy:             67.7775705

- temperature:       230.0000000
  free_energy:        65.1738379
  entropy:            12.3157668
  heat_capacity:      23.6594808
  energy:             68.0064642

- temperature:       240.0000000
  free_energy:        65.0455011
  entropy:            13.3550767
  heat_capacity:      25.1893748
  energy:             68.2507195

- temperature:       250.0000000
  free_energy:        64.9066705
  entropy:            14.4141384
  heat_capacity:      26.7053047
  energy:             68.5102051

- temperature:       260.0000000
  free_energy:        64.7571596
  entropy:            15.4908263
  heat_capacity:      28.2058882
  energy:             68.7847744

- temperature:       270.0000000
  free_energy:        64.5968017
  entropy:            16.5832086
  heat_capacity:      29.6900194
  energy:             69.0742681

- temperature:       280.0000000
  free_energy:        64.4254490
  entropy:            17.6895282
  heat_capacity:      31.1567752
  energy:             69.3785169

- temperature:       290.0000000
  free_energy:        64.2429701
  entropy:            18.8081824
  heat_capacity:      32.6053486
  energy:             69.6973429

- temperature:       300.0000000
  free_energy:        64.0492491
  entropy:            19.9377056
  heat_capacity:      34.0350047
  energy:             70.0305608

- temperature:       310.0000000
  free_energy:        63.8441842
  entropy:            21.0767531
  heat_capacity:      35.4450549
  energy:             70.3779777

- temperature:       320.0000000
  free_energy:        63.6276864
  entropy:            22.2240872
  heat_capacity:      36.8348430
  energy:             70.7393943

- temperature:       330.0000000
  free_energy:        63.3996787
  entropy:            23.3785644
  heat_capacity:      38.2037403
  energy:             71.1146049

- temperature:       340.0000000
  free_energy:        63.1600949
  entropy:            24.5391254
  heat_capacity:      39.5511469
  energy:             71.5033975

- temperature:       350.0000000
  free_energy:        62.9088792
  entropy:            25.7047861
  heat_capacity:      40.8764957
  energy:             71.9055543

- temperature:       360.0000000
  free_energy:        62.6459852
  entropy:            26.8746303
  heat_capacity:      42.1792586
  energy:             72.3208521

- temperature:       370.0000000
  free_energy:        62.3713755
  entropy:            28.0478030
  heat_capacity:      43.4589528
  energy:             72.7490626

- temperature:       380.0000000
  free_energy:        62.0850207
  entropy:            29.2235056
  heat_capacity:      44.7151463
  energy:             73.1899528

- temperature:       390.0000000
  free_energy:        61.7868994
  entropy:            30.4009910
  heat_capacity:      45.9474633
  energy:             73.6432859

- temperature:       400.0000000
  free_energy:        61.4769973
  entropy:            31.5795604
  heat_capacity:      47.1555874
  energy:             74.1088214

- temperature:       410.0000000
  free_energy:        61.1553068
  entropy:            32.7585595
  heat_capacity:      48.3392641
  energy:             74.5863162

- temperature:       420.0000000
  free_energy:        60.8218267
  entropy:            33.9373759
  heat_capacity:      49.4983022
  energy:             75.0755246

- temperature:       430.0000000
  free_energy:        60.4765618
  entropy:            35.1154369
  heat_capacity:      50.6325733
  energy:             75.5761996

- temperature:       440.0000000
  free_energy:        60.1195223
  entropy:            36.2922068
  heat_capacity:      51.7420110
  energy:             76.0880933

- temperature:       450.0000000
  free_energy:        59.7507236
  entropy:            37.4671854
  heat_capacity:      52.8266084
  energy:             76.6109571

- temperature:       460.0000000
  free_energy:        59.3701861
  entropy:            38.6399059
  heat_capacity:      53.8864164
  energy:             77.1445428

- temperature:       470.0000000
  free_energy:        58.9779345
  entropy:            39.8099332
  heat_capacity:      54.9215392
  energy:             77.6886031

- temperature:       480.0000000
  free_energy:        58.5739978
  entropy:            40.9768626
  heat_capacity:      55.9321317
  energy:             78.2428918

- temperature:       490.0000000
  free_energy:        58.1584088
  entropy:            42.1403180
  heat_capacity:      56.9183951
  energy:             78.8071646

- temperature:       500.0000000
  free_energy:        57.7312042
  entropy:            43.2999505
  heat_capacity:      57.8805730
  energy:             79.3811794

- temperature:       510.0000000
  free_energy:        57.2924236
  entropy:            44.4554375
  heat_capacity:      58.8189473
  energy:             79.9646967

- temperature:       520.0000000
  free_energy:        56.8421102
  entropy:            45.6064805
  heat_capacity:      59.7338339
  energy:             80.5574801

- temperature:       530.0000000
  free_energy:        56.3803098
  entropy:            46.7528048
  heat_capacity:      60.6255793
  energy:             81.1592963

- temperature:       540.0000000
  free_energy:        55.9070707
  entropy:            47.8941575
  heat_capacity:      61.4945561
  energy:             81.7699158

- temperature:       550.0000000
  free_energy:        55.4224439
  entropy:            49.0303070
  heat_capacity:      62.3411596
  energy:             82.3891128

- temperature:       560.0000000
  free_energy:        54.9264826
  entropy:            50.1610413
  heat_capacity:      63.1658047
  energy:             83.0166658

- temperature:       570.0000000
  free_energy:        54.4192418
  entropy:            51.2861672
  heat_capacity:      63.9689219
  energy:             83.6523571

- temperature:       580.0000000
  free_energy:        53.9007785
  entropy:            52.4055092
  heat_capacity:      64.7509549
  energy:             84.2959739

- temperature:       590.0000000
  free_energy:        53.3711514
  entropy:            53.5189085
  heat_capacity:      65.5123577
  energy:             84.9473075

- temperature:       600.0000000
  free_energy:        52.8304207
  entropy:            54.6262220
  heat_capacity:      66.2535918
  energy:             85.6061538

- temperature:       610.0000000
  free_energy:        52.2786477
  entropy:            55.7273212
  heat_capacity:      66.9751241
  energy:             86.2723136

- temperature:       620.0000000
  free_energy:        51.7158953
  entropy:            56.8220917
  heat_capacity:      67.6774250
  energy:             86.9455922

- temperature:       630.0000000
  free_energy:        51.1422273
  entropy:            57.9104322
  heat_capacity:      68.3609659
  energy:             87.6257996

- temperature:       640.0000000
  free_energy:        50.5577084
  entropy:            58.9922533
  heat_capacity:      69.0262182
  energy:             88.3127506

- temperature:       650.0000000
  free_energy:        49.9624042
  entropy:            60.0674774
  heat_capacity:      69.6736511
  energy:             89.0062646

- temperature:       660.0000000
  free_energy:        49.3563811
  entropy:            61.1360374
  heat_capacity:      70.3037311
  energy:             89.7061657

- temperature:       670.0000000
  free_energy:        48.7397059
  entropy:            62.1978761
  heat_capacity:      70.9169200
  energy:             90.4122829

- temperature:       680.0000000
  free_energy:        48.1124461
  entropy:            63.2529459
  heat_capacity:      71.5136745
  energy:             91.1244494

- temperature:       690.0000000
  free_energy:        47.4746697
  entropy:            64.3012079
  heat_capacity:      72.0944450
  energy:             91.8425031

- temperature:       700.0000000
  free_energy:        46.8264448
  entropy:            65.3426310
  heat_capacity:      72.6596751
  energy:             92.5662865

- temperature:       710.0000000
  free_energy:        46.1678399
  entropy:            66.3771920
  heat_capacity:      73.2098007
  energy:             93.2956463

- temperature:       720.0000000
  free_energy:        45.4989239
  entropy:            67.4048746
  heat_capacity:      73.7452495
  energy:             94.0304336

- temperature:       730.0000000
  free_energy:        44.8197654
  entropy:            68.4256689
  heat_capacity:      74.2664409
  energy:             94.7705037

- temperature:       740.0000000
  free_energy:        44.1304335
  entropy:            69.4395713
  heat_capacity:      74.7737853
  energy:             95.5157162

- temperature:       750.0000000
  free_energy:        43.4309969
  entropy:            70.4465835
  heat_capacity:      75.2676839
  energy:             96.2659346

- temperature:       760.0000000
  free_energy:        42.7215247
  entropy:            71.4467127
  heat_capacity:      75.7485285
  energy:             97.0210264

- temperature:       770.0000000
  free_energy:        42.0020856
  entropy:            72.4399706
  heat_capacity:      76.2167015
  energy:             97.7808629

- temperature:       780.0000000
  free_energy:        41.2727482
  entropy:            73.4263734
  heat_capacity:      76.6725756
  energy:             98.5453194

- temperature:       790.0000000
  free_energy:        40.5335809
  entropy:            74.4059415
  heat_capacity:      77.1165140
  energy:             99.3142747

- temperature:       800.0000000
  free_energy:        39.7846520
  entropy:            75.3786988
  heat_capacity:      77.5488700
  energy:            100.0876111

- temperature:       810.0000000
  free_energy:        39.0260295
  entropy:            76.3446729
  heat_capacity:      77.9699876
  energy:            100.8652146

- temperature:       820.0000000
  free_energy:        38.2577811
  entropy:            77.3038944
  heat_capacity:      78.3802009
  energy:            101.6469745

- temperature:       830.0000000
  free_energy:        37.4799741
  entropy:            78.2563968
  heat_capacity:      78.7798347
  energy:            102.4327834

- temperature:       840.0000000
  free_energy:        36.6926754
  entropy:            79.2022161
  heat_capacity:      79.1692045
  energy:            103.2225370

- temperature:       850.0000000
  free_energy:        35.8959519
  entropy:            80.1413910
  heat_capacity:      79.5486165
  energy:            104.0161343

- temperature:       860.0000000
  free_energy:        35.0898696
  entropy:            81.0739622
  heat_capacity:      79.9183679
  energy:            104.8134771

- temperature:       870.0000000
  free_energy:        34.2744945
  entropy:            81.9999723
  heat_capacity:      80.2787468
  energy:            105.6144704

- temperature:       880.0000000
  free_energy:        33.4498919
  entropy:            82.9194657
  heat_capacity:      80.6300329
  energy:            106.4190217

- temperature:       890.0000000
  free_energy:        32.6161268
  entropy:            83.8324886
  heat_capacity:      80.9724970
  energy:            107.2270416

- temperature:       900.0000000
  free_energy:        31.7732635
  entropy:            84.7390885
  heat_capacity:      81.3064019
  energy:            108.0384431

- temperature:       910.0000000
  free_energy:        30.9213662
  entropy:            85.6393140
  heat_capacity:      81.6320019
  energy:            108.8531420

- temperature:       920.0000000
  free_energy:        30.0604983
  entropy:            86.5332152
  heat_capacity:      81.9495435
  energy:            109.6710563

- temperature:       930.0000000
  free_energy:        29.1907228
  entropy:            87.4208429
  heat_capacity:      82.2592656
  energy:            110.4921068

- temperature:       940.0000000
  free_energy:        28.3121022
  entropy:            88.3022491
  heat_capacity:      82.5613994
  energy:            111.3162163

- temperature:       950.0000000
  free_energy:        27.4246984
  entropy:            89.1774861
  heat_capacity:      82.8561687
  energy:            112.1433102

- temperature:       960.0000000
  free_energy:        26.5285729
  entropy:            90.0466073
  heat_capacity:      83.1437903
  energy:            112.9733159

- temperature:       970.0000000
  free_energy:        25.6237865
  entropy:            90.9096664
  heat_capacity:      83.4244741
  energy:            113.8061629

- temperature:       980.0000000
  free_energy:        24.7103996
  entropy:            91.7667177
  heat_capacity:      83.6984232
  energy:            114.6417829

- temperature:       990.0000000
  free_energy:        23.7884720
  entropy:            92.6178158
  heat_capacity:      83.9658341
  energy:            115.4801096

- temperature:      1000.0000000
  free_energy:        22.8580629
  entropy:            93.4630155
  heat_capacity:      84.2268972
  energy:            116.3210785
