  32  32   0   0
  0.8555981E+01  0.4932875E-09  0.4932875E-09  0.1299823E-08  0.5000000E-15
  1.000000000000000E-004
  CAR 
 graphite                                
     16.33577117    -16.70663921  301      4.94926190      1.00000000
    -16.707  0.0000E+00  0.0000E+00
    -16.596  0.0000E+00  0.0000E+00
    -16.486  0.0000E+00  0.0000E+00
    -16.376  0.0000E+00  0.0000E+00
    -16.266  0.0000E+00  0.0000E+00
    -16.156  0.0000E+00  0.0000E+00
    -16.046  0.0000E+00  0.0000E+00
    -15.936  0.0000E+00  0.0000E+00
    -15.826  0.0000E+00  0.0000E+00
    -15.715  0.0000E+00  0.0000E+00
    -15.605  0.0000E+00  0.0000E+00
    -15.495  0.0000E+00  0.0000E+00
    -15.385  0.0000E+00  0.0000E+00
    -15.275  0.0000E+00  0.0000E+00
    -15.165  0.0000E+00  0.0000E+00
    -15.055  0.0000E+00  0.0000E+00
    -14.944  0.0000E+00  0.0000E+00
    -14.834  0.0000E+00  0.0000E+00
    -14.724  0.0000E+00  0.0000E+00
    -14.614  0.9682E+00  0.3482E-01
    -14.504  0.2298E+01  0.2394E+00
    -14.394  0.3105E+01  0.5323E+00
    -14.284  0.4560E+01  0.9461E+00
    -14.173  0.5131E+01  0.1504E+01
    -14.063  0.4903E+01  0.2041E+01
    -13.953  0.4949E+01  0.2583E+01
    -13.843  0.4970E+01  0.3130E+01
    -13.733  0.4913E+01  0.3673E+01
    -13.623  0.5132E+01  0.4223E+01
    -13.513  0.6441E+01  0.4831E+01
    -13.402  0.7199E+01  0.5591E+01
    -13.292  0.6858E+01  0.6369E+01
    -13.182  0.6592E+01  0.7130E+01
    -13.072  0.2378E+01  0.7551E+01
    -12.962  0.1839E+01  0.7777E+01
    -12.852  0.1974E+01  0.7981E+01
    -12.742  0.2421E+01  0.8223E+01
    -12.631  0.4453E+01  0.8553E+01
    -12.521  0.6701E+01  0.9450E+01
    -12.411  0.7442E+01  0.1021E+02
    -12.301  0.6742E+01  0.1102E+02
    -12.191  0.4076E+01  0.1157E+02
    -12.081  0.4199E+01  0.1203E+02
    -11.971  0.4364E+01  0.1250E+02
    -11.860  0.4542E+01  0.1299E+02
    -11.750  0.4703E+01  0.1350E+02
    -11.640  0.4839E+01  0.1403E+02
    -11.530  0.5185E+01  0.1458E+02
    -11.420  0.5458E+01  0.1517E+02
    -11.310  0.6121E+01  0.1579E+02
    -11.200  0.5947E+01  0.1647E+02
    -11.089  0.5667E+01  0.1711E+02
    -10.979  0.5605E+01  0.1772E+02
    -10.869  0.5777E+01  0.1835E+02
    -10.759  0.5950E+01  0.1899E+02
    -10.649  0.5884E+01  0.1966E+02
    -10.539  0.5750E+01  0.2029E+02
    -10.429  0.5672E+01  0.2092E+02
    -10.318  0.5353E+01  0.2154E+02
    -10.208  0.4096E+01  0.2206E+02
    -10.098  0.3832E+01  0.2248E+02
     -9.988  0.4672E+01  0.2295E+02
     -9.878  0.4974E+01  0.2349E+02
     -9.768  0.5939E+01  0.2406E+02
     -9.658  0.7284E+01  0.2478E+02
     -9.547  0.1071E+02  0.2574E+02
     -9.437  0.9235E+01  0.2689E+02
     -9.327  0.6849E+01  0.2777E+02
     -9.217  0.4992E+01  0.2842E+02
     -9.107  0.4451E+01  0.2893E+02
     -8.997  0.3936E+01  0.2940E+02
     -8.887  0.5643E+01  0.2999E+02
     -8.776  0.5062E+01  0.3053E+02
     -8.666  0.2001E+01  0.3096E+02
     -8.556  0.1788E+01  0.3117E+02
     -8.446  0.1575E+01  0.3136E+02
     -8.336  0.1362E+01  0.3152E+02
     -8.226  0.1310E+01  0.3166E+02
     -8.116  0.1766E+01  0.3183E+02
     -8.005  0.2270E+01  0.3205E+02
     -7.895  0.2774E+01  0.3233E+02
     -7.785  0.5298E+01  0.3273E+02
     -7.675  0.1132E+02  0.3364E+02
     -7.565  0.5017E+01  0.3447E+02
     -7.455  0.5071E+01  0.3503E+02
     -7.345  0.6288E+01  0.3565E+02
     -7.234  0.7505E+01  0.3641E+02
     -7.124  0.8722E+01  0.3731E+02
     -7.014  0.9098E+01  0.3833E+02
     -6.904  0.7114E+01  0.3921E+02
     -6.794  0.5603E+01  0.3987E+02
     -6.684  0.5549E+01  0.4049E+02
     -6.574  0.5520E+01  0.4110E+02
     -6.463  0.5358E+01  0.4170E+02
     -6.353  0.5166E+01  0.4228E+02
     -6.243  0.5030E+01  0.4284E+02
     -6.133  0.4911E+01  0.4338E+02
     -6.023  0.4792E+01  0.4392E+02
     -5.913  0.4673E+01  0.4444E+02
     -5.803  0.4554E+01  0.4495E+02
     -5.693  0.4435E+01  0.4544E+02
     -5.582  0.4325E+01  0.4593E+02
     -5.472  0.4849E+01  0.4642E+02
     -5.362  0.5458E+01  0.4699E+02
     -5.252  0.6067E+01  0.4762E+02
     -5.142  0.6676E+01  0.4833E+02
     -5.032  0.7285E+01  0.4910E+02
     -4.922  0.7894E+01  0.4993E+02
     -4.811  0.8503E+01  0.5083E+02
     -4.701  0.7847E+01  0.5180E+02
     -4.591  0.4321E+01  0.5248E+02
     -4.481  0.6098E+01  0.5302E+02
     -4.371  0.6729E+01  0.5377E+02
     -4.261  0.5197E+01  0.5443E+02
     -4.151  0.3666E+01  0.5492E+02
     -4.040  0.2134E+01  0.5524E+02
     -3.930  0.1089E+01  0.5540E+02
     -3.820  0.2509E+01  0.5559E+02
     -3.710  0.4105E+01  0.5595E+02
     -3.600  0.5890E+01  0.5649E+02
     -3.490  0.9925E+01  0.5737E+02
     -3.380  0.1290E+02  0.5867E+02
     -3.269  0.1289E+02  0.6009E+02
     -3.159  0.1011E+02  0.6142E+02
     -3.049  0.4692E+01  0.6219E+02
     -2.939  0.5544E+01  0.6275E+02
     -2.829  0.6471E+01  0.6341E+02
     -2.719  0.8108E+01  0.6418E+02
     -2.609  0.1399E+02  0.6540E+02
     -2.498  0.2571E+02  0.6731E+02
     -2.388  0.6968E+01  0.6916E+02
     -2.278  0.7614E+01  0.6997E+02
     -2.168  0.7409E+01  0.7079E+02
     -2.058  0.7698E+01  0.7162E+02
     -1.948  0.8416E+01  0.7250E+02
     -1.838  0.1605E+02  0.7373E+02
     -1.727  0.1298E+02  0.7535E+02
     -1.617  0.1007E+02  0.7662E+02
     -1.507  0.1449E+02  0.7778E+02
     -1.397  0.3445E+02  0.8058E+02
     -1.287  0.2167E+02  0.8276E+02
     -1.177  0.1450E+02  0.8473E+02
     -1.067  0.1589E+02  0.8640E+02
     -0.956  0.1588E+02  0.8814E+02
     -0.846  0.9583E+01  0.8953E+02
     -0.736  0.6656E+01  0.9041E+02
     -0.626  0.7020E+01  0.9115E+02
     -0.516  0.7857E+01  0.9197E+02
     -0.406  0.9062E+01  0.9290E+02
     -0.296  0.1051E+02  0.9398E+02
     -0.185  0.1192E+02  0.9518E+02
     -0.075  0.1279E+02  0.9647E+02
      0.035  0.1218E+02  0.9830E+02
      0.145  0.1259E+02  0.9967E+02
      0.255  0.1130E+02  0.1010E+03
      0.365  0.9196E+01  0.1022E+03
      0.475  0.9078E+01  0.1032E+03
      0.586  0.8961E+01  0.1042E+03
      0.696  0.8908E+01  0.1052E+03
      0.806  0.1002E+02  0.1062E+03
      0.916  0.9674E+01  0.1073E+03
      1.026  0.9645E+01  0.1084E+03
      1.136  0.9532E+01  0.1094E+03
      1.246  0.9475E+01  0.1105E+03
      1.357  0.1014E+02  0.1115E+03
      1.467  0.9914E+01  0.1127E+03
      1.577  0.8987E+01  0.1137E+03
      1.687  0.1026E+02  0.1148E+03
      1.797  0.9738E+01  0.1159E+03
      1.907  0.8942E+01  0.1169E+03
      2.017  0.7108E+01  0.1178E+03
      2.128  0.5733E+01  0.1185E+03
      2.238  0.4394E+01  0.1190E+03
      2.348  0.3111E+01  0.1194E+03
      2.458  0.2897E+01  0.1198E+03
      2.568  0.3736E+01  0.1201E+03
      2.678  0.5234E+01  0.1206E+03
      2.788  0.7408E+01  0.1213E+03
      2.899  0.7609E+01  0.1222E+03
      3.009  0.8346E+01  0.1231E+03
      3.119  0.7940E+01  0.1240E+03
      3.229  0.5958E+01  0.1247E+03
      3.339  0.4603E+01  0.1253E+03
      3.449  0.3725E+01  0.1257E+03
      3.559  0.3232E+01  0.1261E+03
      3.670  0.2822E+01  0.1265E+03
      3.780  0.2430E+01  0.1268E+03
      3.890  0.2098E+01  0.1270E+03
      4.000  0.1808E+01  0.1272E+03
      4.110  0.1551E+01  0.1274E+03
      4.220  0.1305E+01  0.1276E+03
      4.330  0.1071E+01  0.1277E+03
      4.441  0.8543E+00  0.1278E+03
      4.551  0.6499E+00  0.1279E+03
      4.661  0.4555E+00  0.1279E+03
      4.771  0.2703E+00  0.1280E+03
      4.881  0.9338E-01  0.1280E+03
      4.991  0.2967E-01  0.1280E+03
      5.101  0.1537E+00  0.1280E+03
      5.211  0.2872E+00  0.1280E+03
      5.322  0.4305E+00  0.1281E+03
      5.432  0.5863E+00  0.1281E+03
      5.542  0.7547E+00  0.1282E+03
      5.652  0.9407E+00  0.1283E+03
      5.762  0.1151E+01  0.1284E+03
      5.872  0.1410E+01  0.1286E+03
      5.982  0.1682E+01  0.1287E+03
      6.093  0.2585E+01  0.1290E+03
      6.203  0.3155E+01  0.1293E+03
      6.313  0.3624E+01  0.1297E+03
      6.423  0.4545E+01  0.1301E+03
      6.533  0.8598E+01  0.1307E+03
      6.643  0.1262E+02  0.1321E+03
      6.753  0.9006E+01  0.1333E+03
      6.864  0.7404E+01  0.1342E+03
      6.974  0.6097E+01  0.1349E+03
      7.084  0.5329E+01  0.1355E+03
      7.194  0.4953E+01  0.1361E+03
      7.304  0.4554E+01  0.1366E+03
      7.414  0.4070E+01  0.1371E+03
      7.524  0.3544E+01  0.1375E+03
      7.635  0.3624E+01  0.1379E+03
      7.745  0.3913E+01  0.1383E+03
      7.855  0.4344E+01  0.1388E+03
      7.965  0.4671E+01  0.1393E+03
      8.075  0.4904E+01  0.1398E+03
      8.185  0.4770E+01  0.1404E+03
      8.295  0.4567E+01  0.1409E+03
      8.406  0.4448E+01  0.1414E+03
      8.516  0.4327E+01  0.1418E+03
      8.626  0.4221E+01  0.1423E+03
      8.736  0.4137E+01  0.1428E+03
      8.846  0.4058E+01  0.1432E+03
      8.956  0.3987E+01  0.1437E+03
      9.066  0.3694E+01  0.1441E+03
      9.177  0.3452E+01  0.1445E+03
      9.287  0.3332E+01  0.1449E+03
      9.397  0.3272E+01  0.1452E+03
      9.507  0.3176E+01  0.1456E+03
      9.617  0.3146E+01  0.1459E+03
      9.727  0.3352E+01  0.1463E+03
      9.837  0.3506E+01  0.1467E+03
      9.948  0.3500E+01  0.1471E+03
     10.058  0.3522E+01  0.1474E+03
     10.168  0.3573E+01  0.1478E+03
     10.278  0.3601E+01  0.1482E+03
     10.388  0.3592E+01  0.1486E+03
     10.498  0.3555E+01  0.1490E+03
     10.608  0.4561E+01  0.1495E+03
     10.719  0.4871E+01  0.1500E+03
     10.829  0.4981E+01  0.1505E+03
     10.939  0.4878E+01  0.1511E+03
     11.049  0.5100E+01  0.1516E+03
     11.159  0.5559E+01  0.1522E+03
     11.269  0.4851E+01  0.1528E+03
     11.379  0.4540E+01  0.1535E+03
     11.490  0.2969E+01  0.1538E+03
     11.600  0.2780E+01  0.1541E+03
     11.710  0.2382E+01  0.1544E+03
     11.820  0.2368E+01  0.1547E+03
     11.930  0.2485E+01  0.1550E+03
     12.040  0.3247E+01  0.1553E+03
     12.150  0.4136E+01  0.1557E+03
     12.261  0.5200E+01  0.1562E+03
     12.371  0.5771E+01  0.1568E+03
     12.481  0.8255E+01  0.1576E+03
     12.591  0.1054E+02  0.1586E+03
     12.701  0.1376E+02  0.1599E+03
     12.811  0.1511E+02  0.1615E+03
     12.921  0.1422E+02  0.1632E+03
     13.032  0.1079E+02  0.1646E+03
     13.142  0.9146E+01  0.1657E+03
     13.252  0.1056E+02  0.1667E+03
     13.362  0.4851E+01  0.1677E+03
     13.472  0.3013E+00  0.1679E+03
     13.582  0.2294E+00  0.1679E+03
     13.692  0.1672E+00  0.1680E+03
     13.803  0.1149E+00  0.1680E+03
     13.913  0.7231E-01  0.1680E+03
     14.023  0.3956E-01  0.1680E+03
     14.133  0.1662E-01  0.1680E+03
     14.243  0.3470E-02  0.1680E+03
     14.353  0.0000E+00  0.1680E+03
     14.463  0.0000E+00  0.1680E+03
     14.574  0.0000E+00  0.1680E+03
     14.684  0.0000E+00  0.1680E+03
     14.794  0.0000E+00  0.1680E+03
     14.904  0.0000E+00  0.1680E+03
     15.014  0.0000E+00  0.1680E+03
     15.124  0.0000E+00  0.1680E+03
     15.234  0.0000E+00  0.1680E+03
     15.344  0.0000E+00  0.1680E+03
     15.455  0.0000E+00  0.1680E+03
     15.565  0.0000E+00  0.1680E+03
     15.675  0.0000E+00  0.1680E+03
     15.785  0.0000E+00  0.1680E+03
     15.895  0.0000E+00  0.1680E+03
     16.005  0.0000E+00  0.1680E+03
     16.115  0.0000E+00  0.1680E+03
     16.226  0.0000E+00  0.1680E+03
     16.336  0.0000E+00  0.1680E+03
