Automatically generated mesh
      76
Reciprocal lattice
    0.00000000000000    0.00000000000000    0.00000000000000             1
    0.16666666666667    0.00000000000000    0.00000000000000             2
    0.33333333333333    0.00000000000000    0.00000000000000             2
    0.50000000000000    0.00000000000000    0.00000000000000             1
   -0.00000000000000    0.16666666666667    0.00000000000000             2
    0.16666666666667    0.16666666666667    0.00000000000000             2
    0.33333333333333    0.16666666666667    0.00000000000000             2
    0.50000000000000    0.16666666666667    0.00000000000000             2
   -0.33333333333333    0.16666666666667    0.00000000000000             2
   -0.16666666666667    0.16666666666667    0.00000000000000             2
    0.00000000000000    0.33333333333333    0.00000000000000             2
    0.16666666666667    0.33333333333333    0.00000000000000             2
    0.33333333333333    0.33333333333333    0.00000000000000             2
    0.50000000000000    0.33333333333333    0.00000000000000             2
   -0.33333333333333    0.33333333333333    0.00000000000000             2
   -0.16666666666667    0.33333333333333    0.00000000000000             2
   -0.00000000000000    0.50000000000000    0.00000000000000             1
    0.16666666666667    0.50000000000000    0.00000000000000             2
    0.33333333333333    0.50000000000000    0.00000000000000             2
    0.50000000000000    0.50000000000000    0.00000000000000             1
    0.00000000000000    0.00000000000000    0.25000000000000             2
    0.16666666666667    0.00000000000000    0.25000000000000             2
    0.33333333333333    0.00000000000000    0.25000000000000             2
    0.50000000000000    0.00000000000000    0.25000000000000             2
   -0.33333333333333    0.00000000000000    0.25000000000000             2
   -0.16666666666667    0.00000000000000    0.25000000000000             2
   -0.00000000000000    0.16666666666667    0.25000000000000             2
    0.16666666666667    0.16666666666667    0.25000000000000             2
    0.33333333333333    0.16666666666667    0.25000000000000             2
    0.50000000000000    0.16666666666667    0.25000000000000             2
   -0.33333333333333    0.16666666666667    0.25000000000000             2
   -0.16666666666667    0.16666666666667    0.25000000000000             2
    0.00000000000000    0.33333333333333    0.25000000000000             2
    0.16666666666667    0.33333333333333    0.25000000000000             2
    0.33333333333333    0.33333333333333    0.25000000000000             2
    0.50000000000000    0.33333333333333    0.25000000000000             2
   -0.33333333333333    0.33333333333333    0.25000000000000             2
   -0.16666666666667    0.33333333333333    0.25000000000000             2
   -0.00000000000000    0.50000000000000    0.25000000000000             2
    0.16666666666667    0.50000000000000    0.25000000000000             2
    0.33333333333333    0.50000000000000    0.25000000000000             2
    0.50000000000000    0.50000000000000    0.25000000000000             2
   -0.33333333333333    0.50000000000000    0.25000000000000             2
   -0.16666666666667    0.50000000000000    0.25000000000000             2
    0.00000000000000   -0.33333333333333    0.25000000000000             2
    0.16666666666667   -0.33333333333333    0.25000000000000             2
    0.33333333333333   -0.33333333333333    0.25000000000000             2
    0.50000000000000   -0.33333333333333    0.25000000000000             2
   -0.33333333333333   -0.33333333333333    0.25000000000000             2
   -0.16666666666667   -0.33333333333333    0.25000000000000             2
    0.00000000000000   -0.16666666666667    0.25000000000000             2
    0.16666666666667   -0.16666666666667    0.25000000000000             2
    0.33333333333333   -0.16666666666667    0.25000000000000             2
    0.50000000000000   -0.16666666666667    0.25000000000000             2
   -0.33333333333333   -0.16666666666667    0.25000000000000             2
   -0.16666666666667   -0.16666666666667    0.25000000000000             2
    0.00000000000000    0.00000000000000    0.50000000000000             1
    0.16666666666667    0.00000000000000    0.50000000000000             2
    0.33333333333333    0.00000000000000    0.50000000000000             2
    0.50000000000000    0.00000000000000    0.50000000000000             1
   -0.00000000000000    0.16666666666667    0.50000000000000             2
    0.16666666666667    0.16666666666667    0.50000000000000             2
    0.33333333333333    0.16666666666667    0.50000000000000             2
    0.50000000000000    0.16666666666667    0.50000000000000             2
   -0.33333333333333    0.16666666666667    0.50000000000000             2
   -0.16666666666667    0.16666666666667    0.50000000000000             2
    0.00000000000000    0.33333333333333    0.50000000000000             2
    0.16666666666667    0.33333333333333    0.50000000000000             2
    0.33333333333333    0.33333333333333    0.50000000000000             2
    0.50000000000000    0.33333333333333    0.50000000000000             2
   -0.33333333333333    0.33333333333333    0.50000000000000             2
   -0.16666666666667    0.33333333333333    0.50000000000000             2
   -0.00000000000000    0.50000000000000    0.50000000000000             1
    0.16666666666667    0.50000000000000    0.50000000000000             2
    0.33333333333333    0.50000000000000    0.50000000000000             2
    0.50000000000000    0.50000000000000    0.50000000000000             1
Tetrahedra
       432    0.00115740740741
         2         2         5         6        27
         2         1         2         5        27
         2         1         2        21        27
         2         2         6        27        28
         2         2        22        27        28
         2         2        21        22        27
         2         3         6         7        28
         2         2         3         6        28
         2         2         3        22        28
         2         3         7        28        29
         2         3        23        28        29
         2         3        22        23        28
         2         4         7         8        29
         2         3         4         7        29
         2         3         4        23        29
         2         4         8        29        30
         2         4        24        29        30
         2         4        23        24        29
         2         3         8         9        30
         2         3         4         8        30
         2         3         4        24        30
         2         3         9        30        31
         2         3        25        30        31
         2         3        24        25        30
         2         2         9        10        31
         2         2         3         9        31
         2         2         3        25        31
         2         2        10        31        32
         2         2        26        31        32
         2         2        25        26        31
         2         1         5        10        32
         2         1         2        10        32
         2         1         2        26        32
         2         1         5        27        32
         2         1        21        27        32
         2         1        21        26        32
         2         6        11        12        33
         2         5         6        11        33
         2         5         6        27        33
         2         6        12        33        34
         2         6        28        33        34
         2         6        27        28        33
         2         7        12        13        34
         2         6         7        12        34
         2         6         7        28        34
         2         7        13        34        35
         2         7        29        34        35
         2         7        28        29        34
         2         8        13        14        35
         2         7         8        13        35
         2         7         8        29        35
         2         8        14        35        36
         2         8        30        35        36
         2         8        29        30        35
         2         9        14        15        36
         2         8         9        14        36
         2         8         9        30        36
         2         9        15        36        37
         2         9        31        36        37
         2         9        30        31        36
         2        10        15        16        37
         2         9        10        15        37
         2         9        10        31        37
         2        10        16        37        38
         2        10        32        37        38
         2        10        31        32        37
         2         5        11        16        38
         2         5        10        16        38
         2         5        10        32        38
         2         5        11        33        38
         2         5        27        33        38
         2         5        27        32        38
         2        12        17        18        39
         2        11        12        17        39
         2        11        12        33        39
         2        12        18        39        40
         2        12        34        39        40
         2        12        33        34        39
         2        13        18        19        40
         2        12        13        18        40
         2        12        13        34        40
         2        13        19        40        41
         2        13        35        40        41
         2        13        34        35        40
         2        14        19        20        41
         2        13        14        19        41
         2        13        14        35        41
         2        14        20        41        42
         2        14        36        41        42
         2        14        35        36        41
         2        15        19        20        42
         2        14        15        20        42
         2        14        15        36        42
         2        15        19        42        43
         2        15        37        42        43
         2        15        36        37        42
         2        16        18        19        43
         2        15        16        19        43
         2        15        16        37        43
         2        16        18        43        44
         2        16        38        43        44
         2        16        37        38        43
         2        11        17        18        44
         2        11        16        18        44
         2        11        16        38        44
         2        11        17        39        44
         2        11        33        39        44
         2        11        33        38        44
         2        11        16        18        45
         2        11        17        18        45
         2        17        18        39        45
         2        16        18        45        46
         2        18        40        45        46
         2        18        39        40        45
         2        15        16        19        46
         2        16        18        19        46
         2        18        19        40        46
         2        15        19        46        47
         2        19        41        46        47
         2        19        40        41        46
         2        14        15        20        47
         2        15        19        20        47
         2        19        20        41        47
         2        14        20        47        48
         2        20        42        47        48
         2        20        41        42        47
         2        13        14        19        48
         2        14        19        20        48
         2        19        20        42        48
         2        13        19        48        49
         2        19        43        48        49
         2        19        42        43        48
         2        12        13        18        49
         2        13        18        19        49
         2        18        19        43        49
         2        12        18        49        50
         2        18        44        49        50
         2        18        43        44        49
         2        11        12        17        50
         2        12        17        18        50
         2        17        18        44        50
         2        11        17        45        50
         2        17        39        45        50
         2        17        39        44        50
         2         5        10        16        51
         2         5        11        16        51
         2        11        16        45        51
         2        10        16        51        52
         2        16        46        51        52
         2        16        45        46        51
         2         9        10        15        52
         2        10        15        16        52
         2        15        16        46        52
         2         9        15        52        53
         2        15        47        52        53
         2        15        46        47        52
         2         8         9        14        53
         2         9        14        15        53
         2        14        15        47        53
         2         8        14        53        54
         2        14        48        53        54
         2        14        47        48        53
         2         7         8        13        54
         2         8        13        14        54
         2        13        14        48        54
         2         7        13        54        55
         2        13        49        54        55
         2        13        48        49        54
         2         6         7        12        55
         2         7        12        13        55
         2        12        13        49        55
         2         6        12        55        56
         2        12        50        55        56
         2        12        49        50        55
         2         5         6        11        56
         2         6        11        12        56
         2        11        12        50        56
         2         5        11        51        56
         2        11        45        51        56
         2        11        45        50        56
         2         1         2        10        21
         2         1         5        10        21
         2         5        10        21        51
         2         2        10        21        22
         2        10        21        22        52
         2        10        21        51        52
         2         2         3         9        22
         2         2         9        10        22
         2         9        10        22        52
         2         3         9        22        23
         2         9        22        23        53
         2         9        22        52        53
         2         3         4         8        23
         2         3         8         9        23
         2         8         9        23        53
         2         4         8        23        24
         2         8        23        24        54
         2         8        23        53        54
         2         3         4         7        24
         2         4         7         8        24
         2         7         8        24        54
         2         3         7        24        25
         2         7        24        25        55
         2         7        24        54        55
         2         2         3         6        25
         2         3         6         7        25
         2         6         7        25        55
         2         2         6        25        26
         2         6        25        26        56
         2         6        25        55        56
         2         1         2         5        26
         2         2         5         6        26
         2         5         6        26        56
         2         1         5        21        26
         2         5        21        26        51
         2         5        26        51        56
         2        22        27        28        61
         2        21        22        27        61
         2        21        22        57        61
         2        22        28        61        62
         2        22        58        61        62
         2        22        57        58        61
         2        23        28        29        62
         2        22        23        28        62
         2        22        23        58        62
         2        23        29        62        63
         2        23        59        62        63
         2        23        58        59        62
         2        24        29        30        63
         2        23        24        29        63
         2        23        24        59        63
         2        24        30        63        64
         2        24        60        63        64
         2        24        59        60        63
         2        25        30        31        64
         2        24        25        30        64
         2        24        25        60        64
         2        25        31        64        65
         2        25        59        64        65
         2        25        59        60        64
         2        26        31        32        65
         2        25        26        31        65
         2        25        26        59        65
         2        26        32        65        66
         2        26        58        65        66
         2        26        58        59        65
         2        21        27        32        66
         2        21        26        32        66
         2        21        26        58        66
         2        21        27        61        66
         2        21        57        61        66
         2        21        57        58        66
         2        28        33        34        67
         2        27        28        33        67
         2        27        28        61        67
         2        28        34        67        68
         2        28        62        67        68
         2        28        61        62        67
         2        29        34        35        68
         2        28        29        34        68
         2        28        29        62        68
         2        29        35        68        69
         2        29        63        68        69
         2        29        62        63        68
         2        30        35        36        69
         2        29        30        35        69
         2        29        30        63        69
         2        30        36        69        70
         2        30        64        69        70
         2        30        63        64        69
         2        31        36        37        70
         2        30        31        36        70
         2        30        31        64        70
         2        31        37        70        71
         2        31        65        70        71
         2        31        64        65        70
         2        32        37        38        71
         2        31        32        37        71
         2        31        32        65        71
         2        32        38        71        72
         2        32        66        71        72
         2        32        65        66        71
         2        27        33        38        72
         2        27        32        38        72
         2        27        32        66        72
         2        27        33        67        72
         2        27        61        67        72
         2        27        61        66        72
         2        34        39        40        73
         2        33        34        39        73
         2        33        34        67        73
         2        34        40        73        74
         2        34        68        73        74
         2        34        67        68        73
         2        35        40        41        74
         2        34        35        40        74
         2        34        35        68        74
         2        35        41        74        75
         2        35        69        74        75
         2        35        68        69        74
         2        36        41        42        75
         2        35        36        41        75
         2        35        36        69        75
         2        36        42        75        76
         2        36        70        75        76
         2        36        69        70        75
         2        37        42        43        76
         2        36        37        42        76
         2        36        37        70        76
         2        37        43        75        76
         2        37        71        75        76
         2        37        70        71        76
         2        38        43        44        75
         2        37        38        43        75
         2        37        38        71        75
         2        38        44        74        75
         2        38        72        74        75
         2        38        71        72        75
         2        33        39        44        74
         2        33        38        44        74
         2        33        38        72        74
         2        33        39        73        74
         2        33        67        73        74
         2        33        67        72        74
         2        40        45        46        67
         2        39        40        45        67
         2        39        40        67        73
         2        40        46        67        72
         2        40        67        72        74
         2        40        67        73        74
         2        41        46        47        72
         2        40        41        46        72
         2        40        41        72        74
         2        41        47        71        72
         2        41        71        72        75
         2        41        72        74        75
         2        42        47        48        71
         2        41        42        47        71
         2        41        42        71        75
         2        42        48        70        71
         2        42        70        71        76
         2        42        71        75        76
         2        43        48        49        70
         2        42        43        48        70
         2        42        43        70        76
         2        43        49        69        70
         2        43        69        70        75
         2        43        70        75        76
         2        44        49        50        69
         2        43        44        49        69
         2        43        44        69        75
         2        44        50        68        69
         2        44        68        69        74
         2        44        69        74        75
         2        39        45        50        68
         2        39        44        50        68
         2        39        44        68        74
         2        39        45        67        68
         2        39        67        68        73
         2        39        68        73        74
         2        46        51        52        61
         2        45        46        51        61
         2        45        46        61        67
         2        46        52        61        66
         2        46        61        66        72
         2        46        61        67        72
         2        47        52        53        66
         2        46        47        52        66
         2        46        47        66        72
         2        47        53        65        66
         2        47        65        66        71
         2        47        66        71        72
         2        48        53        54        65
         2        47        48        53        65
         2        47        48        65        71
         2        48        54        64        65
         2        48        64        65        70
         2        48        65        70        71
         2        49        54        55        64
         2        48        49        54        64
         2        48        49        64        70
         2        49        55        63        64
         2        49        63        64        69
         2        49        64        69        70
         2        50        55        56        63
         2        49        50        55        63
         2        49        50        63        69
         2        50        56        62        63
         2        50        62        63        68
         2        50        63        68        69
         2        45        51        56        62
         2        45        50        56        62
         2        45        50        62        68
         2        45        51        61        62
         2        45        61        62        67
         2        45        62        67        68
         2        21        22        52        57
         2        21        51        52        57
         2        51        52        57        61
         2        22        52        57        58
         2        52        57        58        66
         2        52        57        61        66
         2        22        23        53        58
         2        22        52        53        58
         2        52        53        58        66
         2        23        53        58        59
         2        53        58        59        65
         2        53        58        65        66
         2        23        24        54        59
         2        23        53        54        59
         2        53        54        59        65
         2        24        54        59        60
         2        54        59        60        64
         2        54        59        64        65
         2        24        25        55        60
         2        24        54        55        60
         2        54        55        60        64
         2        25        55        59        60
         2        55        59        60        63
         2        55        60        63        64
         2        25        26        56        59
         2        25        55        56        59
         2        55        56        59        63
         2        26        56        58        59
         2        56        58        59        62
         2        56        59        62        63
         2        21        26        51        58
         2        26        51        56        58
         2        51        56        58        62
         2        21        51        57        58
         2        51        57        58        61
         2        51        58        61        62
