 vasp.5.3.5 31Mar14 (build Nov 02 2014 15:17:37) complex                        
  
 executed on        ion-Intel-MKL date 2016.10.18  09:12:16
 running on    6 total cores
 distrk:  each k-point on    6 cores,    1 groups
 distr:  one band on NCORES_PER_BAND=   1 cores,    6 groups


--------------------------------------------------------------------------------------------------------


 INCAR:
 POTCAR:   PAW_PBE C 08Apr2002                    

 ----------------------------------------------------------------------------- 
|                                                                             |
|           W    W    AA    RRRRR   N    N  II  N    N   GGGG   !!!           |
|           W    W   A  A   R    R  NN   N  II  NN   N  G    G  !!!           |
|           W    W  A    A  R    R  N N  N  II  N N  N  G       !!!           |
|           W WW W  AAAAAA  RRRRR   N  N N  II  N  N N  G  GGG   !            |
|           WW  WW  A    A  R   R   N   NN  II  N   NN  G    G                |
|           W    W  A    A  R    R  N    N  II  N    N   GGGG   !!!           |
|                                                                             |
|      For optimal performance we recommend to set                            |
|        NCORE= 4 - approx SQRT( number of cores)                             |
|      NCORE specifies how many cores store one orbital (NPAR=cpu/NCORE).     |
|      This setting can  greatly improve the performance of VASP for DFT.     |
|      The default, NPAR=number of cores might be grossly inefficient         |
|      on modern multi-core architectures or massively parallel machines.     |
|      Do your own testing !!!!                                               |
|      Unfortunately you need to use the default for GW and RPA calculations. |
|      (for HF NCORE is supported but not extensively tested yet)             |
|                                                                             |
 ----------------------------------------------------------------------------- 

 POTCAR:   PAW_PBE C 08Apr2002                    
   VRHFIN =C: s2p2                                                              
   LEXCH  = PE                                                                  
   EATOM  =   147.1560 eV,   10.8157 Ry                                         
                                                                                
   TITEL  = PAW_PBE C 08Apr2002                                                 
   LULTRA =        F    use ultrasoft PP ?                                      
   IUNSCR =        0    unscreen: 0-lin 1-nonlin 2-no                           
   RPACOR =     .000    partial core radius                                     
   POMASS =   12.011; ZVAL   =    4.000    mass and valenz                      
   RCORE  =    1.500    outmost cutoff radius                                   
   RWIGS  =    1.630; RWIGS  =     .863    wigner-seitz radius (au A)           
   ENMAX  =  400.000; ENMIN  =  300.000 eV                                      
   ICORE  =        2    local potential                                         
   LCOR   =        T    correct aug charges                                     
   LPAW   =        T    paw PP                                                  
   EAUG   =  644.873                                                            
   DEXC   =     .000                                                            
   RMAX   =    2.266    core radius for proj-oper                               
   RAUG   =    1.300    factor for augmentation sphere                          
   RDEP   =    1.501    radius for radial grids                                 
   RDEPT  =    1.300    core radius for aug-charge                              
   QCUT   =   -5.516; QGAM   =   11.032    optimization parameters              
                                                                                
   Description                                                                  
     l     E      TYP  RCUT    TYP  RCUT                                        
     0   .000     23  1.200                                                     
     0   .000     23  1.200                                                     
     1   .000     23  1.500                                                     
     1  2.500     23  1.500                                                     
     2   .000      7  1.500                                                     
  local pseudopotential read in
  atomic valenz-charges read in
  non local Contribution for L=           0  read in
    real space projection operators read in
  non local Contribution for L=           0  read in
    real space projection operators read in
  non local Contribution for L=           1  read in
    real space projection operators read in
  non local Contribution for L=           1  read in
    real space projection operators read in
    PAW grid and wavefunctions read in
 
   number of l-projection  operators is LMAX  =           4
   number of lm-projection operators is LMMAX =           8
 

 ----------------------------------------------------------------------------- 
|                                                                             |
|  ADVICE TO THIS USER RUNNING 'VASP/VAMP'   (HEAR YOUR MASTER'S VOICE ...):  |
|                                                                             |
|      You have a (more or less) 'large supercell' and for larger cells       |
|      it might be more efficient to use real space projection operators      |
|      So try LREAL= Auto  in the INCAR   file.                               |
|      Mind: If you want to do a very accurate calculations keep the          |
|      reciprocal projection scheme          (i.e. LREAL=.FALSE.)             |
|                                                                             |
 ----------------------------------------------------------------------------- 

 PAW_PBE C 08Apr2002                    :
 energy of atom  1       EATOM= -147.1560
 kinetic energy error for atom=    0.0016 (will be added to EATOM!!)
 
 
 POSCAR: C                                       
  positions in direct lattice
  No initial velocities read in
 exchange correlation table for  LEXCH =        8
   RHO(1)=    0.500       N(1)  =     2000
   RHO(2)=  100.500       N(2)  =     4000
 


--------------------------------------------------------------------------------------------------------


 ion  position               nearest neighbor table
   1  0.500  0.000  0.125-  18 1.42  19 1.42  20 1.42
   2  1.000  0.000  0.125-  20 1.42  17 1.42  19 1.42
   3  0.500  0.500  0.125-  17 1.42  20 1.42  18 1.42
   4  1.000  0.500  0.125-  19 1.42  18 1.42  17 1.43
   5  0.500  0.000  0.625-  22 1.42  23 1.42  24 1.42
   6  1.000  0.000  0.625-  21 1.42  24 1.42  23 1.42
   7  0.500  0.500  0.625-  24 1.42  21 1.42  22 1.42
   8  1.000  0.500  0.625-  23 1.42  22 1.42  21 1.42
   9  0.000  0.500  0.375-  27 1.42  26 1.42  28 1.42
  10  0.500  0.500  0.375-  28 1.42  25 1.42  27 1.42
  11  0.000  1.000  0.375-  25 1.42  28 1.42  26 1.42
  12  0.500  1.000  0.375-  26 1.42  27 1.42  25 1.42
  13  0.000  0.500  0.875-  31 1.42  30 1.42  32 1.42
  14  0.500  0.500  0.875-  32 1.42  29 1.42  31 1.42
  15  0.000  1.000  0.875-  29 1.42  32 1.42  30 1.42
  16  0.500  1.000  0.875-  30 1.42  31 1.42  29 1.42
  17  0.167  0.334  0.126-   3 1.42   2 1.42   4 1.43
  18  0.666  0.334  0.125-   1 1.42   4 1.42   3 1.42
  19  0.166  0.834  0.125-   4 1.42   1 1.42   2 1.42
  20  0.666  0.834  0.125-   3 1.42   2 1.42   1 1.42
  21  0.166  0.334  0.625-   6 1.42   7 1.42   8 1.42
  22  0.666  0.334  0.625-   5 1.42   8 1.42   7 1.42
  23  0.166  0.834  0.625-   8 1.42   5 1.42   6 1.42
  24  0.666  0.834  0.625-   7 1.42   6 1.42   5 1.42
  25  0.334  0.166  0.375-  11 1.42  10 1.42  12 1.42
  26  0.834  0.166  0.375-  12 1.42   9 1.42  11 1.42
  27  0.334  0.666  0.375-   9 1.42  12 1.42  10 1.42
  28  0.834  0.666  0.375-  10 1.42  11 1.42   9 1.42
  29  0.334  0.166  0.875-  15 1.42  14 1.42  16 1.42
  30  0.834  0.166  0.875-  16 1.42  13 1.42  15 1.42
  31  0.334  0.666  0.875-  13 1.42  16 1.42  14 1.42
  32  0.834  0.666  0.875-  14 1.42  15 1.42  13 1.42
 
  LATTYP: Found a base centered orthorhombic cell.
 ALAT       =     4.9295501972
 B/A-ratio  =     1.7336081796
 C/A-ratio  =     2.6367986748
  
  Lattice vectors:
  
 A1 = (   4.9328744980,  -0.0019192860,   0.0000000000)
 A2 = (  -2.4680993993,   4.2710349859,   0.0000000000)
 A3 = (   0.0000000000,   0.0000000000,  12.9982314272)


Analysis of symmetry for initial positions (statically):
=====================================================================
 Subroutine PRICEL returns:
 Original cell was already a primitive cell.
 

 Routine SETGRP: Setting up the symmetry group for a 
 base centered orthorhombic supercell.


 Subroutine GETGRP returns: Found  1 space group operations
 (whereof  1 operations were pure point group operations)
 out of a pool of  8 trial point group operations.


The static configuration has the point symmetry C_1 .


Analysis of symmetry for dynamics (positions and initial velocities):
=====================================================================
 Subroutine PRICEL returns:
 Original cell was already a primitive cell.
 

 Routine SETGRP: Setting up the symmetry group for a 
 base centered orthorhombic supercell.


 Subroutine GETGRP returns: Found  1 space group operations
 (whereof  1 operations were pure point group operations)
 out of a pool of  8 trial point group operations.


The dynamic configuration has the point symmetry C_1 .
 
 
 KPOINTS: B4C B11C-CBC                            

Automatic generation of k-mesh.
Space group operators:
 irot       det(A)        alpha          n_x          n_y          n_z        tau_x        tau_y        tau_z
    1     1.000000     0.000000     1.000000     0.000000     0.000000     0.000000     0.000000     0.000000
 
 Subroutine IBZKPT returns following result:
 ===========================================
 
 Found     76 irreducible k-points:
 
 Following reciprocal coordinates:
            Coordinates               Weight
  0.000000  0.000000  0.000000      1.000000
  0.166667  0.000000  0.000000      2.000000
  0.333333  0.000000  0.000000      2.000000
  0.500000  0.000000  0.000000      1.000000
 -0.000000  0.166667  0.000000      2.000000
  0.166667  0.166667  0.000000      2.000000
  0.333333  0.166667  0.000000      2.000000
  0.500000  0.166667  0.000000      2.000000
 -0.333333  0.166667  0.000000      2.000000
 -0.166667  0.166667  0.000000      2.000000
  0.000000  0.333333  0.000000      2.000000
  0.166667  0.333333  0.000000      2.000000
  0.333333  0.333333  0.000000      2.000000
  0.500000  0.333333  0.000000      2.000000
 -0.333333  0.333333  0.000000      2.000000
 -0.166667  0.333333  0.000000      2.000000
 -0.000000  0.500000  0.000000      1.000000
  0.166667  0.500000  0.000000      2.000000
  0.333333  0.500000  0.000000      2.000000
  0.500000  0.500000  0.000000      1.000000
  0.000000  0.000000  0.250000      2.000000
  0.166667  0.000000  0.250000      2.000000
  0.333333  0.000000  0.250000      2.000000
  0.500000  0.000000  0.250000      2.000000
 -0.333333  0.000000  0.250000      2.000000
 -0.166667  0.000000  0.250000      2.000000
 -0.000000  0.166667  0.250000      2.000000
  0.166667  0.166667  0.250000      2.000000
  0.333333  0.166667  0.250000      2.000000
  0.500000  0.166667  0.250000      2.000000
 -0.333333  0.166667  0.250000      2.000000
 -0.166667  0.166667  0.250000      2.000000
  0.000000  0.333333  0.250000      2.000000
  0.166667  0.333333  0.250000      2.000000
  0.333333  0.333333  0.250000      2.000000
  0.500000  0.333333  0.250000      2.000000
 -0.333333  0.333333  0.250000      2.000000
 -0.166667  0.333333  0.250000      2.000000
 -0.000000  0.500000  0.250000      2.000000
  0.166667  0.500000  0.250000      2.000000
  0.333333  0.500000  0.250000      2.000000
  0.500000  0.500000  0.250000      2.000000
 -0.333333  0.500000  0.250000      2.000000
 -0.166667  0.500000  0.250000      2.000000
  0.000000 -0.333333  0.250000      2.000000
  0.166667 -0.333333  0.250000      2.000000
  0.333333 -0.333333  0.250000      2.000000
  0.500000 -0.333333  0.250000      2.000000
 -0.333333 -0.333333  0.250000      2.000000
 -0.166667 -0.333333  0.250000      2.000000
  0.000000 -0.166667  0.250000      2.000000
  0.166667 -0.166667  0.250000      2.000000
  0.333333 -0.166667  0.250000      2.000000
  0.500000 -0.166667  0.250000      2.000000
 -0.333333 -0.166667  0.250000      2.000000
 -0.166667 -0.166667  0.250000      2.000000
  0.000000  0.000000  0.500000      1.000000
  0.166667  0.000000  0.500000      2.000000
  0.333333  0.000000  0.500000      2.000000
  0.500000  0.000000  0.500000      1.000000
 -0.000000  0.166667  0.500000      2.000000
  0.166667  0.166667  0.500000      2.000000
  0.333333  0.166667  0.500000      2.000000
  0.500000  0.166667  0.500000      2.000000
 -0.333333  0.166667  0.500000      2.000000
 -0.166667  0.166667  0.500000      2.000000
  0.000000  0.333333  0.500000      2.000000
  0.166667  0.333333  0.500000      2.000000
  0.333333  0.333333  0.500000      2.000000
  0.500000  0.333333  0.500000      2.000000
 -0.333333  0.333333  0.500000      2.000000
 -0.166667  0.333333  0.500000      2.000000
 -0.000000  0.500000  0.500000      1.000000
  0.166667  0.500000  0.500000      2.000000
  0.333333  0.500000  0.500000      2.000000
  0.500000  0.500000  0.500000      1.000000
 
 Following cartesian coordinates:
            Coordinates               Weight
  0.000000  0.000000  0.000000      1.000000
  0.033795  0.019529  0.000000      2.000000
  0.067589  0.039058  0.000000      2.000000
  0.101384  0.058586  0.000000      1.000000
  0.000015  0.039031  0.000000      2.000000
  0.033810  0.058560  0.000000      2.000000
  0.067604  0.078089  0.000000      2.000000
  0.101399  0.097618  0.000000      2.000000
 -0.067574 -0.000026  0.000000      2.000000
 -0.033779  0.019503  0.000000      2.000000
  0.000030  0.078063  0.000000      2.000000
  0.033825  0.097591  0.000000      2.000000
  0.067619  0.117120  0.000000      2.000000
  0.101414  0.136649  0.000000      2.000000
 -0.067559  0.039005  0.000000      2.000000
 -0.033764  0.058534  0.000000      2.000000
  0.000046  0.117094  0.000000      1.000000
  0.033840  0.136623  0.000000      2.000000
  0.067635  0.156152  0.000000      2.000000
  0.101429  0.175680  0.000000      1.000000
  0.000000  0.000000  0.019233      2.000000
  0.033795  0.019529  0.019233      2.000000
  0.067589  0.039058  0.019233      2.000000
  0.101384  0.058586  0.019233      2.000000
 -0.067589 -0.039058  0.019233      2.000000
 -0.033795 -0.019529  0.019233      2.000000
  0.000015  0.039031  0.019233      2.000000
  0.033810  0.058560  0.019233      2.000000
  0.067604  0.078089  0.019233      2.000000
  0.101399  0.097618  0.019233      2.000000
 -0.067574 -0.000026  0.019233      2.000000
 -0.033779  0.019503  0.019233      2.000000
  0.000030  0.078063  0.019233      2.000000
  0.033825  0.097591  0.019233      2.000000
  0.067619  0.117120  0.019233      2.000000
  0.101414  0.136649  0.019233      2.000000
 -0.067559  0.039005  0.019233      2.000000
 -0.033764  0.058534  0.019233      2.000000
  0.000046  0.117094  0.019233      2.000000
  0.033840  0.136623  0.019233      2.000000
  0.067635  0.156152  0.019233      2.000000
  0.101429  0.175680  0.019233      2.000000
 -0.067543  0.078036  0.019233      2.000000
 -0.033749  0.097565  0.019233      2.000000
 -0.000030 -0.078063  0.019233      2.000000
  0.033764 -0.058534  0.019233      2.000000
  0.067559 -0.039005  0.019233      2.000000
  0.101353 -0.019476  0.019233      2.000000
 -0.067619 -0.117120  0.019233      2.000000
 -0.033825 -0.097591  0.019233      2.000000
 -0.000015 -0.039031  0.019233      2.000000
  0.033779 -0.019503  0.019233      2.000000
  0.067574  0.000026  0.019233      2.000000
  0.101368  0.019555  0.019233      2.000000
 -0.067604 -0.078089  0.019233      2.000000
 -0.033810 -0.058560  0.019233      2.000000
  0.000000  0.000000  0.038467      1.000000
  0.033795  0.019529  0.038467      2.000000
  0.067589  0.039058  0.038467      2.000000
  0.101384  0.058586  0.038467      1.000000
  0.000015  0.039031  0.038467      2.000000
  0.033810  0.058560  0.038467      2.000000
  0.067604  0.078089  0.038467      2.000000
  0.101399  0.097618  0.038467      2.000000
 -0.067574 -0.000026  0.038467      2.000000
 -0.033779  0.019503  0.038467      2.000000
  0.000030  0.078063  0.038467      2.000000
  0.033825  0.097591  0.038467      2.000000
  0.067619  0.117120  0.038467      2.000000
  0.101414  0.136649  0.038467      2.000000
 -0.067559  0.039005  0.038467      2.000000
 -0.033764  0.058534  0.038467      2.000000
  0.000046  0.117094  0.038467      1.000000
  0.033840  0.136623  0.038467      2.000000
  0.067635  0.156152  0.038467      2.000000
  0.101429  0.175680  0.038467      1.000000
 
 TETIRR: Found    432 inequivalent tetrahedra from      864


--------------------------------------------------------------------------------------------------------




 Dimension of arrays:
   k-points           NKPTS =     76   k-points in BZ     NKDIM =     76   number of bands    NBANDS=     84
   number of dos      NEDOS =    301   number of ions     NIONS =     32
   non local maximal  LDIM  =      4   non local SUM 2l+1 LMDIM =      8
   total plane-waves  NPLWV = 276480
   max r-space proj   IRMAX =      1   max aug-charges    IRDMAX=  12115
   dimension x,y,z NGX =    48 NGY =   48 NGZ =  120
   dimension x,y,z NGXF=    96 NGYF=   96 NGZF=  240
   support grid    NGXF=    96 NGYF=   96 NGZF=  240
   ions per type =              32
 NGX,Y,Z   is equivalent  to a cutoff of  16.18, 16.18, 15.35 a.u.
 NGXF,Y,Z  is equivalent  to a cutoff of  32.35, 32.35, 30.70 a.u.


 I would recommend the setting:
   dimension x,y,z NGX =    46 NGY =   46 NGZ =  120
 SYSTEM =  graphite                                
 POSCAR =  C                                       

 Startparameter for this run:
   NWRITE =      2    write-flag & timer
   PREC   = accura    normal or accurate (medium, high low for compatibility)
   ISTART =      0    job   : 0-new  1-cont  2-samecut
   ICHARG =      2    charge: 1-file 2-atom 10-const
   ISPIN  =      1    spin polarized calculation?
   LNONCOLLINEAR =      F non collinear calculations
   LSORBIT =      F    spin-orbit coupling
   INIWAV =      1    electr: 0-lowe 1-rand  2-diag
   LASPH  =      F    aspherical Exc in radial PAW
   METAGGA=      F    non-selfconsistent MetaGGA calc.

 Electronic Relaxation 1
   ENCUT  =  800.0 eV  58.80 Ry    7.67 a.u.  11.38 11.38 29.98*2*pi/ulx,y,z
   ENINI  =  800.0     initial cutoff
   ENAUG  =  644.9 eV  augmentation charge cutoff
   NELM   =    200;   NELMIN=  2; NELMDL=  0     # of ELM steps 
   EDIFF  = 0.1E-07   stopping-criterion for ELM
   LREAL  =      F    real-space projection
   NLSPLINE    = F    spline interpolate recip. space projectors
   LCOMPAT=      F    compatible to vasp.4.4
   GGA_COMPAT  = T    GGA compatible to vasp.4.4-vasp.4.6
   LMAXPAW     = -100 max onsite density
   LMAXMIX     =    2 max onsite mixed and CHGCAR
   VOSKOWN=      0    Vosko Wilk Nusair interpolation
   ROPT   =    0.00000
 Ionic relaxation
   EDIFFG = 0.1E-02   stopping-criterion for IOM
   NSW    =      0    number of steps for IOM
   NBLOCK =      1;   KBLOCK =      1    inner block; outer block 
   IBRION =     -1    ionic relax: 0-MD 1-quasi-New 2-CG
   NFREE  =      0    steps in history (QN), initial steepest desc. (CG)
   ISIF   =      2    stress and relaxation
   IWAVPR =     10    prediction:  0-non 1-charg 2-wave 3-comb
   ISYM   =      2    0-nonsym 1-usesym 2-fastsym
   LCORR  =      T    Harris-Foulkes like correction to forces

   POTIM  = 0.5000    time-step for ionic-motion
   TEIN   =    0.0    initial temperature
   TEBEG  =    0.0;   TEEND  =   0.0 temperature during run
   SMASS  =  -3.00    Nose mass-parameter (am)
   estimated Nose-frequenzy (Omega)   =  0.10E-29 period in steps =****** mass=  -0.556E-27a.u.
   SCALEE = 1.0000    scale energy and forces
   NPACO  =    256;   APACO  = 16.0  distance and # of slots for P.C.
   PSTRESS=    0.0 pullay stress

  Mass of Ions in am
   POMASS =  12.01
  Ionic Valenz
   ZVAL   =   4.00
  Atomic Wigner-Seitz radii
   RWIGS  =  -1.00
  virtual crystal weights 
   VCA    =   1.00
   NELECT =     128.0000    total number of electrons
   NUPDOWN=      -1.0000    fix difference up-down

 DOS related values:
   EMIN   =  10.00;   EMAX   =-10.00  energy-range for DOS
   EFERMI =   0.00
   ISMEAR =    -5;   SIGMA  =   0.20  broadening in eV -4-tet -1-fermi 0-gaus

 Electronic relaxation 2 (details)
   IALGO  =     38    algorithm
   LDIAG  =      T    sub-space diagonalisation (order eigenvalues)
   LSUBROT=      F    optimize rotation matrix (better conditioning)
   TURBO    =      0    0=normal 1=particle mesh
   IRESTART =      0    0=no restart 2=restart with 2 vectors
   NREBOOT  =      0    no. of reboots
   NMIN     =      0    reboot dimension
   EREF     =   0.00    reference energy to select bands
   IMIX   =      4    mixing-type and parameters
     AMIX     =   0.40;   BMIX     =  1.00
     AMIX_MAG =   1.60;   BMIX_MAG =  1.00
     AMIN     =   0.10
     WC   =   100.;   INIMIX=   1;  MIXPRE=   1;  MAXMIX= -45

 Intra band minimization:
   WEIMIN = 0.0000     energy-eigenvalue tresh-hold
   EBREAK =  0.30E-10  absolut break condition
   DEPER  =   0.30     relativ break condition  

   TIME   =   0.40     timestep for ELM

  volume/ion in A,a.u.               =       8.56        57.74
  Fermi-wavevector in a.u.,A,eV,Ry     =   1.270588  2.401064 21.965176  1.614395
  Thomas-Fermi vector in A             =   2.403568
 
 Write flags
   LWAVE  =      F    write WAVECAR
   LCHARG =      F    write CHGCAR
   LVTOT  =      F    write LOCPOT, total local potential
   LVHAR  =      F    write LOCPOT, Hartree potential only
   LELF   =      F    write electronic localiz. function (ELF)
   LORBIT =      0    0 simple, 1 ext, 2 COOP (PROOUT)


 Dipole corrections
   LMONO  =      F    monopole corrections only (constant potential shift)
   LDIPOL =      F    correct potential (dipole corrections)
   IDIPOL =      0    1-x, 2-y, 3-z, 4-all directions 
   EPSILON=  1.0000000 bulk dielectric constant

 Exchange correlation treatment:
   GGA     =    PE    GGA type
   LEXCH   =     8    internal setting for exchange type
   VOSKOWN=      0    Vosko Wilk Nusair interpolation
   LHFCALC =     F    Hartree Fock is set to
   LHFONE  =     F    Hartree Fock one center treatment
   AEXX    =    0.0000 exact exchange contribution

 Linear response parameters
   LEPSILON=     F    determine dielectric tensor
   LRPA    =     F    only Hartree local field effects (RPA)
   LNABLA  =     F    use nabla operator in PAW spheres
   LVEL    =     F    velocity operator in full k-point grid
   LINTERFAST=   F  fast interpolation
   KINTER  =     0    interpolate to denser k-point grid
   CSHIFT  =0.1000    complex shift for real part using Kramers Kronig
   OMEGAMAX=  -1.0    maximum frequency
   DEG_THRESHOLD= 0.2000000E-02 threshold for treating states as degnerate
   RTIME   =    0.100 relaxation time in fs

 Orbital magnetization related:
   ORBITALMAG=     F  switch on orbital magnetization
   LCHIMAG   =     F  perturbation theory with respect to B field
   DQ        =  0.001000  dq finite difference perturbation B field



--------------------------------------------------------------------------------------------------------


 Static calculation
 charge density and potential will be updated during run
 non-spin polarized calculation
 Variant of blocked Davidson
 Davidson routine will perform the subspace rotation
 perform sub-space diagonalisation
    after iterative eigenvector-optimisation
 modified Broyden-mixing scheme, WC =      100.0
 initial mixing is a Kerker type mixing with AMIX =  0.4000 and BMIX =      1.0000
 Hartree-type preconditioning will be used
 using additional bands           20
 reciprocal scheme for non local part
 calculate Harris-corrections to forces 
   (improved forces if not selfconsistent)
 use gradient corrections 
 use of overlap-Matrix (Vanderbilt PP)
 Fermi weights with tetrahedron method with Bloechl corrections


--------------------------------------------------------------------------------------------------------


  energy-cutoff  :      800.00
  volume of cell :      273.79
      direct lattice vectors                 reciprocal lattice vectors
     4.932874498 -0.001919286  0.000000000     0.202767147  0.117172881  0.000000000
    -2.468099399  4.271034986  0.000000000     0.000091118  0.234187941  0.000000000
     0.000000000  0.000000000 12.998231427     0.000000000  0.000000000  0.076933543

  length of vectors
     4.932874871  4.932874871 12.998231427     0.234187958  0.234187958  0.076933543


 
 k-points in units of 2pi/SCALE and weight: B4C B11C-CBC                            
   0.00000000  0.00000000  0.00000000       0.007
   0.03379452  0.01952881  0.00000000       0.014
   0.06758905  0.03905763  0.00000000       0.014
   0.10138357  0.05858644  0.00000000       0.007
   0.00001519  0.03903132  0.00000000       0.014
   0.03380971  0.05856014  0.00000000       0.014
   0.06760424  0.07808895  0.00000000       0.014
   0.10139876  0.09761776  0.00000000       0.014
  -0.06757386 -0.00002630  0.00000000       0.014
  -0.03377934  0.01950251  0.00000000       0.014
   0.00003037  0.07806265  0.00000000       0.014
   0.03382490  0.09759146  0.00000000       0.014
   0.06761942  0.11712027  0.00000000       0.014
   0.10141395  0.13664909  0.00000000       0.014
  -0.06755868  0.03900502  0.00000000       0.014
  -0.03376415  0.05853383  0.00000000       0.014
   0.00004556  0.11709397  0.00000000       0.007
   0.03384008  0.13662278  0.00000000       0.014
   0.06763461  0.15615160  0.00000000       0.014
   0.10142913  0.17568041  0.00000000       0.007
   0.00000000  0.00000000  0.01923339       0.014
   0.03379452  0.01952881  0.01923339       0.014
   0.06758905  0.03905763  0.01923339       0.014
   0.10138357  0.05858644  0.01923339       0.014
  -0.06758905 -0.03905763  0.01923339       0.014
  -0.03379452 -0.01952881  0.01923339       0.014
   0.00001519  0.03903132  0.01923339       0.014
   0.03380971  0.05856014  0.01923339       0.014
   0.06760424  0.07808895  0.01923339       0.014
   0.10139876  0.09761776  0.01923339       0.014
  -0.06757386 -0.00002630  0.01923339       0.014
  -0.03377934  0.01950251  0.01923339       0.014
   0.00003037  0.07806265  0.01923339       0.014
   0.03382490  0.09759146  0.01923339       0.014
   0.06761942  0.11712027  0.01923339       0.014
   0.10141395  0.13664909  0.01923339       0.014
  -0.06755868  0.03900502  0.01923339       0.014
  -0.03376415  0.05853383  0.01923339       0.014
   0.00004556  0.11709397  0.01923339       0.014
   0.03384008  0.13662278  0.01923339       0.014
   0.06763461  0.15615160  0.01923339       0.014
   0.10142913  0.17568041  0.01923339       0.014
  -0.06754349  0.07803634  0.01923339       0.014
  -0.03374897  0.09756516  0.01923339       0.014
  -0.00003037 -0.07806265  0.01923339       0.014
   0.03376415 -0.05853383  0.01923339       0.014
   0.06755868 -0.03900502  0.01923339       0.014
   0.10135320 -0.01947621  0.01923339       0.014
  -0.06761942 -0.11712027  0.01923339       0.014
  -0.03382490 -0.09759146  0.01923339       0.014
  -0.00001519 -0.03903132  0.01923339       0.014
   0.03377934 -0.01950251  0.01923339       0.014
   0.06757386  0.00002630  0.01923339       0.014
   0.10136839  0.01955512  0.01923339       0.014
  -0.06760424 -0.07808895  0.01923339       0.014
  -0.03380971 -0.05856014  0.01923339       0.014
   0.00000000  0.00000000  0.03846677       0.007
   0.03379452  0.01952881  0.03846677       0.014
   0.06758905  0.03905763  0.03846677       0.014
   0.10138357  0.05858644  0.03846677       0.007
   0.00001519  0.03903132  0.03846677       0.014
   0.03380971  0.05856014  0.03846677       0.014
   0.06760424  0.07808895  0.03846677       0.014
   0.10139876  0.09761776  0.03846677       0.014
  -0.06757386 -0.00002630  0.03846677       0.014
  -0.03377934  0.01950251  0.03846677       0.014
   0.00003037  0.07806265  0.03846677       0.014
   0.03382490  0.09759146  0.03846677       0.014
   0.06761942  0.11712027  0.03846677       0.014
   0.10141395  0.13664909  0.03846677       0.014
  -0.06755868  0.03900502  0.03846677       0.014
  -0.03376415  0.05853383  0.03846677       0.014
   0.00004556  0.11709397  0.03846677       0.007
   0.03384008  0.13662278  0.03846677       0.014
   0.06763461  0.15615160  0.03846677       0.014
   0.10142913  0.17568041  0.03846677       0.007
 
 k-points in reciprocal lattice and weights: B4C B11C-CBC                            
   0.00000000  0.00000000  0.00000000       0.007
   0.16666667  0.00000000  0.00000000       0.014
   0.33333333  0.00000000  0.00000000       0.014
   0.50000000  0.00000000  0.00000000       0.007
  -0.00000000  0.16666667  0.00000000       0.014
   0.16666667  0.16666667  0.00000000       0.014
   0.33333333  0.16666667  0.00000000       0.014
   0.50000000  0.16666667  0.00000000       0.014
  -0.33333333  0.16666667  0.00000000       0.014
  -0.16666667  0.16666667  0.00000000       0.014
   0.00000000  0.33333333  0.00000000       0.014
   0.16666667  0.33333333  0.00000000       0.014
   0.33333333  0.33333333  0.00000000       0.014
   0.50000000  0.33333333  0.00000000       0.014
  -0.33333333  0.33333333  0.00000000       0.014
  -0.16666667  0.33333333  0.00000000       0.014
  -0.00000000  0.50000000  0.00000000       0.007
   0.16666667  0.50000000  0.00000000       0.014
   0.33333333  0.50000000  0.00000000       0.014
   0.50000000  0.50000000  0.00000000       0.007
   0.00000000  0.00000000  0.25000000       0.014
   0.16666667  0.00000000  0.25000000       0.014
   0.33333333  0.00000000  0.25000000       0.014
   0.50000000  0.00000000  0.25000000       0.014
  -0.33333333  0.00000000  0.25000000       0.014
  -0.16666667  0.00000000  0.25000000       0.014
  -0.00000000  0.16666667  0.25000000       0.014
   0.16666667  0.16666667  0.25000000       0.014
   0.33333333  0.16666667  0.25000000       0.014
   0.50000000  0.16666667  0.25000000       0.014
  -0.33333333  0.16666667  0.25000000       0.014
  -0.16666667  0.16666667  0.25000000       0.014
   0.00000000  0.33333333  0.25000000       0.014
   0.16666667  0.33333333  0.25000000       0.014
   0.33333333  0.33333333  0.25000000       0.014
   0.50000000  0.33333333  0.25000000       0.014
  -0.33333333  0.33333333  0.25000000       0.014
  -0.16666667  0.33333333  0.25000000       0.014
  -0.00000000  0.50000000  0.25000000       0.014
   0.16666667  0.50000000  0.25000000       0.014
   0.33333333  0.50000000  0.25000000       0.014
   0.50000000  0.50000000  0.25000000       0.014
  -0.33333333  0.50000000  0.25000000       0.014
  -0.16666667  0.50000000  0.25000000       0.014
   0.00000000 -0.33333333  0.25000000       0.014
   0.16666667 -0.33333333  0.25000000       0.014
   0.33333333 -0.33333333  0.25000000       0.014
   0.50000000 -0.33333333  0.25000000       0.014
  -0.33333333 -0.33333333  0.25000000       0.014
  -0.16666667 -0.33333333  0.25000000       0.014
   0.00000000 -0.16666667  0.25000000       0.014
   0.16666667 -0.16666667  0.25000000       0.014
   0.33333333 -0.16666667  0.25000000       0.014
   0.50000000 -0.16666667  0.25000000       0.014
  -0.33333333 -0.16666667  0.25000000       0.014
  -0.16666667 -0.16666667  0.25000000       0.014
   0.00000000  0.00000000  0.50000000       0.007
   0.16666667  0.00000000  0.50000000       0.014
   0.33333333  0.00000000  0.50000000       0.014
   0.50000000  0.00000000  0.50000000       0.007
  -0.00000000  0.16666667  0.50000000       0.014
   0.16666667  0.16666667  0.50000000       0.014
   0.33333333  0.16666667  0.50000000       0.014
   0.50000000  0.16666667  0.50000000       0.014
  -0.33333333  0.16666667  0.50000000       0.014
  -0.16666667  0.16666667  0.50000000       0.014
   0.00000000  0.33333333  0.50000000       0.014
   0.16666667  0.33333333  0.50000000       0.014
   0.33333333  0.33333333  0.50000000       0.014
   0.50000000  0.33333333  0.50000000       0.014
  -0.33333333  0.33333333  0.50000000       0.014
  -0.16666667  0.33333333  0.50000000       0.014
  -0.00000000  0.50000000  0.50000000       0.007
   0.16666667  0.50000000  0.50000000       0.014
   0.33333333  0.50000000  0.50000000       0.014
   0.50000000  0.50000000  0.50000000       0.007
 
 position of ions in fractional coordinates (direct lattice) 
   0.49967330  0.00032672  0.12500000
   0.99967330  0.00032672  0.12500000
   0.49967330  0.50032672  0.12500000
   0.99967330  0.50032672  0.12500000
   0.49967330  0.00032672  0.62500000
   0.99967330  0.00032672  0.62500000
   0.49967330  0.50032672  0.62500000
   0.99967330  0.50032672  0.62500000
   0.00032672  0.49967330  0.37500000
   0.50032672  0.49967330  0.37500000
   0.00032672  0.99967330  0.37500000
   0.50032672  0.99967330  0.37500000
   0.00032672  0.49967330  0.87500000
   0.50032672  0.49967330  0.87500000
   0.00032672  0.99967330  0.87500000
   0.50032672  0.99967330  0.87500000
   0.16701174  0.33370753  0.12571928
   0.66629246  0.33370753  0.12500000
   0.16629246  0.83370753  0.12500000
   0.66629246  0.83370753  0.12500000
   0.16629246  0.33370753  0.62500000
   0.66629246  0.33370753  0.62500000
   0.16629246  0.83370753  0.62500000
   0.66629246  0.83370753  0.62500000
   0.33370753  0.16629246  0.37500000
   0.83370753  0.16629246  0.37500000
   0.33370753  0.66629246  0.37500000
   0.83370753  0.66629246  0.37500000
   0.33370753  0.16629246  0.87500000
   0.83370753  0.16629246  0.87500000
   0.33370753  0.66629246  0.87500000
   0.83370753  0.66629246  0.87500000
 
 position of ions in cartesian coordinates  (Angst):
   2.46401933  0.00043641  1.62477893
   4.93045658 -0.00052323  1.62477893
   1.22996963  2.13595390  1.62477893
   3.69640688  2.13499426  1.62477893
   2.46401933  0.00043641  8.12389464
   4.93045658 -0.00052323  8.12389464
   1.22996963  2.13595390  8.12389464
   3.69640688  2.13499426  8.12389464
  -1.23163172  2.13412154  4.87433679
   1.23480553  2.13316189  4.87433679
  -2.46568142  4.26963903  4.87433679
   0.00075583  4.26867939  4.87433679
  -1.23163172  2.13412154 11.37345250
   1.23480553  2.13316189 11.37345250
  -2.46568142  4.26963903 11.37345250
   0.00075583  4.26867939 11.37345250
   0.00022462  1.42495599  1.63412830
   2.46311374  1.42399773  1.62477893
  -1.23737320  3.56047486  1.62477893
   1.22906405  3.55951522  1.62477893
  -0.00332350  1.42495737  8.12389464
   2.46311374  1.42399773  8.12389464
  -1.23737320  3.56047486  8.12389464
   1.22906405  3.55951522  8.12389464
   1.23571103  0.70960044  4.87433679
   3.70214828  0.70864080  4.87433679
   0.00166133  2.84511794  4.87433679
   2.46809858  2.84415829  4.87433679
   1.23571103  0.70960044 11.37345250
   3.70214828  0.70864080 11.37345250
   0.00166133  2.84511794 11.37345250
   2.46809858  2.84415829 11.37345250
 


--------------------------------------------------------------------------------------------------------


 k-point  1 :   0.0000 0.0000 0.0000  plane waves:   14055
 k-point  2 :   0.1667 0.0000 0.0000  plane waves:   14086
 k-point  3 :   0.3333 0.0000 0.0000  plane waves:   14060
 k-point  4 :   0.5000 0.0000 0.0000  plane waves:   14092
 k-point  5 :  -0.0000 0.1667 0.0000  plane waves:   14086
 k-point  6 :   0.1667 0.1667 0.0000  plane waves:   14087
 k-point  7 :   0.3333 0.1667 0.0000  plane waves:   14041
 k-point  8 :   0.5000 0.1667 0.0000  plane waves:   14043
 k-point  9 :  -0.3333 0.1667 0.0000  plane waves:   14089
 k-point 10 :  -0.1667 0.1667 0.0000  plane waves:   14090
 k-point 11 :   0.0000 0.3333 0.0000  plane waves:   14060
 k-point 12 :   0.1667 0.3333 0.0000  plane waves:   14041
 k-point 13 :   0.3333 0.3333 0.0000  plane waves:   14040
 k-point 14 :   0.5000 0.3333 0.0000  plane waves:   14043
 k-point 15 :  -0.3333 0.3333 0.0000  plane waves:   14074
 k-point 16 :  -0.1667 0.3333 0.0000  plane waves:   14089
 k-point 17 :  -0.0000 0.5000 0.0000  plane waves:   14092
 k-point 18 :   0.1667 0.5000 0.0000  plane waves:   14043
 k-point 19 :   0.3333 0.5000 0.0000  plane waves:   14043
 k-point 20 :   0.5000 0.5000 0.0000  plane waves:   14072
 k-point 21 :   0.0000 0.0000 0.2500  plane waves:   14100
 k-point 22 :   0.1667 0.0000 0.2500  plane waves:   14102
 k-point 23 :   0.3333 0.0000 0.2500  plane waves:   14065
 k-point 24 :   0.5000 0.0000 0.2500  plane waves:   14074
 k-point 25 :  -0.3333 0.0000 0.2500  plane waves:   14065
 k-point 26 :  -0.1667 0.0000 0.2500  plane waves:   14102
 k-point 27 :  -0.0000 0.1667 0.2500  plane waves:   14102
 k-point 28 :   0.1667 0.1667 0.2500  plane waves:   14078
 k-point 29 :   0.3333 0.1667 0.2500  plane waves:   14055
 k-point 30 :   0.5000 0.1667 0.2500  plane waves:   14052
 k-point 31 :  -0.3333 0.1667 0.2500  plane waves:   14073
 k-point 32 :  -0.1667 0.1667 0.2500  plane waves:   14101
 k-point 33 :   0.0000 0.3333 0.2500  plane waves:   14065
 k-point 34 :   0.1667 0.3333 0.2500  plane waves:   14055
 k-point 35 :   0.3333 0.3333 0.2500  plane waves:   14055
 k-point 36 :   0.5000 0.3333 0.2500  plane waves:   14053
 k-point 37 :  -0.3333 0.3333 0.2500  plane waves:   14060
 k-point 38 :  -0.1667 0.3333 0.2500  plane waves:   14073
 k-point 39 :  -0.0000 0.5000 0.2500  plane waves:   14074
 k-point 40 :   0.1667 0.5000 0.2500  plane waves:   14052
 k-point 41 :   0.3333 0.5000 0.2500  plane waves:   14053
 k-point 42 :   0.5000 0.5000 0.2500  plane waves:   14062
 k-point 43 :  -0.3333 0.5000 0.2500  plane waves:   14053
 k-point 44 :  -0.1667 0.5000 0.2500  plane waves:   14052
 k-point 45 :   0.0000-0.3333 0.2500  plane waves:   14065
 k-point 46 :   0.1667-0.3333 0.2500  plane waves:   14073
 k-point 47 :   0.3333-0.3333 0.2500  plane waves:   14060
 k-point 48 :   0.5000-0.3333 0.2500  plane waves:   14053
 k-point 49 :  -0.3333-0.3333 0.2500  plane waves:   14055
 k-point 50 :  -0.1667-0.3333 0.2500  plane waves:   14055
 k-point 51 :   0.0000-0.1667 0.2500  plane waves:   14102
 k-point 52 :   0.1667-0.1667 0.2500  plane waves:   14101
 k-point 53 :   0.3333-0.1667 0.2500  plane waves:   14073
 k-point 54 :   0.5000-0.1667 0.2500  plane waves:   14052
 k-point 55 :  -0.3333-0.1667 0.2500  plane waves:   14055
 k-point 56 :  -0.1667-0.1667 0.2500  plane waves:   14078
 k-point 57 :   0.0000 0.0000 0.5000  plane waves:   14060
 k-point 58 :   0.1667 0.0000 0.5000  plane waves:   14124
 k-point 59 :   0.3333 0.0000 0.5000  plane waves:   14050
 k-point 60 :   0.5000 0.0000 0.5000  plane waves:   14048
 k-point 61 :  -0.0000 0.1667 0.5000  plane waves:   14124
 k-point 62 :   0.1667 0.1667 0.5000  plane waves:   14064
 k-point 63 :   0.3333 0.1667 0.5000  plane waves:   14058
 k-point 64 :   0.5000 0.1667 0.5000  plane waves:   14066
 k-point 65 :  -0.3333 0.1667 0.5000  plane waves:   14076
 k-point 66 :  -0.1667 0.1667 0.5000  plane waves:   14126
 k-point 67 :   0.0000 0.3333 0.5000  plane waves:   14050
 k-point 68 :   0.1667 0.3333 0.5000  plane waves:   14058
 k-point 69 :   0.3333 0.3333 0.5000  plane waves:   14048
 k-point 70 :   0.5000 0.3333 0.5000  plane waves:   14062
 k-point 71 :  -0.3333 0.3333 0.5000  plane waves:   14054
 k-point 72 :  -0.1667 0.3333 0.5000  plane waves:   14076
 k-point 73 :  -0.0000 0.5000 0.5000  plane waves:   14048
 k-point 74 :   0.1667 0.5000 0.5000  plane waves:   14066
 k-point 75 :   0.3333 0.5000 0.5000  plane waves:   14062
 k-point 76 :   0.5000 0.5000 0.5000  plane waves:   14048

 maximum and minimum number of plane-waves per node :     14126    14040

 maximum number of plane-waves:     14126
 maximum index in each direction: 
   IXMAX=   11   IYMAX=   11   IZMAX=   29
   IXMIN=  -11   IYMIN=  -11   IZMIN=  -30

 NGX is ok and might be reduce to  46
 NGY is ok and might be reduce to  46
 NGZ is ok and might be reduce to 120

 serial   3D FFT for wavefunctions
 parallel 3D FFT for charge:
    minimum data exchange during FFTs selected (reduces bandwidth)


 total amount of memory used by VASP on root node   393471. kBytes
========================================================================

   base      :      30000. kBytes
   nonl-proj :      75962. kBytes
   fftplans  :      13581. kBytes
   grid      :      28889. kBytes
   one-center:         98. kBytes
   wavefun   :     244941. kBytes
 
     INWAV:  cpu time    0.00: real time    0.00
 Broyden mixing: mesh for mixing (old mesh)
   NGX = 23   NGY = 23   NGZ = 59
  (NGX  = 96   NGY  = 96   NGZ  =240)
  gives a total of  31211 points

 initial charge density was supplied:
 charge density of overlapping atoms calculated
 number of electron     128.0000000 magnetization 
 keeping initial charge density in first step


--------------------------------------------------------------------------------------------------------


 Maximum index for augmentation-charges         1943 (set IRDMAX)


--------------------------------------------------------------------------------------------------------


 First call to EWALD:  gamma=   0.273
 Maximum number of real-space cells 4x 4x 2
 Maximum number of reciprocal cells 2x 2x 5

 FEWALD executed in parallel
    FEWALD:  cpu time    0.02: real time    0.04


----------------------------------------- Iteration    1(   1)  ---------------------------------------


    POTLOK:  cpu time    1.34: real time    2.36
    SETDIJ:  cpu time    0.08: real time    0.17
     EDDAV:  cpu time  457.78: real time  678.85
 BZINTS: Fermi energy: 17.576063;128.000000 electrons
         Band energy: 202.124908;  BLOECHL correction: -0.123735
       DOS:  cpu time    0.10: real time    0.15
    --------------------------------------------
      LOOP:  cpu time  459.30: real time  681.55

 eigenvalue-minimisations  : 12768
 total energy-change (2. order) : 0.6924974E+03  (-0.8460184E+04)
 number of electron     128.0000000 magnetization 
 augmentation part      128.0000000 magnetization 

 Free energy of the ion-electron system (eV)
  ---------------------------------------------------
  alpha Z        PSCENC =       304.74181339
  Ewald energy   TEWEN  =     -3840.31078138
  -Hartree energ DENC   =     -1089.76523692
  -exchange      EXHF   =         0.00000000
  -V(xc)+E(xc)   XCENC  =       443.58044985
  PAW double counting   =      1210.60617908    -1247.42152856
  entropy T*S    EENTRO =         0.00000000
  eigenvalues    EBANDS =       202.12490835
  atomic energy  EATOM  =      4708.94155045
  ---------------------------------------------------
  free energy    TOTEN  =       692.49735425 eV

  energy without entropy =      692.49735425  energy(sigma->0) =      692.49735425


--------------------------------------------------------------------------------------------------------




----------------------------------------- Iteration    1(   2)  ---------------------------------------


     EDDAV:  cpu time  528.19: real time  789.53
 BZINTS: Fermi energy:  4.176842;128.000000 electrons
         Band energy:-746.424759;  BLOECHL correction:  0.000000
       DOS:  cpu time    0.05: real time    0.05
    --------------------------------------------
      LOOP:  cpu time  528.30: real time  789.67

 eigenvalue-minimisations  : 15852
 total energy-change (2. order) :-0.9485497E+03  (-0.9129997E+03)
 number of electron     128.0000000 magnetization 
 augmentation part      128.0000000 magnetization 

 Free energy of the ion-electron system (eV)
  ---------------------------------------------------
  alpha Z        PSCENC =       304.74181339
  Ewald energy   TEWEN  =     -3840.31078138
  -Hartree energ DENC   =     -1089.76523692
  -exchange      EXHF   =         0.00000000
  -V(xc)+E(xc)   XCENC  =       443.58044985
  PAW double counting   =      1210.60617908    -1247.42152856
  entropy T*S    EENTRO =         0.00000000
  eigenvalues    EBANDS =      -746.42475887
  atomic energy  EATOM  =      4708.94155045
  ---------------------------------------------------
  free energy    TOTEN  =      -256.05231296 eV

  energy without entropy =     -256.05231296  energy(sigma->0) =     -256.05231296


--------------------------------------------------------------------------------------------------------




----------------------------------------- Iteration    1(   3)  ---------------------------------------


     EDDAV:  cpu time  519.52: real time  783.02
 BZINTS: Fermi energy:  3.540022;128.000000 electrons
         Band energy:-802.570782;  BLOECHL correction:  0.000000
       DOS:  cpu time    0.07: real time    0.07
    --------------------------------------------
      LOOP:  cpu time  519.66: real time  783.17

 eigenvalue-minimisations  : 15468
 total energy-change (2. order) :-0.5614602E+02  (-0.5552589E+02)
 number of electron     128.0000000 magnetization 
 augmentation part      128.0000000 magnetization 

 Free energy of the ion-electron system (eV)
  ---------------------------------------------------
  alpha Z        PSCENC =       304.74181339
  Ewald energy   TEWEN  =     -3840.31078138
  -Hartree energ DENC   =     -1089.76523692
  -exchange      EXHF   =         0.00000000
  -V(xc)+E(xc)   XCENC  =       443.58044985
  PAW double counting   =      1210.60617908    -1247.42152856
  entropy T*S    EENTRO =         0.00000000
  eigenvalues    EBANDS =      -802.57078228
  atomic energy  EATOM  =      4708.94155045
  ---------------------------------------------------
  free energy    TOTEN  =      -312.19833638 eV

  energy without entropy =     -312.19833638  energy(sigma->0) =     -312.19833638


--------------------------------------------------------------------------------------------------------




----------------------------------------- Iteration    1(   4)  ---------------------------------------


     EDDAV:  cpu time  534.20: real time  791.10
 BZINTS: Fermi energy:  3.534081;128.000000 electrons
         Band energy:-803.657801;  BLOECHL correction:  0.000000
       DOS:  cpu time    0.05: real time    0.05
    --------------------------------------------
      LOOP:  cpu time  534.28: real time  791.20

 eigenvalue-minimisations  : 15888
 total energy-change (2. order) :-0.1087018E+01  (-0.1084701E+01)
 number of electron     128.0000000 magnetization 
 augmentation part      128.0000000 magnetization 

 Free energy of the ion-electron system (eV)
  ---------------------------------------------------
  alpha Z        PSCENC =       304.74181339
  Ewald energy   TEWEN  =     -3840.31078138
  -Hartree energ DENC   =     -1089.76523692
  -exchange      EXHF   =         0.00000000
  -V(xc)+E(xc)   XCENC  =       443.58044985
  PAW double counting   =      1210.60617908    -1247.42152856
  entropy T*S    EENTRO =         0.00000000
  eigenvalues    EBANDS =      -803.65780078
  atomic energy  EATOM  =      4708.94155045
  ---------------------------------------------------
  free energy    TOTEN  =      -313.28535488 eV

  energy without entropy =     -313.28535488  energy(sigma->0) =     -313.28535488


--------------------------------------------------------------------------------------------------------




----------------------------------------- Iteration    1(   5)  ---------------------------------------


     EDDAV:  cpu time  533.69: real time  802.81
 BZINTS: Fermi energy:  3.533902;128.000000 electrons
         Band energy:-803.690299;  BLOECHL correction:  0.000000
       DOS:  cpu time    0.05: real time    0.09
    CHARGE:  cpu time    7.28: real time   11.11
    MIXING:  cpu time    0.12: real time    0.17
    --------------------------------------------
      LOOP:  cpu time  541.18: real time  814.21

 eigenvalue-minimisations  : 16296
 total energy-change (2. order) :-0.3249814E-01  (-0.3248649E-01)
 number of electron     127.9999993 magnetization 
 augmentation part        3.3893816 magnetization 

 Broyden mixing:
  rms(total) = 0.22077E+01    rms(broyden)= 0.22077E+01
  rms(prec ) = 0.26287E+01
  weight for this iteration     100.00

 Free energy of the ion-electron system (eV)
  ---------------------------------------------------
  alpha Z        PSCENC =       304.74181339
  Ewald energy   TEWEN  =     -3840.31078138
  -Hartree energ DENC   =     -1089.76523692
  -exchange      EXHF   =         0.00000000
  -V(xc)+E(xc)   XCENC  =       443.58044985
  PAW double counting   =      1210.60617908    -1247.42152856
  entropy T*S    EENTRO =         0.00000000
  eigenvalues    EBANDS =      -803.69029892
  atomic energy  EATOM  =      4708.94155045
  ---------------------------------------------------
  free energy    TOTEN  =      -313.31785302 eV

  energy without entropy =     -313.31785302  energy(sigma->0) =     -313.31785302


--------------------------------------------------------------------------------------------------------




----------------------------------------- Iteration    1(   6)  ---------------------------------------


    POTLOK:  cpu time    1.42: real time    2.07
    SETDIJ:  cpu time    0.08: real time    0.17
     EDDAV:  cpu time  492.82: real time  736.14
 BZINTS: Fermi energy:  4.260675;128.000000 electrons
         Band energy:-667.781159;  BLOECHL correction:  0.000000
       DOS:  cpu time    0.06: real time    0.06
    CHARGE:  cpu time    7.90: real time   11.54
    MIXING:  cpu time    0.15: real time    0.32
    --------------------------------------------
      LOOP:  cpu time  502.45: real time  750.35

 eigenvalue-minimisations  : 14592
 total energy-change (2. order) : 0.1427637E+02  (-0.1472960E+01)
 number of electron     127.9999993 magnetization 
 augmentation part        3.2346282 magnetization 

 Broyden mixing:
  rms(total) = 0.11579E+01    rms(broyden)= 0.11579E+01
  rms(prec ) = 0.13680E+01
  weight for this iteration     100.00

 eigenvalues of (default mixing * dielectric matrix)
  average eigenvalue GAMMA=   2.0351
  2.0351

 Free energy of the ion-electron system (eV)
  ---------------------------------------------------
  alpha Z        PSCENC =       304.74181339
  Ewald energy   TEWEN  =     -3840.31078138
  -Hartree energ DENC   =     -1216.82978322
  -exchange      EXHF   =         0.00000000
  -V(xc)+E(xc)   XCENC  =       451.88793863
  PAW double counting   =      1641.38586002    -1681.07691815
  entropy T*S    EENTRO =         0.00000000
  eigenvalues    EBANDS =      -667.78115898
  atomic energy  EATOM  =      4708.94155045
  ---------------------------------------------------
  free energy    TOTEN  =      -299.04147923 eV

  energy without entropy =     -299.04147923  energy(sigma->0) =     -299.04147923


--------------------------------------------------------------------------------------------------------




----------------------------------------- Iteration    1(   7)  ---------------------------------------


    POTLOK:  cpu time    1.41: real time    2.20
    SETDIJ:  cpu time    0.05: real time    0.05
     EDDAV:  cpu time  504.99: real time  754.09
 BZINTS: Fermi energy:  4.962668;128.000000 electrons
         Band energy:-529.753232;  BLOECHL correction:  0.000000
       DOS:  cpu time    0.07: real time    0.13
    CHARGE:  cpu time    7.81: real time   11.43
    MIXING:  cpu time    0.09: real time    0.16
    --------------------------------------------
      LOOP:  cpu time  514.45: real time  768.11

 eigenvalue-minimisations  : 14532
 total energy-change (2. order) : 0.4492347E+01  (-0.1533295E+01)
 number of electron     127.9999993 magnetization 
 augmentation part        3.0708052 magnetization 

 Broyden mixing:
  rms(total) = 0.19315E+00    rms(broyden)= 0.19313E+00
  rms(prec ) = 0.21067E+00
  weight for this iteration     100.00

 eigenvalues of (default mixing * dielectric matrix)
  average eigenvalue GAMMA=   2.0837
  2.0837  2.0837

 Free energy of the ion-electron system (eV)
  ---------------------------------------------------
  alpha Z        PSCENC =       304.74181339
  Ewald energy   TEWEN  =     -3840.31078138
  -Hartree energ DENC   =     -1357.45720379
  -exchange      EXHF   =         0.00000000
  -V(xc)+E(xc)   XCENC  =       461.31320040
  PAW double counting   =      2179.38601383    -2221.41049265
  entropy T*S    EENTRO =         0.00000000
  eigenvalues    EBANDS =      -529.75323239
  atomic energy  EATOM  =      4708.94155045
  ---------------------------------------------------
  free energy    TOTEN  =      -294.54913213 eV

  energy without entropy =     -294.54913213  energy(sigma->0) =     -294.54913213


--------------------------------------------------------------------------------------------------------




----------------------------------------- Iteration    1(   8)  ---------------------------------------


    POTLOK:  cpu time    1.45: real time    2.07
    SETDIJ:  cpu time    0.15: real time    0.18
     EDDAV:  cpu time  518.91: real time  775.74
 BZINTS: Fermi energy:  4.936130;128.000000 electrons
         Band energy:-532.285534;  BLOECHL correction:  0.000000
       DOS:  cpu time    0.04: real time    0.06
    CHARGE:  cpu time    7.09: real time   11.54
    MIXING:  cpu time    0.11: real time    0.24
    --------------------------------------------
      LOOP:  cpu time  527.79: real time  789.87

 eigenvalue-minimisations  : 14976
 total energy-change (2. order) :-0.6117045E-01  (-0.6057225E-01)
 number of electron     127.9999993 magnetization 
 augmentation part        3.0646650 magnetization 

 Broyden mixing:
  rms(total) = 0.73804E-01    rms(broyden)= 0.73801E-01
  rms(prec ) = 0.96673E-01
  weight for this iteration     100.00

 eigenvalues of (default mixing * dielectric matrix)
  average eigenvalue GAMMA=   1.6564
  2.3681  2.0273  0.5739

 Free energy of the ion-electron system (eV)
  ---------------------------------------------------
  alpha Z        PSCENC =       304.74181339
  Ewald energy   TEWEN  =     -3840.31078138
  -Hartree energ DENC   =     -1355.51149948
  -exchange      EXHF   =         0.00000000
  -V(xc)+E(xc)   XCENC  =       461.21167937
  PAW double counting   =      2207.14121964    -2248.53875100
  entropy T*S    EENTRO =         0.00000000
  eigenvalues    EBANDS =      -532.28553357
  atomic energy  EATOM  =      4708.94155045
  ---------------------------------------------------
  free energy    TOTEN  =      -294.61030258 eV

  energy without entropy =     -294.61030258  energy(sigma->0) =     -294.61030258


--------------------------------------------------------------------------------------------------------




----------------------------------------- Iteration    1(   9)  ---------------------------------------


    POTLOK:  cpu time    1.66: real time    2.28
    SETDIJ:  cpu time    0.07: real time    0.08
     EDDAV:  cpu time  503.71: real time  748.39
 BZINTS: Fermi energy:  4.939237;128.000000 electrons
         Band energy:-531.717028;  BLOECHL correction:  0.000000
       DOS:  cpu time    0.04: real time    0.07
    CHARGE:  cpu time    6.85: real time   10.84
    MIXING:  cpu time    0.18: real time    0.22
    --------------------------------------------
      LOOP:  cpu time  512.51: real time  761.91

 eigenvalue-minimisations  : 14964
 total energy-change (2. order) : 0.4085432E-02  (-0.4738337E-02)
 number of electron     127.9999993 magnetization 
 augmentation part        3.0625625 magnetization 

 Broyden mixing:
  rms(total) = 0.30121E-01    rms(broyden)= 0.30121E-01
  rms(prec ) = 0.48013E-01
  weight for this iteration     100.00

 eigenvalues of (default mixing * dielectric matrix)
  average eigenvalue GAMMA=   1.4634
  2.4251  2.0067  0.7108  0.7108

 Free energy of the ion-electron system (eV)
  ---------------------------------------------------
  alpha Z        PSCENC =       304.74181339
  Ewald energy   TEWEN  =     -3840.31078138
  -Hartree energ DENC   =     -1356.31175379
  -exchange      EXHF   =         0.00000000
  -V(xc)+E(xc)   XCENC  =       461.28212489
  PAW double counting   =      2219.47097482    -2260.70311719
  entropy T*S    EENTRO =         0.00000000
  eigenvalues    EBANDS =      -531.71702834
  atomic energy  EATOM  =      4708.94155045
  ---------------------------------------------------
  free energy    TOTEN  =      -294.60621715 eV

  energy without entropy =     -294.60621715  energy(sigma->0) =     -294.60621715


--------------------------------------------------------------------------------------------------------




----------------------------------------- Iteration    1(  10)  ---------------------------------------


    POTLOK:  cpu time    1.49: real time    2.23
    SETDIJ:  cpu time    0.07: real time    0.09
     EDDAV:  cpu time  553.91: real time  831.24
 BZINTS: Fermi energy:  4.945216;128.000000 electrons
         Band energy:-531.153240;  BLOECHL correction: -0.000000
       DOS:  cpu time    0.08: real time    0.08
    CHARGE:  cpu time    7.45: real time   10.78
    MIXING:  cpu time    0.24: real time    0.28
    --------------------------------------------
      LOOP:  cpu time  563.25: real time  844.72

 eigenvalue-minimisations  : 16680
 total energy-change (2. order) : 0.1969683E-02  (-0.1954867E-02)
 number of electron     127.9999993 magnetization 
 augmentation part        3.0618879 magnetization 

 Broyden mixing:
  rms(total) = 0.14334E-01    rms(broyden)= 0.14333E-01
  rms(prec ) = 0.23518E-01
  weight for this iteration     100.00

 eigenvalues of (default mixing * dielectric matrix)
  average eigenvalue GAMMA=   1.2973
  2.4611  1.9885  0.7489  0.7489  0.5393

 Free energy of the ion-electron system (eV)
  ---------------------------------------------------
  alpha Z        PSCENC =       304.74181339
  Ewald energy   TEWEN  =     -3840.31078138
  -Hartree energ DENC   =     -1356.92482043
  -exchange      EXHF   =         0.00000000
  -V(xc)+E(xc)   XCENC  =       461.32771652
  PAW double counting   =      2221.60064911    -2262.82713522
  entropy T*S    EENTRO =         0.00000000
  eigenvalues    EBANDS =      -531.15323991
  atomic energy  EATOM  =      4708.94155045
  ---------------------------------------------------
  free energy    TOTEN  =      -294.60424746 eV

  energy without entropy =     -294.60424746  energy(sigma->0) =     -294.60424746


--------------------------------------------------------------------------------------------------------




----------------------------------------- Iteration    1(  11)  ---------------------------------------


    POTLOK:  cpu time    1.64: real time    2.27
    SETDIJ:  cpu time    0.06: real time    0.09
     EDDAV:  cpu time  506.17: real time  752.06
 BZINTS: Fermi energy:  4.944777;128.000000 electrons
         Band energy:-530.737952;  BLOECHL correction:  0.000000
       DOS:  cpu time    0.05: real time    0.08
    CHARGE:  cpu time    7.57: real time   11.73
    MIXING:  cpu time    0.06: real time    0.13
    --------------------------------------------
      LOOP:  cpu time  515.57: real time  766.39

 eigenvalue-minimisations  : 14664
 total energy-change (2. order) :-0.2733186E-03  (-0.8301369E-03)
 number of electron     127.9999993 magnetization 
 augmentation part        3.0613622 magnetization 

 Broyden mixing:
  rms(total) = 0.11119E-01    rms(broyden)= 0.11118E-01
  rms(prec ) = 0.17495E-01
  weight for this iteration     100.00

 eigenvalues of (default mixing * dielectric matrix)
  average eigenvalue GAMMA=   1.3126
  2.6057  1.8142  1.8142  0.6851  0.6851  0.2717

 Free energy of the ion-electron system (eV)
  ---------------------------------------------------
  alpha Z        PSCENC =       304.74181339
  Ewald energy   TEWEN  =     -3840.31078138
  -Hartree energ DENC   =     -1357.37304121
  -exchange      EXHF   =         0.00000000
  -V(xc)+E(xc)   XCENC  =       461.36058401
  PAW double counting   =      2222.80736850    -2264.03406278
  entropy T*S    EENTRO =         0.00000000
  eigenvalues    EBANDS =      -530.73795175
  atomic energy  EATOM  =      4708.94155045
  ---------------------------------------------------
  free energy    TOTEN  =      -294.60452078 eV

  energy without entropy =     -294.60452078  energy(sigma->0) =     -294.60452078


--------------------------------------------------------------------------------------------------------




----------------------------------------- Iteration    1(  12)  ---------------------------------------


    POTLOK:  cpu time    1.38: real time    2.24
    SETDIJ:  cpu time    0.07: real time    0.14
     EDDAV:  cpu time  500.40: real time  744.41
 BZINTS: Fermi energy:  4.947101;128.000000 electrons
         Band energy:-530.049184;  BLOECHL correction:  0.000000
       DOS:  cpu time    0.04: real time    0.08
    CHARGE:  cpu time    7.10: real time   11.29
    MIXING:  cpu time    0.15: real time    0.27
    --------------------------------------------
      LOOP:  cpu time  509.13: real time  758.45

 eigenvalue-minimisations  : 14592
 total energy-change (2. order) :-0.2437100E-03  (-0.2036046E-03)
 number of electron     127.9999993 magnetization 
 augmentation part        3.0608935 magnetization 

 Broyden mixing:
  rms(total) = 0.61694E-02    rms(broyden)= 0.61689E-02
  rms(prec ) = 0.93963E-02
  weight for this iteration     100.00

 eigenvalues of (default mixing * dielectric matrix)
  average eigenvalue GAMMA=   1.2781
  2.5848  1.9755  1.9755  0.7558  0.6984  0.6984  0.2585

 Free energy of the ion-electron system (eV)
  ---------------------------------------------------
  alpha Z        PSCENC =       304.74181339
  Ewald energy   TEWEN  =     -3840.31078138
  -Hartree energ DENC   =     -1358.11588617
  -exchange      EXHF   =         0.00000000
  -V(xc)+E(xc)   XCENC  =       461.41518606
  PAW double counting   =      2224.55825888    -2265.78572199
  entropy T*S    EENTRO =         0.00000000
  eigenvalues    EBANDS =      -530.04918374
  atomic energy  EATOM  =      4708.94155045
  ---------------------------------------------------
  free energy    TOTEN  =      -294.60476449 eV

  energy without entropy =     -294.60476449  energy(sigma->0) =     -294.60476449


--------------------------------------------------------------------------------------------------------




----------------------------------------- Iteration    1(  13)  ---------------------------------------


    POTLOK:  cpu time    1.63: real time    2.18
    SETDIJ:  cpu time    0.08: real time    0.18
     EDDAV:  cpu time  516.13: real time  775.94
 BZINTS: Fermi energy:  4.948689;128.000000 electrons
         Band energy:-529.968472;  BLOECHL correction:  0.000000
       DOS:  cpu time    0.06: real time    0.07
    CHARGE:  cpu time    7.66: real time   10.70
    MIXING:  cpu time    0.19: real time    0.30
    --------------------------------------------
      LOOP:  cpu time  525.76: real time  789.40

 eigenvalue-minimisations  : 15372
 total energy-change (2. order) :-0.1896887E-03  (-0.1743447E-03)
 number of electron     127.9999993 magnetization 
 augmentation part        3.0607966 magnetization 

 Broyden mixing:
  rms(total) = 0.91766E-02    rms(broyden)= 0.91761E-02
  rms(prec ) = 0.16859E-01
  weight for this iteration     100.00

 eigenvalues of (default mixing * dielectric matrix)
  average eigenvalue GAMMA=   1.2390
  2.5724  2.4894  1.9151  1.0164  0.7112  0.7112  0.2771  0.2191

 Free energy of the ion-electron system (eV)
  ---------------------------------------------------
  alpha Z        PSCENC =       304.74181339
  Ewald energy   TEWEN  =     -3840.31078138
  -Hartree energ DENC   =     -1358.20620098
  -exchange      EXHF   =         0.00000000
  -V(xc)+E(xc)   XCENC  =       461.42287602
  PAW double counting   =      2224.04010761    -2265.26584728
  entropy T*S    EENTRO =         0.00000000
  eigenvalues    EBANDS =      -529.96847201
  atomic energy  EATOM  =      4708.94155045
  ---------------------------------------------------
  free energy    TOTEN  =      -294.60495418 eV

  energy without entropy =     -294.60495418  energy(sigma->0) =     -294.60495418


--------------------------------------------------------------------------------------------------------




----------------------------------------- Iteration    1(  14)  ---------------------------------------


    POTLOK:  cpu time    1.32: real time    2.15
    SETDIJ:  cpu time    0.04: real time    0.06
     EDDAV:  cpu time  518.65: real time  775.09
 BZINTS: Fermi energy:  4.950022;128.000000 electrons
         Band energy:-529.922005;  BLOECHL correction:  0.000000
       DOS:  cpu time    0.05: real time    0.09
    CHARGE:  cpu time    7.58: real time   11.90
    MIXING:  cpu time    0.22: real time    0.32
    --------------------------------------------
      LOOP:  cpu time  527.87: real time  789.72

 eigenvalue-minimisations  : 15324
 total energy-change (2. order) :-0.8278694E-04  (-0.1531597E-03)
 number of electron     127.9999993 magnetization 
 augmentation part        3.0607808 magnetization 

 Broyden mixing:
  rms(total) = 0.66108E-02    rms(broyden)= 0.66105E-02
  rms(prec ) = 0.11636E-01
  weight for this iteration     100.00

 eigenvalues of (default mixing * dielectric matrix)
  average eigenvalue GAMMA=   1.1811
  2.8553  2.4552  1.9259  0.9495  0.7887  0.7887  0.4320  0.2608  0.1736

 Free energy of the ion-electron system (eV)
  ---------------------------------------------------
  alpha Z        PSCENC =       304.74181339
  Ewald energy   TEWEN  =     -3840.31078138
  -Hartree energ DENC   =     -1358.25957296
  -exchange      EXHF   =         0.00000000
  -V(xc)+E(xc)   XCENC  =       461.42777356
  PAW double counting   =      2223.52655810    -2264.75037326
  entropy T*S    EENTRO =         0.00000000
  eigenvalues    EBANDS =      -529.92200486
  atomic energy  EATOM  =      4708.94155045
  ---------------------------------------------------
  free energy    TOTEN  =      -294.60503697 eV

  energy without entropy =     -294.60503697  energy(sigma->0) =     -294.60503697


--------------------------------------------------------------------------------------------------------




----------------------------------------- Iteration    1(  15)  ---------------------------------------


    POTLOK:  cpu time    1.63: real time    2.26
    SETDIJ:  cpu time    0.08: real time    0.16
     EDDAV:  cpu time  487.26: real time  932.36
 BZINTS: Fermi energy:  4.950774;128.000000 electrons
         Band energy:-529.870930;  BLOECHL correction: -0.000000
       DOS:  cpu time    0.05: real time    0.09
    CHARGE:  cpu time    6.38: real time   12.78
    MIXING:  cpu time    0.24: real time    0.49
    --------------------------------------------
      LOOP:  cpu time  495.66: real time  948.85

 eigenvalue-minimisations  : 16080
 total energy-change (2. order) : 0.5238363E-04  (-0.1538294E-04)
 number of electron     127.9999993 magnetization 
 augmentation part        3.0608009 magnetization 

 Broyden mixing:
  rms(total) = 0.55688E-02    rms(broyden)= 0.55688E-02
  rms(prec ) = 0.98082E-02
  weight for this iteration     100.00

 eigenvalues of (default mixing * dielectric matrix)
  average eigenvalue GAMMA=   1.1631
  2.8526  2.4646  1.9094  0.9983  0.8670  0.8670  0.6119  0.6119  0.2706  0.1774

 Free energy of the ion-electron system (eV)
  ---------------------------------------------------
  alpha Z        PSCENC =       304.74181339
  Ewald energy   TEWEN  =     -3840.31078138
  -Hartree energ DENC   =     -1358.31635778
  -exchange      EXHF   =         0.00000000
  -V(xc)+E(xc)   XCENC  =       461.43218121
  PAW double counting   =      2223.51142555    -2264.73388585
  entropy T*S    EENTRO =         0.00000000
  eigenvalues    EBANDS =      -529.87093017
  atomic energy  EATOM  =      4708.94155045
  ---------------------------------------------------
  free energy    TOTEN  =      -294.60498458 eV

  energy without entropy =     -294.60498458  energy(sigma->0) =     -294.60498458


--------------------------------------------------------------------------------------------------------




----------------------------------------- Iteration    1(  16)  ---------------------------------------


    POTLOK:  cpu time    1.20: real time    2.40
    SETDIJ:  cpu time    0.12: real time    0.24
     EDDAV:  cpu time  588.99: real time 1178.57
 BZINTS: Fermi energy:  4.950854;128.000000 electrons
         Band energy:-529.871961;  BLOECHL correction: -0.000000
       DOS:  cpu time    0.05: real time    0.10
    CHARGE:  cpu time    5.77: real time   11.56
    MIXING:  cpu time    0.21: real time    0.43
    --------------------------------------------
      LOOP:  cpu time  596.37: real time 1193.33

 eigenvalue-minimisations  : 22392
 total energy-change (2. order) : 0.1968074E-05  (-0.1433323E-03)
 number of electron     127.9999993 magnetization 
 augmentation part        3.0607921 magnetization 

 Broyden mixing:
  rms(total) = 0.51183E-02    rms(broyden)= 0.51171E-02
  rms(prec ) = 0.88061E-02
  weight for this iteration     100.00

 eigenvalues of (default mixing * dielectric matrix)
  average eigenvalue GAMMA=   1.1397
  2.8574  2.5035  1.8177  1.5896  0.9208  0.7466  0.7466  0.4534  0.4534  0.2706
  0.1770

 Free energy of the ion-electron system (eV)
  ---------------------------------------------------
  alpha Z        PSCENC =       304.74181339
  Ewald energy   TEWEN  =     -3840.31078138
  -Hartree energ DENC   =     -1358.31555996
  -exchange      EXHF   =         0.00000000
  -V(xc)+E(xc)   XCENC  =       461.43192493
  PAW double counting   =      2223.46539340    -2264.68736211
  entropy T*S    EENTRO =         0.00000000
  eigenvalues    EBANDS =      -529.87196133
  atomic energy  EATOM  =      4708.94155045
  ---------------------------------------------------
  free energy    TOTEN  =      -294.60498262 eV

  energy without entropy =     -294.60498262  energy(sigma->0) =     -294.60498262


--------------------------------------------------------------------------------------------------------




----------------------------------------- Iteration    1(  17)  ---------------------------------------


    POTLOK:  cpu time    1.23: real time    2.46
    SETDIJ:  cpu time    0.05: real time    0.10
     EDDAV:  cpu time  449.36: real time  899.19
 BZINTS: Fermi energy:  4.949392;128.000000 electrons
         Band energy:-529.875936;  BLOECHL correction:  0.000000
       DOS:  cpu time    0.04: real time    0.08
    CHARGE:  cpu time    5.79: real time   11.59
    MIXING:  cpu time    0.04: real time    0.08
    --------------------------------------------
      LOOP:  cpu time  456.54: real time  913.58

 eigenvalue-minimisations  : 14592
 total energy-change (2. order) : 0.3086527E-04  (-0.3667900E-05)
 number of electron     127.9999993 magnetization 
 augmentation part        3.0608124 magnetization 

 Broyden mixing:
  rms(total) = 0.43539E-02    rms(broyden)= 0.43539E-02
  rms(prec ) = 0.74131E-02
  weight for this iteration     100.00

 eigenvalues of (default mixing * dielectric matrix)
  average eigenvalue GAMMA=   1.1190
  2.8668  2.4952  1.7778  1.7778  0.9193  0.7308  0.7308  0.5909  0.5458  0.5458
  0.2701  0.1770

 Free energy of the ion-electron system (eV)
  ---------------------------------------------------
  alpha Z        PSCENC =       304.74181339
  Ewald energy   TEWEN  =     -3840.31078138
  -Hartree energ DENC   =     -1358.31162677
  -exchange      EXHF   =         0.00000000
  -V(xc)+E(xc)   XCENC  =       461.43156241
  PAW double counting   =      2223.41163019    -2264.63316366
  entropy T*S    EENTRO =         0.00000000
  eigenvalues    EBANDS =      -529.87593637
  atomic energy  EATOM  =      4708.94155045
  ---------------------------------------------------
  free energy    TOTEN  =      -294.60495175 eV

  energy without entropy =     -294.60495175  energy(sigma->0) =     -294.60495175


--------------------------------------------------------------------------------------------------------




----------------------------------------- Iteration    1(  18)  ---------------------------------------


    POTLOK:  cpu time    1.22: real time    2.44
    SETDIJ:  cpu time    0.10: real time    0.19
     EDDAV:  cpu time  462.83: real time  926.11
 BZINTS: Fermi energy:  4.949428;128.000000 electrons
         Band energy:-529.868824;  BLOECHL correction:  0.000000
       DOS:  cpu time    0.04: real time    0.09
    CHARGE:  cpu time    6.03: real time   12.07
    MIXING:  cpu time    0.11: real time    0.22
    --------------------------------------------
      LOOP:  cpu time  470.34: real time  941.15

 eigenvalue-minimisations  : 15420
 total energy-change (2. order) : 0.9629144E-05  (-0.1399126E-05)
 number of electron     127.9999993 magnetization 
 augmentation part        3.0608099 magnetization 

 Broyden mixing:
  rms(total) = 0.37007E-02    rms(broyden)= 0.37007E-02
  rms(prec ) = 0.65158E-02
  weight for this iteration     100.00

 eigenvalues of (default mixing * dielectric matrix)
  average eigenvalue GAMMA=   1.0810
  2.8738  2.4998  1.7743  1.7743  0.9191  0.7702  0.7702  0.6179  0.6179  0.4943
  0.4943  0.2703  0.1770

 Free energy of the ion-electron system (eV)
  ---------------------------------------------------
  alpha Z        PSCENC =       304.74181339
  Ewald energy   TEWEN  =     -3840.31078138
  -Hartree energ DENC   =     -1358.31910809
  -exchange      EXHF   =         0.00000000
  -V(xc)+E(xc)   XCENC  =       461.43200341
  PAW double counting   =      2223.41473353    -2264.63632915
  entropy T*S    EENTRO =         0.00000000
  eigenvalues    EBANDS =      -529.86882429
  atomic energy  EATOM  =      4708.94155045
  ---------------------------------------------------
  free energy    TOTEN  =      -294.60494212 eV

  energy without entropy =     -294.60494212  energy(sigma->0) =     -294.60494212


--------------------------------------------------------------------------------------------------------




----------------------------------------- Iteration    1(  19)  ---------------------------------------


    POTLOK:  cpu time    1.22: real time    2.44
    SETDIJ:  cpu time    0.09: real time    0.17
     EDDAV:  cpu time  547.35: real time 1095.28
 BZINTS: Fermi energy:  4.949422;128.000000 electrons
         Band energy:-529.867003;  BLOECHL correction:  0.000000
       DOS:  cpu time    0.05: real time    0.10
    CHARGE:  cpu time    6.09: real time   12.18
    MIXING:  cpu time    0.04: real time    0.08
    --------------------------------------------
      LOOP:  cpu time  554.84: real time 1110.27

 eigenvalue-minimisations  : 20064
 total energy-change (2. order) : 0.9327495E-05  (-0.3668801E-05)
 number of electron     127.9999993 magnetization 
 augmentation part        3.0608083 magnetization 

 Broyden mixing:
  rms(total) = 0.12870E-02    rms(broyden)= 0.12867E-02
  rms(prec ) = 0.22554E-02
  weight for this iteration     100.00

 eigenvalues of (default mixing * dielectric matrix)
  average eigenvalue GAMMA=   1.0146
  2.8732  2.5036  1.7798  1.7798  0.9132  0.7653  0.7653  0.5732  0.5732  0.4155
  0.4155  0.4005  0.2699  0.1770

 Free energy of the ion-electron system (eV)
  ---------------------------------------------------
  alpha Z        PSCENC =       304.74181339
  Ewald energy   TEWEN  =     -3840.31078138
  -Hartree energ DENC   =     -1358.32099137
  -exchange      EXHF   =         0.00000000
  -V(xc)+E(xc)   XCENC  =       461.43212099
  PAW double counting   =      2223.41308907    -2264.63473145
  entropy T*S    EENTRO =         0.00000000
  eigenvalues    EBANDS =      -529.86700250
  atomic energy  EATOM  =      4708.94155045
  ---------------------------------------------------
  free energy    TOTEN  =      -294.60493279 eV

  energy without entropy =     -294.60493279  energy(sigma->0) =     -294.60493279


--------------------------------------------------------------------------------------------------------




----------------------------------------- Iteration    1(  20)  ---------------------------------------


    POTLOK:  cpu time    1.28: real time    2.55
    SETDIJ:  cpu time    0.09: real time    0.19
     EDDAV:  cpu time  447.03: real time  894.50
 BZINTS: Fermi energy:  4.949393;128.000000 electrons
         Band energy:-529.867622;  BLOECHL correction:  0.000000
       DOS:  cpu time    0.03: real time    0.07
    CHARGE:  cpu time    5.75: real time   11.51
    MIXING:  cpu time    0.18: real time    0.35
    --------------------------------------------
      LOOP:  cpu time  454.37: real time  909.18

 eigenvalue-minimisations  : 14616
 total energy-change (2. order) :-0.2222084E-05  (-0.9413425E-06)
 number of electron     127.9999993 magnetization 
 augmentation part        3.0608094 magnetization 

 Broyden mixing:
  rms(total) = 0.25979E-02    rms(broyden)= 0.25979E-02
  rms(prec ) = 0.44406E-02
  weight for this iteration     100.00

 eigenvalues of (default mixing * dielectric matrix)
  average eigenvalue GAMMA=   0.9881
  2.8694  2.5041  1.7802  1.7802  0.9223  0.7096  0.7096  0.7628  0.7628  0.4797
  0.4797  0.2703  0.1770  0.3070  0.3070

 Free energy of the ion-electron system (eV)
  ---------------------------------------------------
  alpha Z        PSCENC =       304.74181339
  Ewald energy   TEWEN  =     -3840.31078138
  -Hartree energ DENC   =     -1358.32034467
  -exchange      EXHF   =         0.00000000
  -V(xc)+E(xc)   XCENC  =       461.43207767
  PAW double counting   =      2223.41154471    -2264.63317321
  entropy T*S    EENTRO =         0.00000000
  eigenvalues    EBANDS =      -529.86762198
  atomic energy  EATOM  =      4708.94155045
  ---------------------------------------------------
  free energy    TOTEN  =      -294.60493502 eV

  energy without entropy =     -294.60493502  energy(sigma->0) =     -294.60493502


--------------------------------------------------------------------------------------------------------




----------------------------------------- Iteration    1(  21)  ---------------------------------------


    POTLOK:  cpu time    1.20: real time    2.39
    SETDIJ:  cpu time    0.03: real time    0.06
     EDDAV:  cpu time  476.67: real time  953.81
 BZINTS: Fermi energy:  4.949366;128.000000 electrons
         Band energy:-529.868441;  BLOECHL correction:  0.000000
       DOS:  cpu time    0.04: real time    0.08
    CHARGE:  cpu time    5.90: real time   11.81
    MIXING:  cpu time    0.19: real time    0.38
    --------------------------------------------
      LOOP:  cpu time  484.04: real time  968.56

 eigenvalue-minimisations  : 16164
 total energy-change (2. order) :-0.1460430E-05  (-0.2246652E-06)
 number of electron     127.9999993 magnetization 
 augmentation part        3.0608110 magnetization 

 Broyden mixing:
  rms(total) = 0.31002E-02    rms(broyden)= 0.31002E-02
  rms(prec ) = 0.51838E-02
  weight for this iteration     100.00

 eigenvalues of (default mixing * dielectric matrix)
  average eigenvalue GAMMA=   1.0945
  2.9067  2.5179  1.9977  1.9977  1.2530  1.2530  0.8677  0.8677  0.7579  0.7579
  0.5308  0.5308  0.4133  0.4133  0.2702  0.1770

 Free energy of the ion-electron system (eV)
  ---------------------------------------------------
  alpha Z        PSCENC =       304.74181339
  Ewald energy   TEWEN  =     -3840.31078138
  -Hartree energ DENC   =     -1358.31949026
  -exchange      EXHF   =         0.00000000
  -V(xc)+E(xc)   XCENC  =       461.43201181
[...]
     79      12.8107      0.00000
     80      12.8141      0.00000
     81      12.8487      0.00000
     82      12.8528      0.00000
     83      13.2206      0.00000
     84      13.2220      0.00000

 k-point    75 :       0.3333    0.5000    0.5000
  band No.  band energies     occupation 
      1     -13.5037      2.00000
      2     -13.5034      2.00000
      3     -13.2516      2.00000
      4     -13.2512      2.00000
      5     -12.5312      2.00000
      6     -12.5309      2.00000
      7     -12.2943      2.00000
      8     -12.2939      2.00000
      9     -11.5700      2.00000
     10     -11.5698      2.00000
     11     -11.3483      2.00000
     12     -11.3479      2.00000
     13      -8.8870      2.00000
     14      -8.8864      2.00000
     15      -8.7218      2.00000
     16      -8.7211      2.00000
     17      -7.0075      2.00000
     18      -7.0048      2.00000
     19      -6.8958      2.00000
     20      -6.8933      2.00000
     21      -4.6987      2.00000
     22      -4.6964      2.00000
     23      -4.6107      2.00000
     24      -4.6082      2.00000
     25      -4.5365      2.00000
     26      -4.5352      2.00000
     27      -4.4403      2.00000
     28      -4.4388      2.00000
     29      -3.5589      2.00000
     30      -3.5567      2.00000
     31      -3.4559      2.00000
     32      -3.4537      2.00000
     33      -2.4956      2.00000
     34      -2.4937      2.00000
     35      -2.4282      2.00000
     36      -2.4263      2.00000
     37      -2.0156      2.00000
     38      -2.0144      2.00000
     39      -1.4641      2.00000
     40      -1.4602      2.00000
     41      -1.3988      2.00000
     42      -1.3943      2.00000
     43      -0.9469      2.00000
     44      -0.9443      2.00000
     45      -0.8905      2.00000
     46      -0.8880      2.00000
     47      -0.8673      2.00000
     48      -0.8664      2.00000
     49      -0.4849      2.00000
     50      -0.4835      2.00000
     51      -0.0579      2.00000
     52      -0.0530      2.00000
     53      -0.0146      2.00000
     54      -0.0105      2.00000
     55       0.2498      2.00000
     56       0.2510      2.00000
     57       0.5792      2.00000
     58       0.5805      2.00000
     59       1.6012      2.00000
     60       1.6025      2.00000
     61       3.1722      2.00000
     62       3.1744      2.00000
     63       4.0238      2.00000
     64       4.0264      2.00000
     65       6.0575      0.00000
     66       6.0613      0.00000
     67       6.5106      0.00000
     68       6.5135      0.00000
     69       9.1220      0.00000
     70       9.1240      0.00000
     71       9.6500      0.00000
     72       9.6519      0.00000
     73      10.5891      0.00000
     74      10.5920      0.00000
     75      11.1903      0.00000
     76      11.1918      0.00000
     77      11.6976      0.00000
     78      11.7013      0.00000
     79      12.8085      0.00000
     80      12.8124      0.00000
     81      12.8454      0.00000
     82      12.8504      0.00000
     83      13.2196      0.00000
     84      13.2214      0.00000

 k-point    76 :       0.5000    0.5000    0.5000
  band No.  band energies     occupation 
      1     -13.1807      2.00000
      2     -13.1780      2.00000
      3     -13.1780      2.00000
      4     -13.1750      2.00000
      5     -12.9336      2.00000
      6     -12.9309      2.00000
      7     -12.9309      2.00000
      8     -12.9278      2.00000
      9     -10.3306      2.00000
     10     -10.3288      2.00000
     11     -10.3288      2.00000
     12     -10.3270      2.00000
     13     -10.1295      2.00000
     14     -10.1278      2.00000
     15     -10.1277      2.00000
     16     -10.1258      2.00000
     17      -5.5677      2.00000
     18      -5.5632      2.00000
     19      -5.5628      2.00000
     20      -5.5628      2.00000
     21      -5.4972      2.00000
     22      -5.4933      2.00000
     23      -5.4930      2.00000
     24      -5.4930      2.00000
     25      -3.9700      2.00000
     26      -3.9700      2.00000
     27      -3.9686      2.00000
     28      -3.9661      2.00000
     29      -3.9184      2.00000
     30      -3.9184      2.00000
     31      -3.9169      2.00000
     32      -3.9136      2.00000
     33      -2.4737      2.00000
     34      -2.4734      2.00000
     35      -2.4734      2.00000
     36      -2.4678      2.00000
     37      -2.3808      2.00000
     38      -2.3805      2.00000
     39      -2.3805      2.00000
     40      -2.3740      2.00000
     41      -1.6314      2.00000
     42      -1.6288      2.00000
     43      -1.6285      2.00000
     44      -1.6262      2.00000
     45      -0.1283      2.00000
     46      -0.1251      2.00000
     47      -0.1249      2.00000
     48      -0.1224      2.00000
     49      -0.0572      2.00000
     50      -0.0476      2.00000
     51      -0.0475      2.00000
     52      -0.0460      2.00000
     53      -0.0083      2.00000
     54      -0.0014      2.00000
     55      -0.0014      2.00000
     56       0.0003      2.00000
     57       1.6562      2.00000
     58       1.6572      2.00000
     59       1.6574      2.00000
     60       1.6606      2.00000
     61       2.8514      2.00000
     62       2.8525      2.00000
     63       2.8527      2.00000
     64       2.8566      2.00000
     65       7.5149      0.00000
     66       7.5202      0.00000
     67       7.5202      0.00000
     68       7.5205      0.00000
     69       8.0195      0.00000
     70       8.0242      0.00000
     71       8.0243      0.00000
     72       8.0249      0.00000
     73      11.7824      0.00000
     74      11.7933      0.00000
     75      11.7945      0.00000
     76      11.8060      0.00000
     77      12.1799      0.00000
     78      12.1891      0.00000
     79      12.1917      0.00000
     80      12.2010      0.00000
     81      12.4504      0.00000
     82      12.4520      0.00000
     83      12.4534      0.00000
     84      12.4596      0.00000


--------------------------------------------------------------------------------------------------------


 soft charge-density along one line, spin component           1
         0         1         2         3         4         5         6         7         8         9
 total charge-density along one line
 
 pseudopotential strength for first ion, spin component:           1
  9.755   0.005  -0.000  -0.000   0.000   0.000   0.000  -0.000
  0.005  -0.002   0.000  -0.000  -0.000   0.000   0.000  -0.000
 -0.000   0.000  -3.930  -0.000   0.000  -0.015   0.000  -0.000
 -0.000  -0.000  -0.000  -3.924   0.000   0.000  -0.012  -0.000
  0.000  -0.000   0.000   0.000  -3.930  -0.000  -0.000  -0.015
  0.000   0.000  -0.015   0.000  -0.000  -0.763  -0.000   0.000
  0.000   0.000   0.000  -0.012  -0.000  -0.000  -0.763   0.000
 -0.000  -0.000  -0.000  -0.000  -0.015   0.000   0.000  -0.763
 total augmentation occupancy for first ion, spin component:           1
  1.469  -1.120   0.000  -0.000  -0.000   0.000   0.000  -0.000
 -1.120   1.058  -0.000  -0.000   0.000  -0.000  -0.000   0.000
  0.000  -0.000   1.222  -0.000   0.000   0.228  -0.000  -0.000
 -0.000  -0.000  -0.000   0.925   0.000  -0.000   0.105   0.000
 -0.000   0.000   0.000   0.000   1.222  -0.000   0.000   0.228
  0.000  -0.000   0.228  -0.000  -0.000   0.048   0.000  -0.000
  0.000  -0.000  -0.000   0.105   0.000   0.000   0.013   0.000
 -0.000   0.000  -0.000   0.000   0.228  -0.000   0.000   0.048


------------------------ aborting loop because EDIFF is reached ----------------------------------------


    CHARGE:  cpu time    6.30: real time   12.60
    FORLOC:  cpu time    0.09: real time    0.19
    FORNL :  cpu time   34.44: real time   68.93
    STRESS:  cpu time   61.38: real time  122.81
    FORHAR:  cpu time    0.39: real time    0.79
    MIXING:  cpu time    0.32: real time    0.63
    OFIELD:  cpu time    0.00: real time    0.00

 ---------------------------------------------------------------------------------------------

         DFTD3 V3.0 Rev 1        
 IVDW         = 12
 DF pbe       
 parameters
 VDW_S6       =    1.0000
 VDW_S8       =    0.7875
 VDW_A1       =    0.4289
 VDW_A2       =    4.4407
 k1-k3        =   16.0000    1.3333   -4.0000
 VDW_RADIUS   =   50.2022 A
 VDW_CNRADIUS =   21.1671 A
 Edisp (eV)   -5.19518

 E6    (eV) :    -3.7167
 E8    (eV) :    -1.4785
 % E8        : 28.46
    FORVDW:  cpu time    0.25: real time    0.50

  FORCE on cell =-STRESS in cart. coord.  units (eV):
  Direction    XX          YY          ZZ          XY          YZ          ZX
  --------------------------------------------------------------------------------------
  Alpha Z   304.74181   304.74181   304.74181
  Ewald     463.73785   463.25401 -4767.31967     0.35802     0.00064    -0.00942
  Hartree  1178.13573  1178.13656  -997.93496     0.10951     0.00029    -0.00230
  E(xc)    -467.92523  -467.93214  -484.61246    -0.00296     0.00005    -0.00012
  Local   -3277.32958 -3276.94406  3861.64696    -0.40597    -0.00012     0.00797
  n-local  -111.64057  -111.75287  -102.65265    -0.09188     0.00074    -0.00166
  augment   -12.36806   -12.36716   -11.33715    -0.00045    -0.00001     0.00005
  Kinetic  1922.60379  1923.36796  2205.68611     0.53384    -0.00979     0.02308
  Fock        0.00000     0.00000     0.00000     0.00000     0.00000     0.00000
  vdW        -0.70962    -0.69920    -6.09578     0.00864    -0.00000    -0.00002
  -------------------------------------------------------------------------------------
  Total      -0.75386    -0.19510     2.12220     0.50874    -0.00820     0.01758
  in kB      -4.41146    -1.14169    12.41875     2.97708    -0.04801     0.10288
  external pressure =        2.29 kB  Pullay stress =        0.00 kB


 VOLUME and BASIS-vectors are now :
 -----------------------------------------------------------------------------
  energy-cutoff  :      800.00
  volume of cell :      273.79
      direct lattice vectors                 reciprocal lattice vectors
     4.932874498 -0.001919286  0.000000000     0.202767147  0.117172881  0.000000000
    -2.468099399  4.271034986  0.000000000     0.000091118  0.234187941  0.000000000
     0.000000000  0.000000000 12.998231427     0.000000000  0.000000000  0.076933543

  length of vectors
     4.932874871  4.932874871 12.998231427     0.234187958  0.234187958  0.076933543


 FORCES acting on ions
    electron-ion (+dipol)            ewald-force                    non-local-force                 convergence-correction
 -----------------------------------------------------------------------------------------------
   -.196E+00 0.662E-01 0.318E+00   0.186E+00 -.620E-01 -.317E+00   -.484E-02 0.283E-02 0.566E-02   0.563E-05 -.602E-05 0.154E-04
   0.125E+00 0.593E-01 0.840E+00   -.132E+00 -.543E-01 -.871E+00   0.210E-01 0.255E-02 0.725E-01   0.592E-05 -.607E-05 0.149E-04
   -.451E+00 -.267E+00 0.844E+00   0.498E+00 0.303E+00 -.876E+00   0.135E-01 -.150E-02 0.728E-01   0.616E-05 -.584E-05 0.149E-04
   -.461E+00 0.403E+00 0.836E+00   0.508E+00 -.430E+00 -.866E+00   0.125E-01 0.765E-02 0.722E-01   0.606E-05 -.616E-05 0.149E-04
   -.114E+00 0.662E-01 -.991E-01   0.107E+00 -.618E-01 0.985E-01   -.484E-02 0.287E-02 -.482E-02   0.349E-04 -.545E-05 -.220E-04
   -.114E+00 0.662E-01 -.997E-01   0.107E+00 -.618E-01 0.990E-01   -.483E-02 0.287E-02 -.474E-02   0.350E-04 -.550E-05 -.220E-04
   -.114E+00 0.662E-01 -.997E-01   0.107E+00 -.618E-01 0.990E-01   -.484E-02 0.287E-02 -.475E-02   0.350E-04 -.539E-05 -.220E-04
   -.114E+00 0.662E-01 -.997E-01   0.107E+00 -.619E-01 0.990E-01   -.484E-02 0.287E-02 -.474E-02   0.349E-04 -.532E-05 -.220E-04
   0.138E+00 -.776E-01 -.961E-01   -.131E+00 0.727E-01 0.967E-01   0.496E-02 -.302E-02 0.556E-02   0.111E-04 -.719E-05 -.104E-03
   0.902E-01 -.832E-01 -.114E+00   -.827E-01 0.784E-01 0.115E+00   0.498E-02 -.303E-02 0.535E-02   0.112E-04 -.722E-05 -.105E-03
   0.119E+00 -.391E-01 -.105E+00   -.112E+00 0.342E-01 0.106E+00   0.498E-02 -.305E-02 0.545E-02   0.111E-04 -.740E-05 -.104E-03
   0.111E+00 -.667E-01 -.760E-01   -.103E+00 0.619E-01 0.769E-01   0.491E-02 -.305E-02 0.438E-02   0.112E-04 -.729E-05 -.105E-03
   0.905E-01 -.493E-01 -.114E+00   -.831E-01 0.453E-01 0.115E+00   0.498E-02 -.270E-02 0.530E-02   0.109E-04 -.533E-05 0.111E-03
   0.138E+00 -.548E-01 -.961E-01   -.130E+00 0.511E-01 0.965E-01   0.496E-02 -.273E-02 0.546E-02   0.109E-04 -.533E-05 0.111E-03
   0.119E+00 -.928E-01 -.105E+00   -.112E+00 0.890E-01 0.105E+00   0.499E-02 -.269E-02 0.537E-02   0.109E-04 -.520E-05 0.111E-03
   0.110E+00 -.656E-01 -.765E-01   -.103E+00 0.617E-01 0.773E-01   0.487E-02 -.269E-02 0.432E-02   0.109E-04 -.523E-05 0.111E-03
   0.890E+00 -.622E-01 -.161E+01   -.100E+01 0.582E-01 0.165E+01   -.936E-01 -.251E-02 -.181E+00   -.424E-05 0.564E-05 0.303E-04
   -.915E-01 -.644E-01 0.380E+00   0.118E+00 0.613E-01 -.363E+00   0.236E-01 -.242E-02 -.226E-01   -.789E-05 0.568E-05 0.148E-04
   0.883E-01 0.394E-01 0.379E+00   -.868E-01 -.569E-01 -.363E+00   0.125E-01 -.876E-02 -.225E-01   -.555E-05 0.715E-05 0.148E-04
   0.888E-01 -.169E+00 0.380E+00   -.871E-01 0.180E+00 -.364E+00   0.124E-01 0.416E-02 -.227E-01   -.553E-05 0.434E-05 0.147E-04
   0.112E+00 -.648E-01 -.100E+00   -.107E+00 0.614E-01 0.997E-01   0.401E-02 -.241E-02 0.148E-02   -.350E-04 0.555E-05 -.217E-04
   0.112E+00 -.648E-01 -.990E-01   -.106E+00 0.614E-01 0.986E-01   0.401E-02 -.241E-02 0.118E-02   -.348E-04 0.555E-05 -.218E-04
   0.112E+00 -.648E-01 -.990E-01   -.106E+00 0.614E-01 0.986E-01   0.401E-02 -.240E-02 0.118E-02   -.348E-04 0.546E-05 -.218E-04
   0.112E+00 -.649E-01 -.990E-01   -.106E+00 0.615E-01 0.986E-01   0.401E-02 -.241E-02 0.118E-02   -.349E-04 0.554E-05 -.218E-04
   -.137E+00 0.822E-01 -.114E+00   0.131E+00 -.781E-01 0.114E+00   -.405E-02 0.248E-02 -.119E-02   -.112E-04 0.721E-05 -.105E-03
   -.886E-01 0.765E-01 -.961E-01   0.828E-01 -.724E-01 0.966E-01   -.446E-02 0.241E-02 -.749E-03   -.114E-04 0.708E-05 -.105E-03
   -.108E+00 0.372E-01 -.105E+00   0.102E+00 -.337E-01 0.106E+00   -.419E-02 0.280E-02 -.101E-02   -.112E-04 0.744E-05 -.105E-03
   -.117E+00 0.653E-01 -.765E-01   0.111E+00 -.614E-01 0.770E-01   -.438E-02 0.256E-02 -.118E-02   -.114E-04 0.730E-05 -.105E-03
   -.885E-01 0.532E-01 -.960E-01   0.833E-01 -.507E-01 0.964E-01   -.422E-02 0.237E-02 -.737E-03   -.104E-04 0.544E-05 0.111E-03
   -.136E+00 0.474E-01 -.114E+00   0.130E+00 -.449E-01 0.115E+00   -.382E-02 0.230E-02 -.132E-02   -.102E-04 0.523E-05 0.111E-03
   -.107E+00 0.919E-01 -.105E+00   0.102E+00 -.887E-01 0.106E+00   -.396E-02 0.198E-02 -.107E-02   -.101E-04 0.517E-05 0.111E-03
   -.116E+00 0.643E-01 -.770E-01   0.111E+00 -.615E-01 0.773E-01   -.416E-02 0.222E-02 -.126E-02   -.105E-04 0.526E-05 0.111E-03
 -----------------------------------------------------------------------------------------------
   -.288E-04 -.183E-04 0.699E-02   -.322E-13 0.318E-13 -.142E-13   0.395E-04 0.181E-04 -.702E-02   0.281E-05 -.894E-06 0.122E-04
 
 
 POSITION                                       TOTAL-FORCE (eV/Angst)
 -----------------------------------------------------------------------------------
      2.46402      0.00044      1.62478        -0.015000      0.007102      0.007133
      4.93046     -0.00052      1.62478         0.013175      0.007617      0.041382
      1.22997      2.13595      1.62478         0.060249      0.034242      0.040941
      3.69641      2.13499      1.62478         0.059632     -0.019665      0.041735
      2.46402      0.00044      8.12389        -0.012036      0.007289     -0.005483
      4.93046     -0.00052      8.12389        -0.012035      0.007290     -0.005455
      1.22997      2.13595      8.12389        -0.012035      0.007289     -0.005459
      3.69641      2.13499      8.12389        -0.012034      0.007288     -0.005449
     -1.23163      2.13412      4.87434         0.012409     -0.007974      0.006024
      1.23481      2.13316      4.87434         0.012618     -0.007878      0.006293
     -2.46568      4.26964      4.87434         0.012437     -0.008040      0.006153
      0.00076      4.26868      4.87434         0.012601     -0.007958      0.005179
     -1.23163      2.13412     11.37345         0.012515     -0.006697      0.006302
      1.23481      2.13316     11.37345         0.012327     -0.006496      0.005970
     -2.46568      4.26964     11.37345         0.012254     -0.006500      0.006121
      0.00076      4.26868     11.37345         0.012515     -0.006575      0.005166
      0.00022      1.42496      1.63413        -0.206983     -0.006572     -0.135769
      2.46311      1.42400      1.62478         0.051395     -0.005547     -0.006554
     -1.23737      3.56047      1.62478         0.014313     -0.026978     -0.006619
      1.22906      3.55952      1.62478         0.014422      0.015900     -0.006592
     -0.00332      1.42496      8.12389         0.009488     -0.005851      0.000971
      2.46311      1.42400      8.12389         0.009478     -0.005850      0.000722
     -1.23737      3.56047      8.12389         0.009482     -0.005848      0.000722
      1.22906      3.55952      8.12389         0.009482     -0.005854      0.000723
      1.23571      0.70960      4.87434        -0.010667      0.006630     -0.000427
      3.70215      0.70864      4.87434        -0.010286      0.006593     -0.000346
      0.00166      2.84512      4.87434        -0.010439      0.006295     -0.000421
      2.46810      2.84416      4.87434        -0.010512      0.006488     -0.000862
      1.23571      0.70960     11.37345        -0.009485      0.004973     -0.000290
      3.70215      0.70864     11.37345        -0.009872      0.004927     -0.000498
      0.00166      2.84512     11.37345        -0.009633      0.005280     -0.000433
      2.46810      2.84416     11.37345        -0.009774      0.005081     -0.000881
 -----------------------------------------------------------------------------------
    total drift:                                0.000014     -0.000001     -0.000014


--------------------------------------------------------------------------------------------------------



  FREE ENERGIE OF THE ION-ELECTRON SYSTEM (eV)
  ---------------------------------------------------
  free  energy   TOTEN  =      -299.80011091 eV

  energy  without entropy=     -299.80011091  energy(sigma->0) =     -299.80011091
 


--------------------------------------------------------------------------------------------------------


    POTLOK:  cpu time    1.31: real time    2.61


--------------------------------------------------------------------------------------------------------


     LOOP+:  cpu time17431.02: real time31141.68
    4ORBIT:  cpu time    0.00: real time    0.00
 BZINTS: Fermi energy:  4.949262;128.000000 electrons
         Band energy:-529.851417;  BLOECHL correction:  0.000000

 total amount of memory used by VASP on root node   393471. kBytes
========================================================================

   base      :      30000. kBytes
   nonl-proj :      75962. kBytes
   fftplans  :      13581. kBytes
   grid      :      28889. kBytes
   one-center:         98. kBytes
   wavefun   :     244941. kBytes
 
  
  
 General timing and accounting informations for this job:
 ========================================================
  
                  Total CPU time used (sec):    17584.934
                            User time (sec):     8496.787
                          System time (sec):     9088.145
                         Elapsed time (sec):    31373.583
  
                   Maximum memory used (kb):      484836.
                   Average memory used (kb):           0.
  
                          Minor page faults:     85046872
                          Major page faults:            0
                 Voluntary context switches:         1243
