32   
4    

1    
  0.0044198721635772   0.0000000027938039   0.0089702134900808
   0.0313197300   -0.0017672600   -0.1069271600
   0.0176842700   -0.0001087100    0.0033808700
   0.0278244500    0.0057612400    0.0033338100
   0.0279595200   -0.0060239900    0.0034289800
  -0.0009287200   -0.0000143700   -0.0000477700
  -0.0007916000   -0.0000193200    0.0009572800
  -0.0008650500   -0.0000560700    0.0009562700
  -0.0008724000    0.0000324000    0.0009580100
   0.0029503200    0.0000040500    0.0041857200
   0.0010752000   -0.0004695000    0.0005830000
   0.0017428800    0.0003978000    0.0007689000
   0.0009158300    0.0001044600    0.0003714200
   0.0028735900    0.0000032300    0.0042497400
   0.0010605000    0.0004769500    0.0005455200
   0.0008976400   -0.0000807800    0.0003536300
   0.0017119300   -0.0003629200    0.0007634600
  -0.0204672500    0.0005548200    0.0178808900
  -0.0063718800    0.0000682400    0.0062710500
  -0.0409107900    0.0120109100    0.0181171700
  -0.0390216700   -0.0105085900    0.0176607100
   0.0008771000    0.0000094400    0.0000904900
   0.0009489300    0.0000082300    0.0000223100
   0.0008998100   -0.0000047900    0.0000893700
   0.0008963500    0.0000189500    0.0000914400
  -0.0030672100   -0.0016092900    0.0035322000
  -0.0006034100    0.0001631000    0.0038354600
  -0.0017974600   -0.0000011500   -0.0000401900
  -0.0002995800    0.0014296600    0.0036798000
  -0.0006160600   -0.0002049100    0.0037825100
  -0.0029697100    0.0015380900    0.0035030600
  -0.0017722300    0.0000003200   -0.0000239500
  -0.0002830200   -0.0013502700    0.0036460300

1    
 -0.0044198721635772  -0.0000000027938039  -0.0089702134900808
  -0.0313789600   -0.0017649900    0.1069106800
  -0.0176003300   -0.0001087300   -0.0033834200
  -0.0279021800   -0.0060384900   -0.0034318400
  -0.0277675800    0.0057764000   -0.0033371300
   0.0010009100   -0.0000144900    0.0000471700
   0.0008629600   -0.0000193900   -0.0009567900
   0.0009432400    0.0000327800   -0.0009576700
   0.0009361200   -0.0000566100   -0.0009559600
  -0.0029475400    0.0000042800   -0.0042496100
  -0.0011341300    0.0004790000   -0.0005463700
  -0.0017864800   -0.0003639500   -0.0007646300
  -0.0009710600   -0.0000811100   -0.0003540700
  -0.0030242700    0.0000033800   -0.0041856900
  -0.0011489400   -0.0004710800   -0.0005838000
  -0.0009893400    0.0001055300   -0.0003719100
  -0.0018178000    0.0003994700   -0.0007701500
   0.0204471700    0.0005542700   -0.0178740900
   0.0063300400    0.0000681500   -0.0062680000
   0.0390350200   -0.0105285600   -0.0176528100
   0.0409197200    0.0120273800   -0.0181096200
  -0.0009235700    0.0000095300   -0.0000905400
  -0.0009976600    0.0000084600   -0.0000227500
  -0.0009434500    0.0000197400   -0.0000916000
  -0.0009465700   -0.0000052700   -0.0000893700
   0.0030222000    0.0015421100   -0.0035017800
   0.0006631200   -0.0002039900   -0.0037818400
   0.0018225100   -0.0000015100    0.0000235600
   0.0003311000   -0.0013553100   -0.0036451500
   0.0006503000    0.0001619700   -0.0038345100
   0.0031200600   -0.0016138000   -0.0035310900
   0.0018479600    0.0000002800    0.0000397300
   0.0003473900    0.0014345000   -0.0036789300

17   
  0.0044198721635772   0.0000000027938039   0.0089702134900808
  -0.0220049600   -0.0005902700    0.0174469100
  -0.0065328200   -0.0001164600    0.0060802500
  -0.0425000600    0.0115925200    0.0172276400
  -0.0443622300   -0.0131506700    0.0176810600
   0.0009797400   -0.0000124100    0.0001084900
   0.0010483700   -0.0000118300    0.0000449200
   0.0009994700   -0.0000260400    0.0001059100
   0.0009965600   -0.0000062800    0.0001115500
  -0.0003517400    0.0003958700    0.0036365500
  -0.0019157400    0.0000028000   -0.0000314600
  -0.0016255900    0.0007495100    0.0042899700
  -0.0023277500   -0.0011295900    0.0029329800
  -0.0003638200   -0.0003775100    0.0035583900
  -0.0019345800    0.0000038100   -0.0000120400
  -0.0022536000    0.0010985200    0.0029249800
  -0.0016147600   -0.0007090800    0.0042406800
   0.0388952300    0.0018329600   -0.1138169900
   0.0202493200    0.0000981400    0.0034505000
   0.0278996800    0.0045433100    0.0034947500
   0.0277886400   -0.0042269100    0.0034082600
  -0.0009622200    0.0000078800    0.0006498000
  -0.0007972900    0.0000056100    0.0001086100
  -0.0009112800   -0.0000572200    0.0001082300
  -0.0009111500    0.0000766900    0.0001097100
   0.0010872000   -0.0001977000    0.0032524900
   0.0010660500    0.0001722900    0.0032505300
   0.0007522600    0.0000107700    0.0032503500
   0.0033720300    0.0000161100    0.0013707500
   0.0010690400   -0.0002142400    0.0031990800
   0.0011222400    0.0002361200    0.0032392300
   0.0007097100   -0.0000327100    0.0032197500
   0.0033340800    0.0000159900    0.0013582000

17   
 -0.0044198721635772  -0.0000000027938039  -0.0089702134900808
   0.0220512100   -0.0005911300   -0.0174546500
   0.0065994500   -0.0001165600   -0.0060832800
   0.0443772500   -0.0131349500   -0.0176892100
   0.0425109100    0.0115736700   -0.0172359900
  -0.0009049800   -0.0000120000   -0.0001086100
  -0.0009681600   -0.0000116500   -0.0000444800
  -0.0009194900   -0.0000065600   -0.0001111300
  -0.0009226800   -0.0000251700   -0.0001054900
   0.0002876900   -0.0003754100   -0.0035594000
   0.0018552000    0.0000021500    0.0000121600
   0.0015364300   -0.0007063100   -0.0042401900
   0.0021711700    0.0010991000   -0.0029275900
   0.0002756500    0.0003946000   -0.0036375900
   0.0018365700    0.0000041100    0.0000317200
   0.0022457400   -0.0011312500   -0.0029358600
   0.0015467100    0.0007464200   -0.0042891800
  -0.0388044800    0.0018361300    0.1138376500
  -0.0203095900    0.0000981900   -0.0034472700
  -0.0278235800   -0.0042089300   -0.0034042200
  -0.0279345000    0.0045254500   -0.0034907000
   0.0009070200    0.0000075800   -0.0006493900
   0.0007449200    0.0000053100   -0.0001091500
   0.0008587400    0.0000749600   -0.0001095400
   0.0008587400   -0.0000556800   -0.0001081000
  -0.0010709700    0.0002359600   -0.0032398100
  -0.0010133500   -0.0002172300   -0.0031994100
  -0.0006537200   -0.0000336800   -0.0032201700
  -0.0032785900    0.0000158700   -0.0013569300
  -0.0010113600    0.0001758800   -0.0032504700
  -0.0010352900   -0.0001967500   -0.0032531400
  -0.0006961200    0.0000116400   -0.0032509100
  -0.0033165400    0.0000162300   -0.0013697100
