   32   32    1    1
  0.7976710E+01  0.4934311E-09  0.4934311E-09  0.1210634E-08  0.5000000E-15
  1.000000000000000E-004
  CAR 
 graphite                                
    128    163     84
 
  0.0000000E+00  0.0000000E+00  0.0000000E+00  0.3086420E-02
    1      -14.152107
    2      -13.854879
    3      -13.854050
    4      -13.515927
    5       -8.752735
    6       -8.750774
    7       -8.749005
    8       -8.608186
    9       -8.604004
   10       -8.603593
   11       -8.603096
   12       -8.602963
   13       -8.598834
   14       -8.511719
   15       -8.509039
   16       -8.505890
   17       -7.600918
   18       -7.598715
   19       -7.596653
   20       -7.559679
   21       -7.557194
   22       -7.556196
   23       -7.555719
   24       -7.555507
   25       -7.552335
   26       -7.423787
   27       -7.422409
   28       -7.421514
   29       -3.380372
   30       -1.959471
   31       -1.956925
   32       -0.791855
   33       -0.789265
   34       -0.788194
   35       -0.722786
   36       -0.720101
   37       -0.720077
   38       -0.718718
   39       -0.716939
   40       -0.715557
   41       -0.648955
   42       -0.646388
   43       -0.645209
   44       -0.167845
   45        2.511539
   46        2.512782
   47        2.514127
   48        2.628636
   49        2.632677
   50        2.653043
   51        2.655249
   52        2.660035
   53        2.662243
   54        2.682298
   55        2.686329
   56        3.268818
   57        3.274005
   58        3.274411
   59        3.274618
   60        3.275241
   61        3.280170
   62        3.622877
   63        3.625461
   64        3.627909
   65        7.256891
   66        7.262566
   67        7.264290
   68        7.264652
   69        7.264974
   70        7.268895
   71        7.285327
   72        7.287118
   73        7.290454
   74        8.164219
   75        8.165976
   76        8.167091
   77       11.035001
   78       12.622061
   79       12.626104
   80       12.629203
   81       13.005355
   82       13.010637
   83       13.010931
   84       13.013329
 
  0.1111111E+00 -0.1387779E-16  0.0000000E+00  0.6172840E-02
    1      -14.077880
    2      -13.781773
    3      -13.780946
    4      -13.444125
    5       -9.580640
    6       -9.358353
    7       -9.357681
    8       -9.117232
    9       -9.023359
   10       -9.020955
   11       -8.828091
   12       -8.825426
   13       -8.824679
   14       -8.822884
   15       -8.630236
   16       -8.627107
   17       -7.361540
   18       -7.359783
   19       -7.216076
   20       -7.215406
   21       -7.214404
   22       -7.212096
   23       -7.030572
   24       -7.028989
   25       -6.869458
   26       -6.694937
   27       -6.692810
   28       -6.497241
   29       -3.290100
   30       -1.873042
   31       -1.870498
   32       -1.022359
   33       -1.019492
   34       -0.946519
   35       -0.944421
   36       -0.942015
   37       -0.941340
   38       -0.865696
   39       -0.862890
   40       -0.716806
   41       -0.647918
   42       -0.645074
   43       -0.574655
   44       -0.086500
   45        1.869555
   46        2.321800
   47        2.354206
   48        2.360129
   49        2.376189
   50        2.377687
   51        2.392638
   52        2.470359
   53        2.499991
   54        2.505810
   55        2.535971
   56        2.849227
   57        2.852794
   58        3.217658
   59        3.222701
   60        3.223443
   61        3.224861
   62        3.710405
   63        3.748743
   64        3.751931
   65        7.288841
   66        7.291154
   67        7.392360
   68        7.394174
   69        7.395450
   70        7.400450
   71        7.428608
   72        7.798651
   73        7.803471
   74        8.301837
   75        8.303671
   76        8.804536
   77       11.117862
   78       12.668899
   79       12.960035
   80       12.965673
   81       13.050495
   82       13.052056
   83       13.343017
   84       13.350141
 
  0.2222222E+00 -0.1387779E-16  0.0000000E+00  0.6172840E-02
    1      -13.855558
    2      -13.562703
    3      -13.561884
    4      -13.229333
    5      -10.602698
    6      -10.358531
    7      -10.357828
    8      -10.088260
    9       -9.381652
   10       -9.379568
   11       -9.163934
   12       -9.161865
   13       -9.161304
   14       -9.159550
   15       -8.926383
   16       -8.924009
   17       -6.697320
   18       -6.695617
   19       -6.527209
   20       -6.526596
   21       -6.525402
   22       -6.523320
   23       -6.336113
   24       -6.334270
   25       -5.542103
   26       -5.373970
   27       -5.371943
   28       -5.190693
   29       -3.020751
   30       -1.638711
   31       -1.636076
   32       -1.614533
   33       -1.611999
   34       -1.548072
   35       -1.546054
   36       -1.543947
   37       -1.543092
   38       -1.450316
   39       -1.447716
   40       -0.501228
   41       -0.433560
   42       -0.430625
   43       -0.361632
   44        0.156115
   45        0.802923
   46        1.483008
   47        1.535474
   48        1.540453
   49        1.593501
   50        1.964374
   51        1.967350
   52        2.043382
   53        2.084530
   54        2.089024
   55        2.122535
   56        2.123880
   57        2.133480
   58        3.096719
   59        3.101651
   60        3.102308
   61        3.103886
   62        3.282395
   63        3.961115
   64        3.964138
   65        7.384776
   66        7.386994
   67        7.725336
   68        7.727078
   69        7.728338
   70        7.733340
   71        8.372942
   72        8.585061
   73        8.587586
   74        9.016038
   75        9.020120
   76       10.007701
   77       11.367673
   78       12.796890
   79       13.167689
   80       13.169369
   81       13.537377
   82       13.890636
   83       13.906839
   84       13.956521
 
  0.3333333E+00 -0.2775558E-16  0.0000000E+00  0.6172840E-02
    1      -13.486342
    2      -13.198866
    3      -13.198059
    4      -12.872586
    5      -11.523123
    6      -11.264431
    7      -11.263688
    8      -10.975430
    9       -9.642938
   10       -9.641021
   11       -9.416596
   12       -9.414701
   13       -9.414344
   14       -9.412538
   15       -9.166941
   16       -9.164856
   17       -5.884145
   18       -5.882212
   19       -5.724302
   20       -5.723649
   21       -5.722440
   22       -5.720024
   23       -5.550638
   24       -5.548542
   25       -4.098045
   26       -3.949664
   27       -3.947387
   28       -3.788862
   29       -2.574547
   30       -2.462029
   31       -2.459744
   32       -2.359344
   33       -2.357063
   34       -2.355703
   35       -2.354542
   36       -2.245582
   37       -2.243282
   38       -1.187416
   39       -1.184913
   40       -0.242864
   41       -0.151426
   42       -0.085788
   43       -0.082668
   44       -0.015949
   45        0.282798
   46        0.359987
   47        0.364035
   48        0.441949
   49        0.555331
   50        1.016031
   51        1.018750
   52        1.474987
   53        1.525617
   54        1.530108
   55        1.581701
   56        1.907946
   57        1.910062
   58        2.538621
   59        2.972956
   60        2.977756
   61        2.978353
   62        2.980095
   63        4.102962
   64        4.105885
   65        7.615881
   66        7.618172
   67        8.114379
   68        8.116184
   69        8.117257
   70        8.122511
   71        8.832575
   72        8.835538
   73        9.839799
   74       10.486173
   75       10.489977
   76       11.367184
   77       11.784362
   78       12.991592
   79       13.353061
   80       13.355097
   81       13.601505
   82       13.819570
   83       13.867831
   84       13.872438
 
  0.4444444E+00 -0.2775558E-16  0.0000000E+00  0.6172840E-02
    1      -12.972059
    2      -12.692090
    3      -12.691297
    4      -12.375634
    5      -12.315842
    6      -12.045508
    7      -12.044740
    8      -11.741456
    9       -9.777119
   10       -9.775276
   11       -9.547604
   12       -9.545719
   13       -9.545550
   14       -9.543669
   15       -9.293623
   16       -9.291646
   17       -5.114078
   18       -5.111988
   19       -4.994136
   20       -4.993298
   21       -4.992885
   22       -4.989025
   23       -4.875086
   24       -4.872712
   25       -3.195932
   26       -3.194143
   27       -3.118795
   28       -3.115708
   29       -3.115322
   30       -3.113887
   31       -3.015209
   32       -3.013465
   33       -2.604683
   34       -2.479202
   35       -2.476515
   36       -2.343641
   37       -1.955983
   38       -1.173889
   39       -1.118204
   40       -1.019575
   41       -1.016431
   42       -0.907981
   43       -0.593621
   44       -0.590855
   45        0.145702
   46        0.148337
   47        0.316215
   48        0.378764
   49        0.382157
   50        0.445777
   51        0.874020
   52        0.931794
   53        0.935826
   54        0.994541
   55        1.101695
   56        1.776308
   57        1.790661
   58        1.792718
   59        2.898505
   60        2.903239
   61        2.903809
   62        2.905618
   63        4.160212
   64        4.163096
   65        7.837990
   66        7.840521
   67        8.379483
   68        8.381409
   69        8.382160
   70        8.387718
   71        8.947497
   72        8.950743
   73       11.480202
   74       12.011648
   75       12.015843
   76       12.358880
   77       12.760484
   78       13.013096
   79       13.112764
   80       13.356125
   81       13.368245
   82       13.373701
   83       13.580856
   84       13.595489
 
 -0.8470329E-21  0.1111111E+00  0.0000000E+00  0.6172840E-02
    1      -14.077878
    2      -13.781771
    3      -13.780944
    4      -13.444123
    5       -9.580738
    6       -9.358485
    7       -9.357836
    8       -9.117455
    9       -9.023465
   10       -9.020516
   11       -8.827807
   12       -8.825449
   13       -8.824703
   14       -8.822258
   15       -8.629797
   16       -8.626990
   17       -7.362717
   18       -7.360158
   19       -7.218424
   20       -7.215944
   21       -7.214411
   22       -7.211926
   23       -7.031922
   24       -7.028876
   25       -6.868293
   26       -6.693067
   27       -6.692528
   28       -6.496214
   29       -3.290105
   30       -1.873048
   31       -1.870504
   32       -1.020788
   33       -1.019710
   34       -0.944539
   35       -0.944333
   36       -0.941485
   37       -0.941269
   38       -0.864157
   39       -0.863094
   40       -0.718082
   41       -0.647985
   42       -0.647721
   43       -0.576099
   44       -0.086508
   45        1.868830
   46        2.325234
   47        2.359299
   48        2.360136
   49        2.376143
   50        2.378700
   51        2.394733
   52        2.468335
   53        2.499982
   54        2.500612
   55        2.532434
   56        2.848565
   57        2.851322
   58        3.218867
   59        3.222671
   60        3.223024
   61        3.226853
   62        3.708795
   63        3.749419
   64        3.752892
   65        7.287301
   66        7.290311
   67        7.389842
   68        7.393458
   69        7.395523
   70        7.398974
   71        7.431176
   72        7.801549
   73        7.804415
   74        8.300093
   75        8.303234
   76        8.806243
   77       11.117850
   78       12.668194
   79       12.961470
   80       12.964941
   81       13.050118
   82       13.051093
   83       13.345380
   84       13.347424
 
  0.1111111E+00  0.1111111E+00  0.0000000E+00  0.6172840E-02
    1      -13.929594
    2      -13.635663
    3      -13.634841
    4      -13.300841
    5      -10.051215
    6      -10.047946
    7       -9.818512
    8       -9.815201
    9       -9.815161
   10       -9.811816
   11       -9.559781
   12       -9.556380
   13       -8.561489
   14       -8.417657
   15       -8.415977
   16       -8.323249
   17       -7.413124
   18       -7.374697
   19       -7.371078
   20       -7.244802
   21       -6.187984
   22       -6.184412
   23       -6.015800
   24       -6.011323
   25       -6.011279
   26       -6.008632
   27       -5.823524
   28       -5.819920
   29       -3.110288
   30       -1.712614
   31       -1.700529
   32       -1.697992
   33       -1.620831
   34       -1.618271
   35       -1.522498
   36       -0.876400
   37       -0.873619
   38       -0.801008
   39       -0.799426
   40       -0.799401
   41       -0.795161
   42       -0.721987
   43       -0.718913
   44        0.075499
   45        1.407222
   46        1.409661
   47        1.789270
   48        1.823394
   49        1.828929
   50        1.857394
   51        2.163470
   52        2.185803
   53        2.191459
   54        2.220358
   55        2.490776
   56        2.493548
   57        2.493657
   58        2.498025
   59        2.776831
   60        3.535597
   61        3.539672
   62        3.624788
   63        3.627707
   64        3.877035
   65        7.189420
   66        7.194658
   67        7.299920
   68        7.792274
   69        7.795630
   70        7.910976
   71        8.337514
   72        8.342821
   73        8.343192
   74        8.345215
   75        9.317289
   76        9.320048
   77       11.284607
   78       13.046369
   79       13.050663
   80       13.420663
   81       13.424875
   82       13.424970
   83       13.429931
   84       13.823142
 
  0.2222222E+00  0.1111111E+00  0.0000000E+00  0.6172840E-02
    1      -13.633834
    2      -13.344186
    3      -13.343374
    4      -13.015015
    5      -11.025052
    6      -10.774163
    7      -10.773439
    8      -10.495192
    9      -10.394393
   10      -10.153757
   11      -10.153062
   12       -9.887659
   13       -8.633474
   14       -8.443819
   15       -8.442787
   16       -8.253735
   17       -7.009537
   18       -6.873951
   19       -6.871009
   20       -6.700549
   21       -5.396335
   22       -5.234212
   23       -5.233634
   24       -5.059693
   25       -4.796595
   26       -4.639568
   27       -4.637551
   28       -4.469167
   29       -2.752415
   30       -2.629289
   31       -2.521510
   32       -2.519014
   33       -2.403662
   34       -1.411077
   35       -1.357608
   36       -1.355096
   37       -1.322277
   38       -1.321787
   39       -1.228833
   40       -0.586708
   41       -0.514115
   42       -0.511262
   43       -0.436544
   44        0.332950
   45        0.396594
   46        0.823600
   47        0.877804
   48        0.883318
   49        0.934446
   50        1.055828
   51        1.546810
   52        1.549564
   53        1.608740
   54        1.645246
   55        1.651140
   56        1.692267
   57        2.206722
   58        2.209348
   59        2.892684
   60        2.982301
   61        3.514954
   62        3.736562
   63        3.740449
   64        4.259135
   65        7.179788
   66        7.197514
   67        7.203048
   68        7.825883
   69        8.306903
   70        8.909350
   71        8.912189
   72        9.050837
   73        9.703578
   74        9.707289
   75        9.746011
   76       10.603937
   77       11.620017
   78       13.212732
   79       13.576537
   80       13.578197
   81       13.899960
   82       14.016155
   83       14.120116
   84       14.122348
 
  0.3333333E+00  0.1111111E+00  0.0000000E+00  0.6172840E-02
    1      -13.192070
    2      -12.908859
    3      -12.908060
    4      -12.588173
    5      -11.882299
    6      -11.618282
    7      -11.617528
    8      -11.322534
    9      -10.604363
   10      -10.360034
   11      -10.359328
   12      -10.089381
   13       -8.787115
   14       -8.579048
   15       -8.578356
   16       -8.354904
   17       -6.253454
   18       -6.107563
   19       -6.104810
   20       -5.947112
   21       -4.582927
   22       -4.446449
   23       -4.445260
   24       -4.303116
   25       -3.564094
   26       -3.457581
   27       -3.454871
   28       -3.335205
   29       -3.332156
   30       -3.199924
   31       -3.197666
   32       -3.054565
   33       -2.219850
   34       -2.112238
   35       -2.021431
   36       -2.020102
   37       -1.919139
   38       -0.850219
   39       -0.847856
   40       -0.660594
   41       -0.439096
   42       -0.354114
   43       -0.349797
   44       -0.268335
   45       -0.168343
   46       -0.099401
   47       -0.096420
   48       -0.025315
   49        0.628475
   50        0.631109
   51        0.836734
   52        0.870006
   53        0.973398
   54        1.025668
   55        1.030709
   56        1.085855
   57        2.024385
   58        2.027022
   59        2.207780
   60        2.862969
   61        3.425718
   62        3.825623
   63        3.829078
   64        4.701195
   65        6.944246
   66        7.315704
   67        7.320133
   68        7.933770
   69        8.799941
   70        9.362320
   71        9.365338
   72        9.989348
   73       10.614145
   74       11.200810
   75       11.204382
   76       11.966301
   77       12.121862
   78       13.368075
   79       13.663364
   80       13.770216
   81       13.784866
   82       13.786877
   83       13.855627
   84       13.860932
 
  0.4444444E+00  0.1111111E+00  0.0000000E+00  0.6172840E-02
    1      -12.608446
    2      -12.605371
    3      -12.335006
    4      -12.331862
    5      -12.331741
    6      -12.328689
    7      -12.024259
    8      -12.021075
    9      -10.674644
   10      -10.429410
   11      -10.428700
   12      -10.157211
   13       -8.844915
   14       -8.633228
   15       -8.632598
   16       -8.403229
   17       -5.724055
   18       -5.623895
   19       -5.621361
   20       -5.533396
   21       -4.077880
   22       -4.041572
   23       -3.996502
   24       -3.993746
   25       -3.992413
   26       -3.989096
   27       -3.914861
   28       -3.910828
   29       -2.504185
   30       -2.458996
   31       -2.455596
   32       -2.383351
   33       -1.860759
   34       -1.857285
   35       -1.752898
   36       -1.746686
   37       -1.746585
   38       -1.746232
   39       -1.632949
   40       -1.629791
   41       -1.519953
   42       -1.517439
   43       -0.182230
   44       -0.179278
   45       -0.179053
   46       -0.174988
   47        0.359847
   48        0.364468
   49        0.423580
   50        0.425213
   51        0.425278
   52        0.433985
   53        0.490923
   54        0.497011
   55        0.762858
   56        1.481137
   57        1.484153
   58        1.961779
   59        1.964456
   60        2.840422
   61        3.392030
   62        3.847780
   63        3.850811
   64        4.900450
   65        6.831168
   66        7.382229
   67        7.385825
   68        7.987594
   69        9.022790
   70        9.539721
   71        9.543097
   72       10.047833
   73       12.236385
   74       12.240399
   75       12.673305
   76       12.681261
   77       12.682483
   78       12.683521
   79       12.774624
   80       12.778094
   81       13.318779
   82       13.322170
   83       13.756593
   84       13.759835
 
 -0.4444444E+00  0.1111111E+00  0.0000000E+00  0.6172840E-02
    1      -13.192155
    2      -12.908946
    3      -12.908148
    4      -12.588257
    5      -11.882161
    6      -11.618145
    7      -11.617390
    8      -11.322395
    9      -10.604572
   10      -10.360244
   11      -10.359537
   12      -10.089592
   13       -8.786760
   14       -8.578616
   15       -8.578009
   16       -8.354460
   17       -6.252894
   18       -6.106063
   19       -6.105168
   20       -5.946565
   21       -4.583945
   22       -4.448218
   23       -4.445389
   24       -4.303977
   25       -3.565083
   26       -3.457733
   27       -3.456847
   28       -3.335760
   29       -3.333046
   30       -3.200452
   31       -3.197806
   32       -3.054899
   33       -2.219951
   34       -2.111036
   35       -2.021125
   36       -2.017809
   37       -1.917775
   38       -0.850315
   39       -0.847958
   40       -0.660441
   41       -0.438732
   42       -0.353087
   43       -0.350287
   44       -0.268143
   45       -0.167997
   46       -0.099304
   47       -0.095807
   48       -0.024951
   49        0.628613
   50        0.631277
   51        0.836433
   52        0.869953
   53        0.973178
   54        1.026187
   55        1.029518
   56        1.085337
   57        2.024048
   58        2.026813
   59        2.207895
   60        2.863279
   61        3.425302
   62        3.826474
   63        3.829289
   64        4.702412
   65        6.943550
   66        7.316333
   67        7.319371
   68        7.933668
   69        8.799621
   70        9.361648
   71        9.365418
   72        9.989386
   73       10.614060
   74       11.200454
   75       11.204404
   76       11.966081
   77       12.121708
   78       13.368004
   79       13.663403
   80       13.770178
   81       13.784295
   82       13.787052
   83       13.856145
   84       13.864353
 
 -0.3333333E+00  0.1111111E+00  0.0000000E+00  0.6172840E-02
    1      -13.633895
    2      -13.344246
    3      -13.343435
    4      -13.015074
    5      -11.024885
    6      -10.773992
    7      -10.773267
    8      -10.494995
    9      -10.394846
   10      -10.154191
   11      -10.153497
   12       -9.888096
   13       -8.632673
   14       -8.442666
   15       -8.442122
   16       -8.252653
   17       -7.009387
   18       -6.872439
   19       -6.871963
   20       -6.700200
   21       -5.397298
   22       -5.236009
   23       -5.233701
   24       -5.060577
   25       -4.796927
   26       -4.640001
   27       -4.637765
   28       -4.469488
   29       -2.752488
   30       -2.630634
   31       -2.521829
   32       -2.521457
   33       -2.405068
   34       -1.409498
   35       -1.357680
   36       -1.355166
   37       -1.321867
   38       -1.318936
   39       -1.227161
   40       -0.586468
   41       -0.513989
   42       -0.510905
   43       -0.436302
   44        0.333122
   45        0.396518
   46        0.824001
   47        0.879428
   48        0.881879
   49        0.934262
   50        1.055369
   51        1.546955
   52        1.549737
   53        1.608996
   54        1.646723
   55        1.649394
   56        1.691650
   57        2.206020
   58        2.208923
   59        2.893233
   60        2.982446
   61        3.514109
   62        3.738082
   63        3.740899
   64        4.260924
   65        7.179312
   66        7.198511
   67        7.201412
   68        7.825715
   69        8.306613
   70        8.908306
   71        8.912411
   72        9.050717
   73        9.703272
   74        9.707276
   75        9.745873
   76       10.603690
   77       11.619902
   78       13.212550
   79       13.576169
   80       13.578265
   81       13.899946
   82       14.022238
   83       14.121680
   84       14.124635
 
 -0.2222222E+00  0.1111111E+00  0.0000000E+00  0.6172840E-02
    1      -13.929630
    2      -13.635699
    3      -13.634877
    4      -13.300876
    5      -10.050187
    6      -10.049374
    7       -9.816241
    8       -9.815567
    9       -9.815254
   10       -9.814577
   11       -9.558799
   12       -9.557915
   13       -8.560058
   14       -8.415439
   15       -8.415065
   16       -8.321627
   17       -7.413272
   18       -7.373326
   19       -7.373079
   20       -7.245054
   21       -6.186944
   22       -6.186390
   23       -6.013644
   24       -6.013007
   25       -6.011568
   26       -6.010857
   27       -5.822534
   28       -5.821991
   29       -3.110332
   30       -1.714137
   31       -1.700572
   32       -1.698035
   33       -1.621259
   34       -1.620959
   35       -1.524087
   36       -0.874133
   37       -0.873952
   38       -0.799341
   39       -0.799119
   40       -0.796479
   41       -0.796275
   42       -0.719618
   43       -0.719463
   44        0.075454
   45        1.407474
   46        1.408914
   47        1.789491
   48        1.825639
   49        1.825846
   50        1.856495
   51        2.164482
   52        2.188952
   53        2.189117
   54        2.219922
   55        2.490493
   56        2.493603
   57        2.493701
   58        2.496833
   59        2.777596
   60        3.537403
   61        3.540289
   62        3.624334
   63        3.627023
   64        3.878982
   65        7.190445
   66        7.193450
   67        7.299151
   68        7.792810
   69        7.795022
   70        7.910760
   71        8.338164
   72        8.341202
   73        8.342689
   74        8.345606
   75        9.317607
   76        9.319360
   77       11.284534
   78       13.048818
   79       13.051858
   80       13.424535
   81       13.426251
   82       13.427448
   83       13.429358
   84       13.827103
 
 -0.1111111E+00  0.1111111E+00  0.0000000E+00  0.6172840E-02
    1      -14.077890
    2      -13.781783
    3      -13.780956
    4      -13.444135
    5       -9.581612
    6       -9.359415
    7       -9.358710
    8       -9.118386
    9       -9.022400
   10       -9.020240
   11       -8.826649
   12       -8.824625
   13       -8.824502
   14       -8.821603
   15       -8.629092
   16       -8.626155
   17       -7.362688
   18       -7.360333
   19       -7.217946
   20       -7.214683
   21       -7.214549
   22       -7.213754
   23       -7.031403
   24       -7.029504
   25       -6.868763
   26       -6.694412
   27       -6.692140
   28       -6.496689
   29       -3.290120
   30       -1.873063
   31       -1.870518
   32       -1.022310
   33       -1.019804
   34       -0.945676
   35       -0.944411
   36       -0.944383
   37       -0.940365
   38       -0.865808
   39       -0.863009
   40       -0.716432
   41       -0.647514
   42       -0.644761
   43       -0.574329
   44       -0.086524
   45        1.867998
   46        2.324277
   47        2.356648
   48        2.361795
   49        2.376812
   50        2.378899
   51        2.395062
   52        2.468053
   53        2.498100
   54        2.503504
   55        2.533422
   56        2.847166
   57        2.850595
   58        3.220783
   59        3.222359
   60        3.222900
   61        3.227977
   62        3.707222
   63        3.750575
   64        3.753514
   65        7.286759
   66        7.290461
   67        7.389354
   68        7.395215
   69        7.395684
   70        7.397452
   71        7.431296
   72        7.800389
   73        7.805205
   74        8.300213
   75        8.302837
   76        8.806198
   77       11.117825
   78       12.672011
   79       12.959204
   80       12.963319
   81       13.053517
   82       13.055169
   83       13.342145
   84       13.346812
 
 -0.3388132E-20  0.2222222E+00  0.0000000E+00  0.6172840E-02
    1      -13.855551
    2      -13.562695
    3      -13.561876
    4      -13.229325
    5      -10.602676
    6      -10.358516
    7      -10.357815
    8      -10.088259
    9       -9.382110
   10       -9.379044
   11       -9.164621
   12       -9.161889
   13       -9.161328
   14       -9.158543
   15       -8.926618
   16       -8.923558
   17       -6.698723
   18       -6.695529
   19       -6.529786
   20       -6.527074
   21       -6.525396
   22       -6.522677
   23       -6.337474
   24       -6.334038
   25       -5.541078
   26       -5.372207
   27       -5.371696
   28       -5.189696
   29       -3.020769
   30       -1.637553
   31       -1.635826
   32       -1.614556
   33       -1.612023
   34       -1.546615
   35       -1.546027
   36       -1.543154
   37       -1.542562
   38       -1.449181
   39       -1.447428
   40       -0.502582
   41       -0.433648
   42       -0.433408
   43       -0.363158
   44        0.156082
   45        0.802488
   46        1.485746
   47        1.540250
   48        1.540515
   49        1.595682
   50        1.963925
   51        1.966551
   52        2.041145
   53        2.083998
   54        2.084547
   55        2.122102
   56        2.124926
   57        2.130753
   58        3.097610
   59        3.101624
   60        3.101924
   61        3.105915
   62        3.281371
   63        3.961802
   64        3.965111
   65        7.383184
   66        7.386303
   67        7.722477
   68        7.726524
   69        7.728315
   70        7.732234
   71        8.374856
   72        8.583088
   73        8.587136
   74        9.018152
   75        9.020916
   76       10.009039
   77       11.367635
   78       12.796144
   79       13.167226
   80       13.168304
   81       13.536574
   82       13.893794
   83       13.930085
   84       13.966031
 
  0.1111111E+00  0.2222222E+00  0.0000000E+00  0.6172840E-02
    1      -13.633828
    2      -13.344180
    3      -13.343368
    4      -13.015008
    5      -11.025009
    6      -10.774120
    7      -10.773402
    8      -10.495156
    9      -10.394427
   10      -10.153781
   11      -10.153090
   12       -9.887675
   13       -8.633461
   14       -8.443791
   15       -8.442784
   16       -8.253719
   17       -7.009599
   18       -6.873951
   19       -6.871199
   20       -6.700678
   21       -5.397448
   22       -5.236022
   23       -5.234040
   24       -5.060810
   25       -4.795489
   26       -4.637727
   27       -4.637187
   28       -4.468057
   29       -2.752430
   30       -2.629182
   31       -2.521334
   32       -2.519013
   33       -2.403588
   34       -1.409660
   35       -1.357626
   36       -1.355111
   37       -1.321842
   38       -1.319328
   39       -1.227342
   40       -0.588165
   41       -0.514370
   42       -0.514050
   43       -0.438140
   44        0.332614
   45        0.396539
   46        0.825153
   47        0.880129
   48        0.883320
   49        0.935265