    4    4  200    1
  0.1160753E+02  0.2467155E-09  0.2467155E-09  0.8808432E-09  0.5000000E-15
  1.000000000000000E-004
  CAR 
 graphite                                
     16    455     12
 
  0.0000000E+00  0.0000000E+00  0.0000000E+00  0.3858025E-03
    1      -16.943932
    2      -16.918135
    3       -5.224102
    4       -4.838411
    5       -0.460382
    6       -0.459724
    7       -0.455782
    8       -0.455126
    9        5.582926
   10        8.603865
   11       10.880256
   12       10.883374
 
  0.5555556E-01  0.3469447E-17  0.0000000E+00  0.1543210E-02
    1      -16.870882
    2      -16.845267
    3       -5.136350
    4       -4.752040
    5       -0.754974
    6       -0.753948
    7       -0.615439
    8       -0.614491
    9        5.678501
   10        8.693579
   11       10.907451
   12       10.924060
 
  0.1111111E+00  0.6938894E-17  0.0000000E+00  0.1543210E-02
    1      -16.652253
    2      -16.627099
    3       -4.874077
    4       -4.494470
    5       -1.573396
    6       -1.571466
    7       -1.030530
    8       -1.029054
    9        5.965431
   10        8.961086
   11       10.924111
   12       10.966135
 
  0.1666667E+00 -0.2775558E-16  0.0000000E+00  0.1543210E-02
    1      -16.289051
    2      -16.264789
    3       -4.440378
    4       -4.068881
    5       -2.748507
    6       -2.745023
    7       -1.589066
    8       -1.587166
    9        6.443711
   10        9.398201
   11       10.846700
   12       10.903441
 
  0.2222222E+00  0.2775558E-16  0.0000000E+00  0.1543210E-02
    1      -15.783243
    2      -15.759997
    3       -4.123204
    4       -4.118204
    5       -3.841133
    6       -3.481922
    7       -2.182441
    8       -2.180461
    9        7.112365
   10        9.919413
   11       10.533343
   12       10.679850
 
  0.2777778E+00  0.0000000E+00  0.0000000E+00  0.1543210E-02
    1      -15.137857
    2      -15.116026
    3       -5.583627
    4       -5.576687
    5       -3.087628
    6       -2.745824
    7       -2.735159
    8       -2.732884
    9        7.968913
   10        8.961969
   11        9.059366
   12       10.454449
 
  0.3333333E+00 -0.2775558E-16  0.0000000E+00  0.1543210E-02
    1      -14.358155
    2      -14.337948
    3       -7.052427
    4       -7.043492
    5       -3.199475
    6       -3.197040
    7       -2.201558
    8       -1.885043
    9        7.407160
   10        7.546212
   11        9.005707
   12       10.240912
 
  0.3888889E+00 -0.2775558E-16  0.0000000E+00  0.1543210E-02
    1      -13.453901
    2      -13.435512
    3       -8.475116
    4       -8.464098
    5       -3.546942
    6       -3.544568
    7       -1.231730
    8       -0.954752
    9        5.918145
   10        6.091682
   11       10.004937
   12       10.074055
 
  0.4444444E+00  0.5551115E-16  0.0000000E+00  0.1543210E-02
    1      -12.455660
    2      -12.439359
    3       -9.793120
    4       -9.781208
    5       -3.761411
    6       -3.758580
    7       -0.311694
    8       -0.107996
    9        4.698378
   10        4.882597
   11        9.951190
   12        9.987176
 
  0.5000000E+00  0.5551115E-16  0.0000000E+00  0.7716049E-03
    1      -11.699486
    2      -11.691300
    3      -10.650659
    4      -10.643890
    5       -3.833610
    6       -3.830763
    7        0.155444
    8        0.267772
    9        4.171201
   10        4.340358
   11        9.913947
   12        9.952298
 
  0.5555556E-01  0.5555556E-01  0.0000000E+00  0.7716049E-03
    1      -16.725017
    2      -16.699748
    3       -4.961331
    4       -4.580050
    5       -1.285124
    6       -1.283983
    7       -0.928954
    8       -0.928120
    9        5.869828
   10        8.872313
   11       11.000977
   12       11.038157
 
  0.1111111E+00  0.5555556E-01  0.0000000E+00  0.1543210E-02
    1      -16.434108
    2      -16.409515
    3       -4.613270
    4       -4.238342
    5       -2.229671
    6       -2.227433
    7       -1.469010
    8       -1.467527
    9        6.252721
   10        9.226166
   11       11.096558
   12       11.155439
 
  0.1666667E+00  0.5555556E-01  0.0000000E+00  0.1543210E-02
    1      -15.999603
    2      -15.975971
    3       -4.096505
    4       -3.731701
    5       -3.462984
    6       -3.459176
    7       -2.088114
    8       -2.086006
    9        6.826690
   10        9.736946
   11       11.051715
   12       11.107490
 
  0.2222222E+00  0.5555556E-01  0.0000000E+00  0.1543210E-02
    1      -15.423975
    2      -15.401552
    3       -4.854491
    4       -4.848793
    5       -3.419124
    6       -3.069089
    7       -2.688217
    8       -2.685739
    9        7.590124
   10        9.634099
   11        9.712573
   12       10.555340
 
  0.2777778E+00  0.5555556E-01  0.0000000E+00  0.1543210E-02
    1      -14.711288
    2      -14.690275
    3       -6.304027
    4       -6.296384
    5       -3.212283
    6       -3.209620
    7       -2.596507
    8       -2.267377
    9        8.135476
   10        8.246736
   11        8.539514
   12       10.665812
 
  0.3333333E+00  0.5555556E-01  0.0000000E+00  0.1543210E-02
    1      -13.868725
    2      -13.849269
    3       -7.742002
    4       -7.732133
    5       -3.626732
    6       -3.623782
    7       -1.660101
    8       -1.361963
    9        6.614431
   10        6.765997
   11        9.661141
   12       10.473647
 
  0.3888889E+00  0.5555556E-01  0.0000000E+00  0.1543210E-02
    1      -12.911684
    2      -12.894364
    3       -9.113392
    4       -9.101913
    5       -3.911957
    6       -3.908848
    7       -0.687565
    8       -0.441735
    9        5.238383
   10        5.415046
   11       10.318306
   12       10.352051
 
  0.4444444E+00  0.5555556E-01  0.0000000E+00  0.1543210E-02
    1      -11.922439
    2      -11.908848
    3      -10.312901
    4      -10.301916
    5       -4.056957
    6       -4.053828
    7        0.087432
    8        0.235369
    9        4.298978
   10        4.467495
   11       10.249336
   12       10.290493
 
  0.5000000E+00  0.5555556E-01  0.0000000E+00  0.1543210E-02
    1      -11.922609
    2      -11.909017
    3      -10.312716
    4      -10.301729
    5       -4.056993
    6       -4.053864
    7        0.087394
    8        0.235345
    9        4.298988
   10        4.467497
   11       10.249421
   12       10.290580
 
 -0.4444444E+00  0.5555556E-01  0.0000000E+00  0.1543210E-02
    1      -12.911879
    2      -12.894558
    3       -9.113152
    4       -9.101674
    5       -3.912058
    6       -3.908949
    7       -0.687641
    8       -0.441796
    9        5.238382
   10        5.415028
   11       10.318570
   12       10.352315
 
 -0.3888889E+00  0.5555556E-01  0.0000000E+00  0.1543210E-02
    1      -13.868901
    2      -13.849445
    3       -7.741775
    4       -7.731906
    5       -3.626872
    6       -3.623922
    7       -1.660186
    8       -1.362037
    9        6.614379
   10        6.765924
   11        9.660977
   12       10.474047
 
 -0.3333333E+00  0.5555556E-01  0.0000000E+00  0.1543210E-02
    1      -14.711438
    2      -14.690425
    3       -6.303865
    4       -6.296224
    5       -3.212402
    6       -3.209740
    7       -2.596590
    8       -2.267451
    9        8.135347
   10        8.246587
   11        8.539348
   12       10.666483
 
 -0.2777778E+00  0.5555556E-01  0.0000000E+00  0.1543210E-02
    1      -15.424098
    2      -15.401676
    3       -4.854502
    4       -4.848805
    5       -3.419198
    6       -3.069156
    7       -2.688191
    8       -2.685715
    9        7.589986
   10        9.633904
   11        9.712341
   12       10.555225
 
 -0.2222222E+00  0.5555556E-01  0.0000000E+00  0.1543210E-02
    1      -15.999699
    2      -15.976067
    3       -4.096566
    4       -3.731757
    5       -3.463405
    6       -3.459601
    7       -2.087677
    8       -2.085572
    9        6.826581
   10        9.736885
   11       11.046175
   12       11.108863
 
 -0.1666667E+00  0.5555556E-01  0.0000000E+00  0.1543210E-02
    1      -16.434177
    2      -16.409583
    3       -4.613315
    4       -4.238384
    5       -2.231013
    6       -2.228781
    7       -1.467624
    8       -1.466148
    9        6.252643
   10        9.226117
   11       11.098703
   12       11.157628
 
 -0.1111111E+00  0.5555556E-01  0.0000000E+00  0.1543210E-02
    1      -16.725058
    2      -16.699789
    3       -4.961359
    4       -4.580076
    5       -1.288109
    6       -1.286968
    7       -0.925910
    8       -0.925076
    9        5.869780
   10        8.872282
   11       11.004020
   12       11.041279
 
 -0.5555556E-01  0.5555556E-01  0.0000000E+00  0.7716049E-03
    1      -16.870895
    2      -16.845281
    3       -5.136360
    4       -4.752049
    5       -0.758318
    6       -0.757292
    7       -0.612062
    8       -0.611114
    9        5.678485
   10        8.693568
   11       10.910144
   12       10.927042
 
  0.1111111E+00  0.1111111E+00  0.0000000E+00  0.7716049E-03
    1      -16.071867
    2      -16.048040
    3       -4.181921
    4       -3.815362
    5       -3.129388
    6       -3.127406
    7       -2.172918
    8       -2.171574
    9        6.731718
   10        9.662555
   11       11.323643
   12       11.376186
 
  0.1666667E+00  0.1111111E+00  0.0000000E+00  0.1543210E-02
    1      -15.567558
    2      -15.544815
    3       -4.266459
    4       -4.262941
    5       -3.586023
    6       -3.231987
    7       -2.913121
    8       -2.910880
    9        7.401199
   10       10.068171
   11       10.096737
   12       10.323569
 
  0.2222222E+00  0.1111111E+00  0.0000000E+00  0.1543210E-02
    1      -14.924542
    2      -14.903100
    3       -5.579708
    4       -5.573839
    5       -3.553737
    6       -3.550547
    7       -2.836567
    8       -2.500172
    9        8.258754
   10        8.688740
   11        8.764651
   12       11.037548
 
  0.2777778E+00  0.1111111E+00  0.0000000E+00  0.1543210E-02
    1      -14.148318
    2      -14.128363
    3       -6.964402
    4       -6.956235
    5       -4.062884
    6       -4.059116
    7       -1.954360
    8       -1.643048
    9        7.229956
   10        7.344494
   11        9.299990
   12       11.460848
 
  0.3333333E+00  0.1111111E+00  0.0000000E+00  0.1543210E-02
    1      -13.249270
    2      -13.231078
    3       -8.337995
    4       -8.327638
    5       -4.432387
    6       -4.428244
    7       -0.985639
    8       -0.712765
    9        5.814066
   10        5.961894
   11       10.510831
   12       11.296137
 
  0.3888889E+00  0.1111111E+00  0.0000000E+00  0.1543210E-02
    1      -12.258671
    2      -12.242804
    3       -9.626533
    4       -9.615094
    5       -4.656470
    6       -4.652236
    7       -0.057955
    8        0.144520
    9        4.629286
   10        4.786731
   11       11.176291
   12       11.225339
 
  0.4444444E+00  0.1111111E+00  0.0000000E+00  0.1543210E-02
    1      -11.511971
    2      -11.503962
    3      -10.468543
    4      -10.462147
    5       -4.731534
    6       -4.727312
    7        0.421695
    8        0.532863
    9        4.106839
   10        4.243451
   11       11.141091
   12       11.196279
 
  0.5000000E+00  0.1111111E+00  0.0000000E+00  0.1543210E-02
    1      -12.259062
    2      -12.243195
    3       -9.626087
    4       -9.614649
    5       -4.656577
    6       -4.652344
    7       -0.058073
    8        0.144433
    9        4.629286
   10        4.786704
   11       11.176617
   12       11.225679
 
 -0.4444444E+00  0.1111111E+00  0.0000000E+00  0.1543210E-02
    1      -13.249642
    2      -13.231449
    3       -8.337548
    4       -8.327192
    5       -4.432562
    6       -4.428419
    7       -0.985797
    8       -0.712898
    9        5.813983
   10        5.961775
   11       10.510448
   12       11.296618
 
 -0.3888889E+00  0.1111111E+00  0.0000000E+00  0.1543210E-02
    1      -14.148644
    2      -14.128689
    3       -6.964068
    4       -6.955903
    5       -4.063022
    6       -4.059255
    7       -1.954524
    8       -1.643193
    9        7.229730
   10        7.344233
   11        9.299618
   12       11.460411
 
 -0.3333333E+00  0.1111111E+00  0.0000000E+00  0.1543210E-02
    1      -14.924815
    2      -14.903373
    3       -5.579707
    4       -5.573841
    5       -3.553599
    6       -3.550412
    7       -2.836722
    8       -2.500310
    9        8.258441
   10        8.688333
   11        8.764224
   12       11.037274
 
 -0.2777778E+00  0.1111111E+00  0.0000000E+00  0.1543210E-02
    1      -15.567778
    2      -15.545034
    3       -4.267241
    4       -4.263728
    5       -3.586156
    6       -3.232108
    7       -2.912219
    8       -2.909983
    9        7.400948
   10       10.067699
   11       10.096193
   12       10.323268
 
 -0.2222222E+00  0.1111111E+00  0.0000000E+00  0.1543210E-02
    1      -16.072032
    2      -16.048205
    3       -4.182026
    4       -3.815458
    5       -3.131484
    6       -3.129501
    7       -2.170687
    8       -2.169342
    9        6.731530
   10        9.662442
   11       11.338026
   12       11.441046
 
 -0.1666667E+00  0.1111111E+00  0.0000000E+00  0.1543210E-02
    1      -16.434218
    2      -16.409624
    3       -4.613342
    4       -4.238408
    5       -2.232816
    6       -2.230576
    7       -1.465696
    8       -1.464211
    9        6.252594
   10        9.226086
   11       11.100615
   12       11.159639
 
 -0.1111111E+00  0.1111111E+00  0.0000000E+00  0.7716049E-03
    1      -16.652308
    2      -16.627154
    3       -4.874114
    4       -4.494504
    5       -1.576553
    6       -1.574622
    7       -1.027235
    8       -1.025758
    9        5.965367
   10        8.961045
   11       10.927063
   12       10.969169
 
  0.1666667E+00  0.1666667E+00  0.0000000E+00  0.7716049E-03
    1      -14.995850
    2      -14.974281
    3       -5.185455
    4       -5.182407
    5       -3.832364
    6       -3.830079
    7       -2.917103
    8       -2.578300
    9        8.164893
   10        8.903409
   11        8.965916
   12       10.907835
 
  0.2222222E+00  0.1666667E+00  0.0000000E+00  0.1543210E-02
    1      -14.288954
    2      -14.268832
    3       -6.297193
    4       -6.291907
    5       -4.595284
    6       -4.591617
    7       -2.103929
    8       -1.786234
    9        7.613651
   10        7.691742
   11        9.114017
   12       11.674559
 
  0.2777778E+00  0.1666667E+00  0.0000000E+00  0.1543210E-02
    1      -13.455053
    2      -13.436516
    3       -7.551518
    4       -7.543379
    5       -5.128081
    6       -5.123246
    7       -1.174874
    8       -0.887137
    9        6.281466
   10        6.387141
   11       10.242229
   12       12.511898
 
  0.3333333E+00  0.1666667E+00  0.0000000E+00  0.1543210E-02
    1      -12.511197
    2      -12.494430
    3       -8.825675
    4       -8.815364
    5       -5.464860
    6       -5.459361
    7       -0.198075
    8        0.041649
    9        5.023336
   10        5.151479
   11       11.534518
   12       12.529017
 
  0.3888889E+00  0.1666667E+00  0.0000000E+00  0.1543210E-02
    1      -11.540465
    2      -11.527567
    3       -9.972157
    4       -9.961855
    5       -5.629280
    6       -5.623796
    7        0.607211
    8        0.754484
    9        4.117876
   10        4.228255
   11       12.441245
   12       12.529170
 
  0.4444444E+00  0.1666667E+00  0.0000000E+00  0.1543210E-02
    1      -11.540964
    2      -11.528063
    3       -9.971633
    4       -9.961328
    5       -5.629328
    6       -5.623843
    7        0.607111
    8        0.754426
    9        4.117863
   10        4.228218
   11       12.441476
   12       12.529443
 
  0.5000000E+00  0.1666667E+00  0.0000000E+00  0.1543210E-02
    1      -12.511775
    2      -12.495008
    3       -8.825052
    4       -8.814742
    5       -5.464959
    6       -5.459460
    7       -0.198272
    8        0.041495
    9        5.023212
   10        5.151315
   11       11.533821
   12       12.529526
 
 -0.4444444E+00  0.1666667E+00  0.0000000E+00  0.1543210E-02
    1      -13.455576
    2      -13.437038
    3       -7.551085
    4       -7.542949
    5       -5.128064
    6       -5.123232
    7       -1.175103
    8       -0.887331
    9        6.281136
   10        6.386778
   11       10.241604
   12       12.511844
 
 -0.3888889E+00  0.1666667E+00  0.0000000E+00  0.1543210E-02
    1      -14.289402
    2      -14.269280
    3       -6.297349
    4       -6.292068
    5       -4.594749
    6       -4.591086
    7       -2.104157
    8       -1.786434
    9        7.613058
   10        7.691147
   11        9.113490
   12       11.674357
 
 -0.3333333E+00  0.1666667E+00  0.0000000E+00  0.1543210E-02
    1      -14.996220
    2      -14.974650
    3       -5.186716
    4       -5.183666
    5       -3.830769
    6       -3.828483
    7       -2.917310
    8       -2.578486
    9        8.164464
   10        8.902549
   11        8.965099
   12       10.907607
 
 -0.2777778E+00  0.1666667E+00  0.0000000E+00  0.1543210E-02
    1      -15.567846
    2      -15.545103
    3       -4.268701
    4       -4.265179
    5       -3.586195
    6       -3.232143
    7       -2.910546
    8       -2.908302
    9        7.400866
   10       10.067246
   11       10.095819
   12       10.323229
 
 -0.2222222E+00  0.1666667E+00  0.0000000E+00  0.1543210E-02
    1      -15.999809
    2      -15.976176
    3       -4.096633
    4       -3.731819
    5       -3.465741
    6       -3.461932
    7       -2.084998
    8       -2.082890
    9        6.826452
   10        9.736807
   11       11.054176
   12       11.111496
 
 -0.1666667E+00  0.1666667E+00  0.0000000E+00  0.7716049E-03
    1      -16.289174
    2      -16.264913
    3       -4.440458
    4       -4.068954
    5       -2.751389
    6       -2.747904
    7       -1.585867
    8       -1.583967
    9        6.443566
   10        9.398108
   11       10.850075
   12       10.906915
 
  0.2222222E+00  0.2222222E+00  0.0000000E+00  0.7716049E-03
    1      -13.524194
    2      -13.505412
    3       -7.096501
    4       -7.092154
    5       -5.561788
    6       -5.558397
    7       -1.239500
    8       -0.947049
    9        6.469097
   10        6.548848
   11       10.149370
   12       12.357823
 
  0.2777778E+00  0.2222222E+00  0.0000000E+00  0.1543210E-02
    1      -12.641991
    2      -12.625196
    3       -8.096858
    4       -8.089867
    5       -6.220123
    6       -6.215164
    7       -0.280176
    8       -0.022899
    9        5.298696
   10        5.392109
   11       11.353198
   12       12.973126
 
  0.3333333E+00  0.2222222E+00  0.0000000E+00  0.1543210E-02
    1      -11.676413
    2      -11.661672
    3       -9.208481
    4       -9.198979
    5       -6.561517
    6       -6.555057
    7        0.674261
    8        0.872392
    9        4.230786
   10        4.328625
   11       12.697445
   12       13.401134
 
  0.3888889E+00  0.2222222E+00  0.0000000E+00  0.1543210E-02
    1      -10.949991
    2      -10.942640
    3       -9.989572
    4       -9.984779
    5       -6.666370
    6       -6.659468
    7        1.214889
    8        1.322538
    9        3.717249
   10        3.754043
   11       13.631172
   12       13.851327
 
  0.4444444E+00  0.2222222E+00  0.0000000E+00  0.1543210E-02
    1      -11.677174
    2      -11.662431
    3       -9.207779
    4       -9.198278
    5       -6.561458
    6       -6.554999
    7        0.674089
    8        0.872281
    9        4.230603
   10        4.328418
   11       12.696378
   12       13.399264
 
  0.5000000E+00  0.2222222E+00  0.0000000E+00  0.1543210E-02
    1      -12.642723
    2      -12.625927
    3       -8.096508
    4       -8.089520
    5       -6.219730
    6       -6.214774
    7       -0.280423
    8       -0.023094
    9        5.298239
   10        5.391651
   11       11.352272
   12       12.967330
 
 -0.4444444E+00  0.2222222E+00  0.0000000E+00  0.1543210E-02
    1      -13.524840
    2      -13.506058
    3       -7.097060
    4       -7.092710
    5       -5.560552
    6       -5.557158
    7       -1.239775
    8       -0.947280
    9        6.468312
   10        6.548110
   11       10.148590
   12       12.357709
 
 -0.3888889E+00  0.2222222E+00  0.0000000E+00  0.1543210E-02
    1      -14.289498
    2      -14.269376
    3       -6.298644
    4       -6.293353
    5       -4.593203
    6       -4.589532
    7       -2.104197
    8       -1.786467
    9        7.612557
   10        7.690732
   11        9.113375
   12       11.674372
 
 -0.3333333E+00  0.2222222E+00  0.0000000E+00  0.1543210E-02
    1      -14.924979
    2      -14.903537
    3       -5.581693
    4       -5.575823
    5       -3.551134
    6       -3.547943
    7       -2.836804
    8       -2.500382
    9        8.258245
   10        8.687435
   11        8.763442
   12       11.037227
 
 -0.2777778E+00  0.2222222E+00  0.0000000E+00  0.1543210E-02
    1      -15.424303
    2      -15.401881
    3       -4.856842
    4       -4.851143
    5       -3.419314
    6       -3.069260
    7       -2.685249
    8       -2.682771
    9        7.589743
   10        9.632863
   11        9.711295
   12       10.555017
 
 -0.2222222E+00  0.2222222E+00  0.0000000E+00  0.7716049E-03
    1      -15.783462
    2      -15.760216
    3       -4.125778
    4       -4.120778
    5       -3.841265
    6       -3.482042
    7       -2.179310
    8       -2.177329
    9        7.112108
   10        9.919088
   11       10.563641
   12       10.679073
 
  0.2777778E+00  0.2777778E+00  0.0000000E+00  0.7716049E-03
    1      -11.730788
    2      -11.715569
    3       -8.725951
    4       -8.720542
    5       -7.095542
    6       -7.091813
    7        0.687918
    8        0.905344
    9        4.294446
   10        4.387215
   11       12.606383
   12       13.168497
 
  0.3333333E+00  0.2777778E+00  0.0000000E+00  0.1543210E-02
    1      -10.797275
    2      -10.785601
    3       -9.538567
    4       -9.531635
    5       -7.526127
    6       -7.520745
    7        1.593852
    8        1.743244
    9        3.406118
   10        3.484940
   11       13.238024
   12       13.574937
 
  0.3888889E+00  0.2777778E+00  0.0000000E+00  0.1543210E-02
    1      -10.798073
    2      -10.786393
    3       -9.537995
    4       -9.531060
    5       -7.525879
    6       -7.520499
    7        1.593803
    8        1.743269
    9        3.405878
   10        3.484715
   11       13.238257
   12       13.575201
 
  0.4444444E+00  0.2777778E+00  0.0000000E+00  0.1543210E-02
    1      -11.731718
    2      -11.716497
    3       -8.725944
    4       -8.720532
    5       -7.094545
    6       -7.090813
    7        0.687749
    8        0.905249
    9        4.293835
   10        4.386652
   11       12.605100
   12       13.168885
 
  0.5000000E+00  0.2777778E+00  0.0000000E+00  0.1543210E-02
    1      -12.642846
    2      -12.626050
    3       -8.097645
    4       -8.090648
    5       -6.218345
    6       -6.213381
    7       -0.280429
    8       -0.023091
    9        5.297725
   10        5.391225
   11       11.352123
   12       12.967505
 
 -0.4444444E+00  0.2777778E+00  0.0000000E+00  0.1543210E-02
    1      -13.455794
    2      -13.437352
    3       -7.552837
    4       -7.544674
    5       -5.125829
    6       -5.120993
    7       -1.175160
    8       -0.887373
    9        6.280185
   10        6.385955
   11       10.241341
   12       12.666993
 
 -0.3888889E+00  0.2777778E+00  0.0000000E+00  0.1543210E-02
    1      -14.148930
    2      -14.128975
    3       -6.966065
    4       -6.957898
    5       -4.060280
    6       -4.056511
    7       -1.954638
    8       -1.643287
    9        7.228458
   10        7.343083
   11        9.299278
   12       11.465992
 
 -0.3333333E+00  0.2777778E+00  0.0000000E+00  0.1543210E-02
    1      -14.711767
    2      -14.690753
    3       -6.306018
    4       -6.298375
    5       -3.209374
    6       -3.206711
    7       -2.596748
    8       -2.267589
    9        8.133899
   10        8.245235
   11        8.538966
   12       10.670466
 
 -0.2777778E+00  0.2777778E+00  0.0000000E+00  0.7716049E-03
    1      -15.138199
    2      -15.116368
    3       -5.585887
    4       -5.578947
    5       -3.087813
    6       -2.745989
    7       -2.732067
    8       -2.729791
    9        7.968516
   10        8.960522
   11        9.057965
   12       10.458427
 
  0.3333333E+00  0.3333333E+00  0.0000000E+00  0.7716049E-03
    1      -10.021265
    2      -10.014988
    3      -10.014951
    4      -10.008298
    5       -7.964358
    6       -7.964350
    7        2.469972
    8        2.569251
    9        2.569349
   10        2.673747
   11       13.223412
   12       13.223555
 
  0.3888889E+00  0.3333333E+00  0.0000000E+00  0.1543210E-02
    1      -10.798266
    2      -10.786589
    3       -9.538832
    4       -9.531892
    5       -7.524774
    6       -7.519384
    7        1.593988
    8        1.743447
    9        3.405285
   10        3.484170
   11       13.238597
   12       13.575762
 
  0.4444444E+00  0.3333333E+00  0.0000000E+00  0.1543210E-02
    1      -11.677453
    2      -11.662711
    3       -9.209206
    4       -9.199701
    5       -6.559538
    6       -6.553075
    7        0.674183
    8        0.872388
    9        4.229596
   10        4.327536
   11       12.696051
   12       13.400614
 
  0.5000000E+00  0.3333333E+00  0.0000000E+00  0.1543210E-02
    1      -12.512143
    2      -12.495376
    3       -8.826734
    4       -8.816421
    5       -5.462520
    6       -5.457020
    7       -0.198278
    8        0.041513
    9        5.021868
   10        5.150098
   11       11.533390
   12       12.534117
 
 -0.4444444E+00  0.3333333E+00  0.0000000E+00  0.1543210E-02
    1      -13.250078
    2      -13.231885
    3       -8.339365
    4       -8.329008
    5       -4.429747
    6       -4.425604
    7       -0.985896
    8       -0.712966
    9        5.812404
   10        5.960303
   11       10.509987
   12       11.300734
 
 -0.3888889E+00  0.3333333E+00  0.0000000E+00  0.1543210E-02
    1      -13.869378
    2      -13.849921
    3       -7.743675
    4       -7.733805
    5       -3.623827
    6       -3.620878
    7       -1.660357
    8       -1.362176
    9        6.612678
   10        6.764308
   11        9.660503
   12       10.478064
 
 -0.3333333E+00  0.3333333E+00  0.0000000E+00  0.7716049E-03
    1      -14.358659
    2      -14.338443
    3       -7.054381
    4       -7.045485
    5       -3.196400
    6       -3.193965
    7       -2.201778
    8       -1.885233
    9        7.405448
   10        7.544581
   11        9.005174
   12       10.245009
 
  0.3888889E+00  0.3888889E+00  0.0000000E+00  0.7716049E-03
    1      -10.950738
    2      -10.943391
    3       -9.990609
    4       -9.985817
    5       -6.664340
    6       -6.657436
    7        1.215156
    8        1.322755
    9        3.715901
   10        3.752743
   11       13.717612
   12       13.855045
 
  0.4444444E+00  0.3888889E+00  0.0000000E+00  0.1543210E-02
    1      -11.541539
    2      -11.528640
    3       -9.973090
    4       -9.962786
    5       -5.626868
    6       -5.621383
    7        0.607282
    8        0.754581
    9        4.116179
   10        4.226593
   11       12.445997
   12       12.533859
 
  0.5000000E+00  0.3888889E+00  0.0000000E+00  0.1543210E-02
    1      -12.259674
    2      -12.243807
    3       -9.627664
    4       -9.616225
    5       -4.653773
    6       -4.649539
    7       -0.058049
    8        0.144482
    9        4.627422
   10        4.784899
   11       11.180921
   12       11.229942
 
 -0.4444444E+00  0.3888889E+00  0.0000000E+00  0.1543210E-02
    1      -12.912530
    2      -12.895209
    3       -9.114786
    4       -9.103306
    5       -3.909028
    6       -3.905919
    7       -0.687745
    8       -0.441860
    9        5.236456
   10        5.413156
   11       10.322621
   12       10.356376
 
 -0.3888889E+00  0.3888889E+00  0.0000000E+00  0.7716049E-03
    1      -13.454566
    2      -13.436177
    3       -8.476779
    4       -8.465760
    5       -3.543873
    6       -3.541500
    7       -1.231928
    8       -0.954906
    9        5.916256
   10        6.089847
   11       10.007710
   12       10.078183
 
  0.4444444E+00  0.4444444E+00  0.0000000E+00  0.7716049E-03
    1      -11.512900
    2      -11.504895
    3      -10.469753
    4      -10.463359
    5       -4.728777
    6       -4.724555
    7        0.421863
    8        0.532981
    9        4.104819
   10        4.241393
   11       11.145624
   12       11.200819
 
  0.5000000E+00  0.4444444E+00  0.0000000E+00  0.1543210E-02
    1      -11.923456
    2      -11.909865
    3      -10.314091
    4      -10.303105
    5       -4.053992
    6       -4.050864
    7        0.087481
    8        0.235425
    9        4.296846
   10        4.465328
   11       10.253714
   12       10.294872
 
 -0.4444444E+00  0.4444444E+00  0.0000000E+00  0.7716049E-03
    1      -12.456515
    2      -12.440212
    3       -9.794442
    4       -9.782607
    5       -3.758334
    6       -3.755486
    7       -0.311751
    8       -0.108014
    9        4.696285
   10        4.880510
   11        9.955425
   12        9.991403
 
  0.5000000E+00  0.5000000E+00  0.0000000E+00  0.3858025E-03
    1      -11.700475
    2      -11.692294
    3      -10.651898
    4      -10.645130
    5       -3.830542
    6       -3.827695
    7        0.155578
    8        0.267855
    9        4.168974
   10        4.338058
   11        9.918209
   12        9.956560
 