       N       E                     dE             d eps       ncg     rms          rms(c)
DAV:   1     0.596352423246E+03    0.59635E+03   -0.71596E+04 27384   0.159E+03
DAV:   2    -0.263057423079E+03   -0.85941E+03   -0.82864E+03 34200   0.312E+02
DAV:   3    -0.312825344179E+03   -0.49768E+02   -0.49306E+02 33408   0.755E+01
DAV:   4    -0.313768823877E+03   -0.94348E+00   -0.94178E+00 35004   0.113E+01
DAV:   5    -0.313796143528E+03   -0.27320E-01   -0.27308E-01 34992   0.179E+00    0.221E+01
DAV:   6    -0.299286323612E+03    0.14510E+02   -0.14958E+01 31296   0.107E+01    0.116E+01
DAV:   7    -0.294675633102E+03    0.46107E+01   -0.15776E+01 30888   0.110E+01    0.194E+00
DAV:   8    -0.294741866973E+03   -0.66234E-01   -0.41426E-01 31008   0.186E+00    0.331E-01
DAV:   9    -0.294742588795E+03   -0.72182E-03   -0.25550E-02 32460   0.515E-01    0.163E-01
DAV:  10    -0.294742853017E+03   -0.26422E-03   -0.54494E-03 33636   0.228E-01    0.113E-01
DAV:  11    -0.294743304778E+03   -0.45176E-03   -0.30960E-03 31884   0.143E-01    0.824E-02
DAV:  12    -0.294743750547E+03   -0.44577E-03   -0.15730E-03 31092   0.109E-01    0.505E-02
DAV:  13    -0.294743991396E+03   -0.24085E-03   -0.34409E-03 35868   0.130E-01    0.612E-02
DAV:  14    -0.294743846268E+03    0.14513E-03   -0.76779E-04 34836   0.860E-02    0.852E-03
DAV:  15    -0.294743851409E+03   -0.51412E-05   -0.66218E-05 31572   0.262E-02    0.622E-03
DAV:  16    -0.294743851741E+03   -0.33199E-06   -0.54158E-06 24480   0.645E-03
   1 F= -.29966917E+03 E0= -.29966917E+03  d E =0.000000E+00
