  32  32   0   0
  0.3545204E+01  0.4934311E-09  0.4934311E-09  0.5380594E-09  0.5000000E-15
  1.000000000000000E-004
  CAR 
 graphite                                
     28.32915715    -13.14148545  301     19.57116263      1.00000000
    -13.141  0.0000E+00  0.0000E+00
    -13.003  0.0000E+00  0.0000E+00
    -12.865  0.0000E+00  0.0000E+00
    -12.727  0.0000E+00  0.0000E+00
    -12.589  0.0000E+00  0.0000E+00
    -12.450  0.0000E+00  0.0000E+00
    -12.312  0.0000E+00  0.0000E+00
    -12.174  0.0000E+00  0.0000E+00
    -12.036  0.0000E+00  0.0000E+00
    -11.897  0.0000E+00  0.0000E+00
    -11.759  0.0000E+00  0.0000E+00
    -11.621  0.0000E+00  0.0000E+00
    -11.483  0.0000E+00  0.0000E+00
    -11.344  0.0000E+00  0.0000E+00
    -11.206  0.0000E+00  0.0000E+00
    -11.068  0.1322E+00  0.3240E-02
    -10.930  0.4406E+00  0.4247E-01
    -10.791  0.6338E+00  0.1212E+00
    -10.653  0.7429E+00  0.2166E+00
    -10.515  0.8597E+00  0.3274E+00
    -10.377  0.9581E+00  0.4532E+00
    -10.239  0.1070E+01  0.5930E+00
    -10.100  0.1173E+01  0.7491E+00
     -9.962  0.1230E+01  0.9151E+00
     -9.824  0.1341E+01  0.1091E+01
     -9.686  0.1439E+01  0.1284E+01
     -9.547  0.1552E+01  0.1494E+01
     -9.409  0.1427E+01  0.1700E+01
     -9.271  0.1431E+01  0.1892E+01
     -9.133  0.1736E+01  0.2110E+01
     -8.994  0.2185E+01  0.2375E+01
     -8.856  0.2307E+01  0.2695E+01
     -8.718  0.2347E+01  0.3015E+01
     -8.580  0.1635E+01  0.3286E+01
     -8.441  0.1443E+01  0.3490E+01
     -8.303  0.1416E+01  0.3693E+01
     -8.165  0.1586E+01  0.3899E+01
     -8.027  0.2466E+01  0.4152E+01
     -7.889  0.2282E+01  0.4466E+01
     -7.750  0.2418E+01  0.4793E+01
     -7.612  0.2359E+01  0.5124E+01
     -7.474  0.2195E+01  0.5439E+01
     -7.336  0.1956E+01  0.5726E+01
     -7.197  0.2032E+01  0.5999E+01
     -7.059  0.2319E+01  0.6297E+01
     -6.921  0.2412E+01  0.6625E+01
     -6.783  0.2810E+01  0.6992E+01
     -6.644  0.2826E+01  0.7386E+01
     -6.506  0.3010E+01  0.7784E+01
     -6.368  0.3411E+01  0.8227E+01
     -6.230  0.3620E+01  0.8718E+01
     -6.091  0.3440E+01  0.9206E+01
     -5.953  0.3286E+01  0.9672E+01
     -5.815  0.3118E+01  0.1011E+02
     -5.677  0.3056E+01  0.1054E+02
     -5.539  0.2868E+01  0.1095E+02
     -5.400  0.2667E+01  0.1133E+02
     -5.262  0.2452E+01  0.1169E+02
     -5.124  0.2299E+01  0.1202E+02
     -4.986  0.2653E+01  0.1235E+02
     -4.847  0.2909E+01  0.1274E+02
     -4.709  0.3471E+01  0.1318E+02
     -4.571  0.3734E+01  0.1367E+02
     -4.433  0.3415E+01  0.1419E+02
     -4.294  0.3247E+01  0.1465E+02
     -4.156  0.2767E+01  0.1506E+02
     -4.018  0.2277E+01  0.1541E+02
     -3.880  0.2169E+01  0.1571E+02
     -3.741  0.2594E+01  0.1603E+02
     -3.603  0.2388E+01  0.1638E+02
     -3.465  0.2463E+01  0.1671E+02
     -3.327  0.3067E+01  0.1710E+02
     -3.189  0.3084E+01  0.1752E+02
     -3.050  0.3071E+01  0.1795E+02
     -2.912  0.2977E+01  0.1837E+02
     -2.774  0.3054E+01  0.1879E+02
     -2.636  0.3065E+01  0.1921E+02
     -2.497  0.2940E+01  0.1962E+02
     -2.359  0.3738E+01  0.2005E+02
     -2.221  0.3857E+01  0.2058E+02
     -2.083  0.4379E+01  0.2114E+02
     -1.944  0.4639E+01  0.2177E+02
     -1.806  0.4716E+01  0.2241E+02
     -1.668  0.4902E+01  0.2308E+02
     -1.530  0.4888E+01  0.2376E+02
     -1.391  0.4602E+01  0.2441E+02
     -1.253  0.3725E+01  0.2501E+02
     -1.115  0.3248E+01  0.2549E+02
     -0.977  0.3073E+01  0.2592E+02
     -0.839  0.3091E+01  0.2635E+02
     -0.700  0.2811E+01  0.2675E+02
     -0.562  0.3745E+01  0.2721E+02
     -0.424  0.3737E+01  0.2772E+02
     -0.286  0.3355E+01  0.2822E+02
     -0.147  0.3144E+01  0.2866E+02
     -0.009  0.3199E+01  0.2909E+02
      0.129  0.3604E+01  0.2954E+02
      0.267  0.4724E+01  0.3014E+02
      0.406  0.5146E+01  0.3083E+02
      0.544  0.5410E+01  0.3156E+02
      0.682  0.5508E+01  0.3231E+02
      0.820  0.5444E+01  0.3307E+02
      0.959  0.4772E+01  0.3379E+02
      1.097  0.4123E+01  0.3440E+02
      1.235  0.4095E+01  0.3496E+02
      1.373  0.4262E+01  0.3554E+02
      1.511  0.4413E+01  0.3614E+02
      1.650  0.4508E+01  0.3675E+02
      1.788  0.4436E+01  0.3737E+02
      1.926  0.5555E+01  0.3802E+02
      2.064  0.5656E+01  0.3878E+02
      2.203  0.5323E+01  0.3953E+02
      2.341  0.5119E+01  0.4026E+02
      2.479  0.5255E+01  0.4097E+02
      2.617  0.5781E+01  0.4174E+02
      2.756  0.5515E+01  0.4252E+02
      2.894  0.5959E+01  0.4331E+02
      3.032  0.5627E+01  0.4412E+02
      3.170  0.4797E+01  0.4484E+02
      3.309  0.5208E+01  0.4552E+02
      3.447  0.5161E+01  0.4624E+02
      3.585  0.4656E+01  0.4692E+02
      3.723  0.4315E+01  0.4754E+02
      3.861  0.4525E+01  0.4813E+02
      4.000  0.6059E+01  0.4884E+02
      4.138  0.7550E+01  0.4987E+02
      4.276  0.6639E+01  0.5083E+02
      4.414  0.4715E+01  0.5162E+02
      4.553  0.6970E+01  0.5244E+02
      4.691  0.6437E+01  0.5342E+02
      4.829  0.5943E+01  0.5427E+02
      4.967  0.5828E+01  0.5507E+02
      5.106  0.5731E+01  0.5587E+02
      5.244  0.4091E+01  0.5656E+02
      5.382  0.3397E+01  0.5707E+02
      5.520  0.3677E+01  0.5755E+02
      5.659  0.4797E+01  0.5812E+02
      5.797  0.5538E+01  0.5891E+02
      5.935  0.4942E+01  0.5963E+02
      6.073  0.4499E+01  0.6028E+02
      6.211  0.4232E+01  0.6089E+02
      6.350  0.3874E+01  0.6145E+02
      6.488  0.4166E+01  0.6199E+02
      6.626  0.4577E+01  0.6260E+02
      6.764  0.4781E+01  0.6325E+02
      6.903  0.4885E+01  0.6392E+02
      7.041  0.5439E+01  0.6464E+02
      7.179  0.4974E+01  0.6536E+02
      7.317  0.5189E+01  0.6606E+02
      7.456  0.4172E+01  0.6671E+02
      7.594  0.3545E+01  0.6724E+02
      7.732  0.3188E+01  0.6770E+02
      7.870  0.3218E+01  0.6815E+02
      8.009  0.3529E+01  0.6861E+02
      8.147  0.3939E+01  0.6913E+02
      8.285  0.3714E+01  0.6967E+02
      8.423  0.3535E+01  0.7017E+02
      8.561  0.3331E+01  0.7065E+02
      8.700  0.3928E+01  0.7115E+02
      8.838  0.4321E+01  0.7172E+02
      8.976  0.4805E+01  0.7235E+02
      9.114  0.5433E+01  0.7305E+02
      9.253  0.5712E+01  0.7383E+02
      9.391  0.4575E+01  0.7455E+02
      9.529  0.3453E+01  0.7510E+02
      9.667  0.3414E+01  0.7556E+02
      9.806  0.3506E+01  0.7604E+02
      9.944  0.3878E+01  0.7655E+02
     10.082  0.4784E+01  0.7714E+02
     10.220  0.5827E+01  0.7787E+02
     10.359  0.6011E+01  0.7870E+02
     10.497  0.5841E+01  0.7952E+02
     10.635  0.5727E+01  0.8029E+02
     10.773  0.6778E+01  0.8119E+02
     10.911  0.6350E+01  0.8212E+02
     11.050  0.4645E+01  0.8289E+02
     11.188  0.3756E+01  0.8346E+02
     11.326  0.3670E+01  0.8396E+02
     11.464  0.3587E+01  0.8447E+02
     11.603  0.3302E+01  0.8494E+02
     11.741  0.3024E+01  0.8539E+02
     11.879  0.2875E+01  0.8579E+02
     12.017  0.3023E+01  0.8619E+02
     12.156  0.2929E+01  0.8661E+02
     12.294  0.2609E+01  0.8699E+02
     12.432  0.2409E+01  0.8733E+02
     12.570  0.2264E+01  0.8766E+02
     12.709  0.2214E+01  0.8796E+02
     12.847  0.2174E+01  0.8827E+02
     12.985  0.2368E+01  0.8858E+02
     13.123  0.3752E+01  0.8900E+02
     13.261  0.4890E+01  0.8963E+02
     13.400  0.5085E+01  0.9029E+02
     13.538  0.5816E+01  0.9104E+02
     13.676  0.8341E+01  0.9194E+02
     13.814  0.6486E+01  0.9289E+02
     13.953  0.9041E+01  0.9391E+02
     14.091  0.8077E+01  0.9512E+02
     14.229  0.4462E+01  0.9600E+02
     14.367  0.3303E+01  0.9651E+02
     14.506  0.4502E+01  0.9703E+02
     14.644  0.6117E+01  0.9779E+02
     14.782  0.6891E+01  0.9870E+02
     14.920  0.6907E+01  0.9968E+02
     15.059  0.7314E+01  0.1007E+03
     15.197  0.8193E+01  0.1018E+03
     15.335  0.7625E+01  0.1029E+03
     15.473  0.7177E+01  0.1039E+03
     15.611  0.6609E+01  0.1048E+03
     15.750  0.4816E+01  0.1055E+03
     15.888  0.5298E+01  0.1062E+03
     16.026  0.5643E+01  0.1070E+03
     16.164  0.6051E+01  0.1078E+03
     16.303  0.5431E+01  0.1086E+03
     16.441  0.4848E+01  0.1093E+03
     16.579  0.5154E+01  0.1100E+03
     16.717  0.5468E+01  0.1107E+03
     16.856  0.5980E+01  0.1115E+03
     16.994  0.6607E+01  0.1124E+03
     17.132  0.7640E+01  0.1134E+03
     17.270  0.7380E+01  0.1144E+03
     17.409  0.6911E+01  0.1154E+03
     17.547  0.6373E+01  0.1163E+03
     17.685  0.6200E+01  0.1172E+03
     17.823  0.6816E+01  0.1180E+03
     17.961  0.6040E+01  0.1189E+03
     18.100  0.6085E+01  0.1198E+03
     18.238  0.5968E+01  0.1206E+03
     18.376  0.5841E+01  0.1214E+03
     18.514  0.5047E+01  0.1222E+03
     18.653  0.5256E+01  0.1229E+03
     18.791  0.5287E+01  0.1236E+03
     18.929  0.5189E+01  0.1243E+03
     19.067  0.4845E+01  0.1251E+03
     19.206  0.6439E+01  0.1258E+03
     19.344  0.6914E+01  0.1268E+03
     19.482  0.4816E+01  0.1276E+03
     19.620  0.4384E+01  0.1282E+03
     19.759  0.4748E+01  0.1288E+03
     19.897  0.5173E+01  0.1295E+03
     20.035  0.7581E+01  0.1304E+03
     20.173  0.9166E+01  0.1315E+03
     20.311  0.1114E+02  0.1329E+03
     20.450  0.9917E+01  0.1345E+03
     20.588  0.9064E+01  0.1357E+03
     20.726  0.8997E+01  0.1370E+03
     20.864  0.8272E+01  0.1382E+03
     21.003  0.8216E+01  0.1393E+03
     21.141  0.9145E+01  0.1406E+03
     21.279  0.6996E+01  0.1417E+03
     21.417  0.4689E+01  0.1426E+03
     21.556  0.4190E+01  0.1432E+03
     21.694  0.4007E+01  0.1437E+03
     21.832  0.3333E+01  0.1442E+03
     21.970  0.5316E+01  0.1448E+03
     22.109  0.4378E+01  0.1454E+03
     22.247  0.4421E+01  0.1460E+03
     22.385  0.4545E+01  0.1467E+03
     22.523  0.4872E+01  0.1473E+03
     22.662  0.5051E+01  0.1480E+03
     22.800  0.5322E+01  0.1487E+03
     22.938  0.5930E+01  0.1495E+03
     23.076  0.6487E+01  0.1503E+03
     23.214  0.7227E+01  0.1513E+03
     23.353  0.7744E+01  0.1523E+03
     23.491  0.7949E+01  0.1534E+03
     23.629  0.8048E+01  0.1545E+03
     23.767  0.9171E+01  0.1557E+03
     23.906  0.1016E+02  0.1570E+03
     24.044  0.1034E+02  0.1584E+03
     24.182  0.1077E+02  0.1599E+03
     24.320  0.9502E+01  0.1613E+03
     24.459  0.7649E+01  0.1625E+03
     24.597  0.6115E+01  0.1633E+03
     24.735  0.5808E+01  0.1642E+03
     24.873  0.4318E+01  0.1649E+03
     25.012  0.3280E+01  0.1654E+03
     25.150  0.3068E+01  0.1658E+03
     25.288  0.3082E+01  0.1662E+03
     25.426  0.3126E+01  0.1667E+03
     25.564  0.2309E+01  0.1671E+03
     25.703  0.2184E+01  0.1674E+03
     25.841  0.1870E+01  0.1677E+03
     25.979  0.1185E+01  0.1679E+03
     26.117  0.3577E+00  0.1680E+03
     26.256  0.3175E-01  0.1680E+03
     26.394  0.0000E+00  0.1680E+03
     26.532  0.0000E+00  0.1680E+03
     26.670  0.0000E+00  0.1680E+03
     26.809  0.0000E+00  0.1680E+03
     26.947  0.0000E+00  0.1680E+03
     27.085  0.0000E+00  0.1680E+03
     27.223  0.0000E+00  0.1680E+03
     27.362  0.0000E+00  0.1680E+03
     27.500  0.0000E+00  0.1680E+03
     27.638  0.0000E+00  0.1680E+03
     27.776  0.0000E+00  0.1680E+03
     27.914  0.0000E+00  0.1680E+03
     28.053  0.0000E+00  0.1680E+03
     28.191  0.0000E+00  0.1680E+03
     28.329  0.0000E+00  0.1680E+03
