   32   32    1    1
  0.3545204E+01  0.4934311E-09  0.4934311E-09  0.5380594E-09  0.5000000E-15
  1.000000000000000E-004
  CAR 
 graphite                                
    128    163     84
 
  0.0000000E+00  0.0000000E+00  0.0000000E+00  0.3086420E-02
    1      -11.141485
    2       -7.215836
    3       -7.208033
    4       -5.671473
    5       -5.666737
    6       -5.661800
    7       -3.977635
    8       -3.972011
    9       -3.966730
   10       -2.101282
   11       -2.095462
   12       -2.091883
   13       -2.090876
   14       -2.087634
   15       -2.082042
   16        0.439673
   17        0.448412
   18        0.450091
   19        0.452147
   20        0.453619
   21        0.462508
   22        1.310135
   23        4.180460
   24        4.183580
   25        4.188498
   26        5.146788
   27        5.150366
   28        5.154049
   29        8.509164
   30        8.517230
   31        8.521392
   32        8.521880
   33        8.525375
   34        8.533487
   35        8.769590
   36        8.909598
   37        8.927697
   38       11.127630
   39       11.128726
   40       11.130624
   41       12.224710
   42       12.237239
   43       12.241634
   44       12.253606
   45       12.945950
   46       12.950898
   47       12.957028
   48       13.372336
   49       13.381823
   50       13.389951
   51       13.629578
   52       13.631017
   53       16.129945
   54       16.136273
   55       16.143019
   56       16.276979
   57       16.280061
   58       16.283718
   59       16.284503
   60       16.286123
   61       16.291462
   62       16.370098
   63       16.381821
   64       16.386100
   65       19.327765
   66       19.329056
   67       20.855057
   68       20.870056
   69       21.470861
   70       21.474816
   71       21.483407
   72       22.269038
   73       22.283896
   74       22.521840
   75       22.540218
   76       22.543605
   77       22.561115
   78       24.212801
   79       24.216987
   80       24.218676
   81       24.220391
   82       24.221968
   83       24.225576
   84       25.138650
 
  0.1111111E+00  0.2081668E-16  0.0000000E+00  0.6172840E-02
    1      -11.063519
    2       -7.138129
    3       -7.130314
    4       -6.360361
    5       -5.842409
    6       -5.836443
    7       -3.662978
    8       -3.656418
    9       -3.139801
   10       -2.622112
   11       -2.614032
   12       -2.204151
   13       -2.195924
   14       -2.193484
   15       -2.189357
   16        0.681895
   17        0.692152
   18        0.692982
   19        0.697656
   20        1.107707
   21        1.115852
   22        1.387163
   23        3.821783
   24        3.827493
   25        4.264726
   26        4.948831
   27        5.130204
   28        5.135228
   29        8.124642
   30        8.129769
   31        8.133073
   32        8.141950
   33        8.367549
   34        8.582525
   35        8.597722
   36        8.601256
   37        8.815789
   38       10.996072
   39       11.251234
   40       11.253310
   41       11.797107
   42       11.807129
   43       12.044529
   44       12.055362
   45       12.994756
   46       13.001488
   47       13.010721
   48       13.516178
   49       13.527550
   50       13.694776
   51       13.759632
   52       13.974375
   53       16.041215
   54       16.049985
   55       16.160193
   56       16.342041
   57       16.344934
   58       16.583983
   59       16.738386
   60       16.741753
   61       16.744568
   62       16.749602
   63       16.790679
   64       16.798597
   65       19.371348
   66       19.372701
   67       20.672056
   68       21.091975
   69       21.153284
   70       21.162108
   71       21.367681
   72       21.374987
   73       21.572821
   74       22.888257
   75       22.907191
   76       23.822383
   77       23.831187
   78       24.128411
   79       24.135019
   80       24.139556
   81       24.144900
   82       24.147181
   83       24.149674
   84       24.554478
 
  0.2222222E+00  0.1387779E-16  0.0000000E+00  0.6172840E-02
    1      -10.829920
    2       -7.403958
    3       -6.905349
    4       -6.897554
    5       -6.149286
    6       -6.144164
    7       -3.560919
    8       -3.552784
    9       -2.936883
   10       -2.931029
   11       -2.420911
   12       -2.413767
   13       -2.410933
   14       -2.406812
   15       -1.688085
   16        1.302345
   17        1.311903
   18        1.313015
   19        1.317910
   20        1.616276
   21        2.437255
   22        2.445508
   23        2.918419
   24        2.924120
   25        4.436595
   26        4.515555
   27        5.083771
   28        5.088758
   29        7.019828
   30        7.176734
   31        7.181946
   32        7.185059
   33        7.193600
   34        7.854623
   35        8.817350
   36        8.828127
   37        8.950697
   38       10.649127
   39       10.656520
   40       10.666966
   41       11.429507
   42       11.432648
   43       11.567004
   44       11.577657
   45       13.151469
   46       13.235015
   47       13.242783
   48       13.916939
   49       13.922199
   50       13.930407
   51       14.517230
   52       14.738726
   53       15.773157
   54       15.781794
   55       16.230562
   56       16.526562
   57       16.529747
   58       17.164087
   59       17.873332
   60       17.875978
   61       17.878643
   62       17.883677
   63       17.944953
   64       17.953938
   65       19.099305
   66       19.104520
   67       20.108225
   68       20.344854
   69       20.354171
   70       21.165416
   71       21.174454
   72       21.536217
   73       21.879054
   74       23.778175
   75       23.858962
   76       23.868694
   77       23.872971
   78       23.878609
   79       23.901375
   80       23.904173
   81       23.907295
   82       23.909453
   83       24.787113
   84       25.389884
 
  0.3333333E+00  0.1110223E-15  0.0000000E+00  0.6172840E-02
    1      -10.441511
    2       -8.371279
    3       -6.519345
    4       -6.511567
    5       -6.397813
    6       -6.392959
    7       -4.484314
    8       -4.476285
    9       -2.616663
   10       -2.610176
   11       -2.607048
   12       -2.602968
   13       -2.016938
   14       -2.011260
   15       -0.052935
   16        1.781513
   17        1.787081
   18        1.989505
   19        2.136623
   20        2.145708
   21        2.147116
   22        2.152020
   23        3.778164
   24        4.000117
   25        4.008449
   26        4.928144
   27        5.032898
   28        5.037624
   29        5.322369
   30        6.032088
   31        6.037087
   32        6.040353
   33        6.047718
   34        7.006829
   35        9.111882
   36        9.120514
   37        9.172066
   38        9.188171
   39        9.198707
   40       10.252602
   41       10.939075
   42       10.949764
   43       11.486200
   44       11.489531
   45       13.343222
   46       13.700916
   47       13.708397
   48       13.914954
   49       14.482598
   50       14.493973
   51       15.362240
   52       15.370750
   53       15.515102
   54       15.653158
   55       16.298239
   56       16.833858
   57       16.837378
   58       18.013611
   59       18.456044
   60       18.461330
   61       19.242569
   62       19.264770
   63       19.266390
   64       19.268880
   65       19.274046
   66       19.379369
   67       19.389103
   68       19.670386
   69       19.680568
   70       21.188670
   71       21.644852
   72       21.653565
   73       22.392963
   74       23.443362
   75       23.447561
   76       23.450746
   77       23.451510
   78       23.456375
   79       23.464164
   80       24.100557
   81       24.904304
   82       24.966733
   83       25.300899
   84       25.318410
 
  0.4444444E+00  0.2775558E-16  0.0000000E+00  0.6172840E-02
    1       -9.899842
    2       -9.207575
    3       -6.530174
    4       -6.525634
    5       -5.982315
    6       -5.974389
    7       -5.300574
    8       -5.292616
    9       -2.725715
   10       -2.719529
   11       -2.716284
   12       -2.712201
   13       -1.082566
   14       -1.076776
   15        0.709690
   16        0.714689
   17        1.695593
   18        2.493271
   19        2.966493
   20        2.977154
   21        2.978997
   22        2.982694
   23        3.104608
   24        3.508743
   25        4.998889
   26        5.004088
   27        5.022935
   28        5.026898
   29        5.031306
   30        5.037906
   31        5.494948
   32        5.680730
   33        5.689283
   34        6.198368
   35        7.412067
   36        7.420708
   37        9.472922
   38        9.686428
   39        9.697259
   40        9.840914
   41       10.285941
   42       10.296493
   43       11.481091
   44       11.484494
   45       13.560391
   46       13.769664
   47       14.259991
   48       14.267107
   49       14.857345
   50       14.865596
   51       14.969553
   52       14.980804
   53       16.047279
   54       16.277877
   55       16.914322
   56       17.262647
   57       17.266624
   58       17.809582
   59       17.814118
   60       18.149706
   61       18.656348
   62       18.666286
   63       19.040065
   64       20.154062
   65       20.453807
   66       20.455471
   67       20.456382
   68       20.463870
   69       21.799099
   70       21.810003
   71       22.290309
   72       22.298602
   73       22.838930
   74       22.843943
   75       22.847569
   76       22.848735
   77       22.916706
   78       22.924534
   79       23.111104
   80       23.999811
   81       24.194026
   82       24.204794
   83       25.372709
   84       25.570840
 
 -0.8470329E-21  0.1111111E+00  0.0000000E+00  0.6172840E-02
    1      -11.063520
    2       -7.138122
    3       -7.130311
    4       -6.359959
    5       -5.842359
    6       -5.837334
    7       -3.662551
    8       -3.654557
    9       -3.141615
   10       -2.621548
   11       -2.613409
   12       -2.202574
   13       -2.198146
   14       -2.194275
   15       -2.189824
   16        0.683982
   17        0.691980
   18        0.692903
   19        0.700949
   20        1.105559
   21        1.113657
   22        1.387166
   23        3.819907
   24        3.827448
   25        4.266731
   26        4.950199
   27        5.130239
   28        5.133669
   29        8.121339
   30        8.130611
   31        8.132140
   32        8.140863
   33        8.362334
   34        8.591624
   35        8.596541
   36        8.603476
   37        8.815491
   38       10.994393
   39       11.251120
   40       11.255454
   41       11.794874
   42       11.799011
   43       12.053286
   44       12.057259
   45       12.995900
   46       12.999690
   47       13.010808
   48       13.517679
   49       13.531211
   50       13.690026
   51       13.759747
   52       13.974465
   53       16.038897
   54       16.048595
   55       16.163591
   56       16.343429
   57       16.345805
   58       16.585368
   59       16.737768
   60       16.740820
   61       16.745007
   62       16.749191
   63       16.789763
   64       16.797528
   65       19.371636
   66       19.373017
   67       20.671816
   68       21.092127
   69       21.149021
   70       21.162249
   71       21.370542
   72       21.376194
   73       21.576581
   74       22.884140
   75       22.898319
   76       23.829568
   77       23.832109
   78       24.128698
   79       24.132145
   80       24.140482
   81       24.144195
   82       24.147852
   83       24.151506
   84       24.553293
 
  0.1111111E+00  0.1111111E+00  0.0000000E+00  0.6172840E-02
    1      -10.907746
    2       -6.983047
    3       -6.975163
    4       -6.832008
    5       -6.825216
    6       -5.464557
    7       -3.750341
    8       -3.031825
    9       -3.024626
   10       -3.023731
   11       -3.015108
   12       -2.400199
   13       -2.393167
   14       -1.900831
   15       -1.892424
   16        0.662898
   17        0.670930
   18        1.539902
   19        1.773576
   20        1.780410
   21        1.781310
   22        1.791098
   23        2.840004
   24        3.986095
   25        3.989440
   26        4.756948
   27        4.762109
   28        5.276971
   29        7.100857
   30        7.110508
   31        7.510106
   32        7.970642
   33        8.274212
   34        8.282445
   35        8.287382
   36        8.290232
   37        8.910836
   38       10.963255
   39       10.966027
   40       11.055628
   41       11.065312
   42       11.651781
   43       11.660481
   44       11.666026
   45       13.028818
   46       13.178912
   47       13.186743
   48       13.640040
   49       14.023655
   50       14.100270
   51       14.108226
   52       14.402317
   53       15.754602
   54       16.088687
   55       16.095432
   56       16.855387
   57       16.861002
   58       16.861980
   59       16.864670
   60       17.151954
   61       17.163183
   62       17.800838
   63       17.827187
   64       17.830892
   65       19.319451
   66       19.322418
   67       20.231878
   68       20.293762
   69       21.009447
   70       21.017551
   71       21.362003
   72       21.368571
   73       21.462519
   74       23.587520
   75       23.606292
   76       23.825249
   77       23.951207
   78       23.954942
   79       23.956178
   80       23.961962
   81       24.018075
   82       24.025084
   83       24.913591
   84       24.964573
 
  0.2222222E+00  0.1111111E+00  0.0000000E+00  0.6172840E-02
    1      -10.596603
    2       -7.846036
    3       -7.182142
    4       -6.673353
    5       -6.665521
    6       -5.431976
    7       -3.978297
    8       -3.970213
    9       -3.345750
   10       -3.337520
   11       -3.225040
   12       -1.814638
   13       -1.806374
   14       -1.504497
   15       -0.843972
   16        1.111591
   17        1.119778
   18        1.611151
   19        1.841594
   20        2.610356
   21        2.618496
   22        3.168695
   23        3.239788
   24        3.248285
   25        4.159197
   26        4.317596
   27        4.595204
   28        5.370019
   29        5.857066
   30        5.866269
   31        6.103072
   32        7.080206
   33        7.419923
   34        7.429051
   35        8.582692
   36        8.593111
   37        9.093170
   38        9.801398
   39        9.811236
   40       10.546228
   41       10.975215
   42       10.995311
   43       11.006467
   44       11.953627
   45       13.217738
   46       13.436072
   47       13.647115
   48       14.032114
   49       14.214100
   50       14.675695
   51       15.053418
   52       15.089023
   53       15.324668
   54       15.838178
   55       16.164711
   56       17.095585
   57       17.098961
   58       17.835666
   59       18.032181
   60       18.034659
   61       18.378575
   62       18.979456
   63       18.984253
   64       19.083905
   65       19.194826
   66       19.198804
   67       19.447749
   68       19.592037
   69       20.713589
   70       21.144000
   71       21.152198
   72       21.654886
   73       21.793996
   74       23.194303
   75       23.556586
   76       23.560038
   77       23.583341
   78       23.590862
   79       23.742185
   80       23.748744
   81       24.783075
   82       24.801607
   83       25.231023
   84       25.261726
 
  0.3333333E+00  0.1111111E+00  0.0000000E+00  0.6172840E-02
    1      -10.131627
    2       -8.749743
    3       -7.399163
    4       -6.211754
    5       -6.203883
    6       -5.527034
    7       -4.852090
    8       -4.844090
    9       -3.544396
   10       -3.536261
   11       -2.343682
   12       -1.841448
   13       -1.833170
   14       -0.538774
   15        0.366803
   16        0.843296
   17        1.874660
   18        1.883070
   19        2.142180
   20        2.280572
   21        3.484898
   22        3.507163
   23        3.514883
   24        4.400862
   25        4.483820
   26        4.642913
   27        4.652292
   28        4.807149
   29        4.858295
   30        4.866712
   31        5.418001
   32        6.213367
   33        6.404485
   34        6.413444
   35        8.238833
   36        8.247943
   37        9.030289
   38        9.040670
   39        9.359285
   40       10.106474
   41       10.275960
   42       10.286923
   43       10.952932
   44       12.050718
   45       13.636953
   46       13.702892
   47       14.150937
   48       14.269019
   49       14.581248
   50       14.810820
   51       15.246713
   52       15.422583
   53       15.695737
   54       16.197205
   55       16.276853
   56       17.445923
   57       17.449511
   58       18.021908
   59       18.434456
   60       18.439460
   61       18.637717
   62       18.743201
   63       19.387847
   64       19.390188
   65       19.996297
   66       20.128354
   67       20.509995
   68       20.514656
   69       20.885760
   70       21.520640
   71       21.723036
   72       21.730586
   73       22.443816
   74       22.900438
   75       22.903274
   76       23.057619
   77       23.065026
   78       23.291757
   79       23.297793
   80       23.574826
   81       24.283985
   82       24.698229
   83       26.092425
   84       26.183819
 
  0.4444444E+00  0.1111111E+00  0.0000000E+00  0.6172840E-02
    1       -9.518064
    2       -9.511371
    3       -7.472041
    4       -5.607346
    5       -5.598148
    6       -5.597620
    7       -5.591255
    8       -5.570163
    9       -3.611941
   10       -3.603803
   11       -1.862792
   12       -1.854548
   13       -1.657578
   14       -0.435406
   15        0.108166
   16        1.459189
   17        2.445254
   18        2.453708
   19        2.609815
   20        2.614408
   21        2.836070
   22        2.842865
   23        3.927225
   24        3.936318
   25        4.055899
   26        4.064224
   27        4.445506
   28        5.428776
   29        5.442475
   30        5.450058
   31        5.800937
   32        5.810460
   33        6.550221
   34        6.550936
   35        6.555270
   36        6.564355
   37        9.594969
   38        9.611844
   39        9.612910
   40        9.617806
   41        9.699511
   42        9.704319
   43       10.937888
   44       12.063875
   45       13.951750
   46       13.957793
   47       14.042746
   48       14.386672
   49       14.873860
   50       14.897339
   51       14.911459
   52       15.510056
   53       16.074636
   54       16.083554
   55       17.498764
   56       17.502710
   57       17.516614
   58       17.894370
   59       17.900201
   60       17.905066
   61       17.907814
   62       19.668476
   63       19.792162
   64       19.799025
   65       20.169550
   66       20.174562
   67       21.201669
   68       21.206117
   69       22.240063
   70       22.317953
   71       22.385959
   72       22.392335
   73       22.409125
   74       22.416355
   75       22.421951
   76       22.425371
   77       22.933483
   78       22.937787
   79       23.290965
   80       23.301661
   81       23.792488
   82       23.939918
   83       24.599472
   84       24.610502
 
 -0.4444444E+00  0.1111111E+00  0.0000000E+00  0.6172840E-02
    1      -10.131727
    2       -8.749591
    3       -7.399325
    4       -6.211824
    5       -6.203931
    6       -5.527206
    7       -4.851962
    8       -4.843956
    9       -3.544483
   10       -3.536330
   11       -2.340193
   12       -1.841643
   13       -1.833428
   14       -0.542141
   15        0.363188
   16        0.843380
   17        1.878418
   18        1.886729
   19        2.146095
   20        2.280614
   21        3.484548
   22        3.503814
   23        3.511670
   24        4.399778
   25        4.484223
   26        4.639377
   27        4.648179
   28        4.807282
   29        4.858572
   30        4.867249
   31        5.417381
   32        6.213964
   33        6.408007
   34        6.417732
   35        8.237623
   36        8.245654
   37        9.030154
   38        9.040760
   39        9.359006
   40       10.106877
   41       10.278163
   42       10.287631
   43       10.952580
   44       12.051200
   45       13.640344
   46       13.700730
   47       14.154636
   48       14.264684
   49       14.587338
   50       14.805994
   51       15.242258
   52       15.428342
   53       15.695253
   54       16.197217
   55       16.278165
   56       17.444178
   57       17.448258
   58       18.016185
   59       18.437892
   60       18.441799
   61       18.636019
   62       18.744030
   63       19.390553
   64       19.395344
   65       20.000770
   66       20.134866
   67       20.507166
   68       20.508578
   69       20.885432
   70       21.513256
   71       21.722864
   72       21.730847
   73       22.442553
   74       22.896245
   75       22.901986
   76       23.057566
   77       23.064518
   78       23.297270
   79       23.298518
   80       23.576568
   81       24.285700
   82       24.690483
   83       26.099111
   84       26.220786
 
 -0.3333333E+00  0.1111111E+00  0.0000000E+00  0.6172840E-02
    1      -10.596676
    2       -7.845857
    3       -7.182460
    4       -6.673399
    5       -6.665541
    6       -5.432396
    7       -3.978151
    8       -3.970068
    9       -3.345867
   10       -3.337740
   11       -3.220981
   12       -1.815077
   13       -1.806883
   14       -1.508032
   15       -0.844066
   16        1.115893
   17        1.124084
   18        1.607080
   19        1.841620
   20        2.606473
   21        2.614774
   22        3.173379
   23        3.239812
   24        3.248239
   25        4.159109
   26        4.317882
   27        4.595996
   28        5.368881
   29        5.852910
   30        5.861844
   31        6.099639
   32        7.082899
   33        7.424341
   34        7.434260
   35        8.582724
   36        8.593251
   37        9.092909
   38        9.799016
   39        9.805850
   40       10.546664
   41       10.974482
   42       11.001023
   43       11.008362
   44       11.954626
   45       13.220645
   46       13.434402
   47       13.643844
   48       14.040212
   49       14.218434
   50       14.668907
   51       15.052201
   52       15.089985
   53       15.319223
   54       15.844278
   55       16.164490
   56       17.094439
   57       17.098129
   58       17.836614
   59       18.036172
   60       18.039984
   61       18.384199
   62       18.983515
   63       18.987392
   64       19.076318
   65       19.190647
   66       19.192425
   67       19.441039
   68       19.590509
   69       20.720432
   70       21.143664
   71       21.151988
   72       21.656595
   73       21.793093
   74       23.191681
   75       23.552461
   76       23.559120
   77       23.583163
   78       23.590172
   79       23.747548
   80       23.749380
   81       24.782368
   82       24.793619
   83       25.228260
   84       25.263228
 
 -0.2222222E+00  0.1111111E+00  0.0000000E+00  0.6172840E-02
    1      -10.907789
    2       -6.983111
    3       -6.975275
    4       -6.828843
    5       -6.828422
    6       -5.465197
    7       -3.746082
    8       -3.030319
    9       -3.025493
   10       -3.022081
   11       -3.017372
   12       -2.400938
   13       -2.395902
   14       -1.901361
   15       -1.893224
   16        0.667394
   17        0.675465
   18        1.539895
   19        1.771442
   20        1.779421
   21        1.779689
   22        1.787995
   23        2.835627
   24        3.986967
   25        3.993611
   26        4.758807
   27        4.761326
   28        5.275496
   29        7.096393
   30        7.105619
   31        7.502025
   32        7.978433
   33        8.276693
   34        8.285274
   35        8.287016
   36        8.295786
   37        8.910592
   38       10.962831
   39       10.965831
   40       11.050706
   41       11.054869
   42       11.658075
   43       11.666555
   44       11.670655
   45       13.031104
   46       13.180334
   47       13.181891
   48       13.648743
   49       14.027252
   50       14.093898
   51       14.107299
   52       14.400989
   53       15.748581
   54       16.089874
   55       16.100204
   56       16.857814
   57       16.861091
   58       16.864688
   59       16.868113
   60       17.157678
   61       17.162959
   62       17.794900
   63       17.821899
   64       17.825277
   65       19.322623
   66       19.325256
   67       20.223796
   68       20.292586
   69       21.010949
   70       21.018303
   71       21.362743
   72       21.375309
   73       21.463886
   74       23.582781
   75       23.595196
   76       23.820725
   77       23.948822
   78       23.953529
   79       23.955971
   80       23.960636
   81       24.023007
   82       24.025375
   83       24.911956
   84       24.966631
 
 -0.1111111E+00  0.1111111E+00  0.0000000E+00  0.6172840E-02
    1      -11.063534
    2       -7.138136
    3       -7.130329
    4       -6.360163
    5       -5.842786
    6       -5.836956
    7       -3.659514
    8       -3.653886
    9       -3.145126
   10       -2.621521
   11       -2.613174
   12       -2.202747
   13       -2.198570
   14       -2.195974
   15       -2.188269
   16        0.688739
   17        0.692134
   18        0.693980
   19        0.703531
   20        1.101505
   21        1.109602
   22        1.387181
   23        3.819565
   24        3.823183
   25        4.271611
   26        4.951683
   27        5.128784
   28        5.133477
   29        8.119286
   30        8.127709
   31        8.132591
   32        8.135416
   33        8.354216
   34        8.596279
   35        8.599564
   36        8.614601
   37        8.815200
   38       10.993325
   39       11.252761
   40       11.255239
   41       11.783591
   42       11.794319
   43       12.058035
   44       12.068718
   45       12.995311
   46       13.002411
   47       13.008330
   48       13.524312
   49       13.533681
   50       13.681428
   51       13.759849
   52       13.975079
   53       16.036977
   54       16.043829
   55       16.170271
   56       16.348043
   57       16.351095
   58       16.590009
   59       16.735883
   60       16.739156
   61       16.742347
   62       16.744421
   63       16.784713
   64       16.797838
   65       19.372405
   66       19.373855
   67       20.671441
   68       21.092428
   69       21.148925
   70       21.153673
   71       21.373023
   72       21.379859
   73       21.585162
   74       22.872913
   75       22.892526
   76       23.831111
   77       23.839269
   78       24.124519
   79       24.132292
   80       24.143592
   81       24.145316
   82       24.147531
   83       24.151880
   84       24.550649
 
 -0.1694066E-20  0.2222222E+00  0.0000000E+00  0.6172840E-02
    1      -10.829923
    2       -7.403818
    3       -6.905396
    4       -6.897564
    5       -6.150231
    6       -6.143661
    7       -3.560620
    8       -3.552528
    9       -2.937355
   10       -2.928515
   11       -2.420627
   12       -2.414652
   13       -2.412228
   14       -2.406331
   15       -1.689683
   16        1.303601
   17        1.312026
   18        1.313224
   19        1.321521
   20        1.616355
   21        2.435380
   22        2.443532
   23        2.916071
   24        2.924524
   25        4.437627
   26        4.517654
   27        5.083583
   28        5.087432
   29        7.015986
   30        7.173496
   31        7.182747
   32        7.183451
   33        7.192891
   34        7.858949
   35        8.820223
   36        8.829850
   37        8.950498
   38       10.646921
   39       10.652743
   40       10.663319
   41       11.429277
   42       11.435329
   43       11.573888
   44       11.579832
   45       13.150587
   46       13.236089
   47       13.240886
   48       13.918363
   49       13.922398
   50       13.934129
   51       14.512825
   52       14.740306
   53       15.770968
   54       15.780499
   55       16.234143
   56       16.528061
   57       16.530606
   58       17.165242
   59       17.870620
   60       17.874849
   61       17.878926
   62       17.884037
   63       17.944535
   64       17.953234
   65       19.100885
   66       19.105735
   67       20.107332
   68       20.339755
   69       20.354386
   70       21.165693
   71       21.174637
   72       21.536803
   73       21.882846
   74       23.775708
   75       23.853371
   76       23.863951
   77       23.872545
   78       23.876667
   79       23.900402
   80       23.904210
   81       23.908026
   82       23.912055
   83       24.784151
   84       25.392663
 
  0.1111111E+00  0.2222222E+00  0.0000000E+00  0.6172840E-02
    1      -10.596606
    2       -7.845976
    3       -7.182294
    4       -6.673333
    5       -6.665512
    6       -5.432035
    7       -3.978100
    8       -3.970028
    9       -3.346049
   10       -3.337770
   11       -3.224901
   12       -1.814674
   13       -1.806463
   14       -1.502720
   15       -0.845690
   16        1.111852
   17        1.120040
   18        1.611033
   19        1.841639
   20        2.612548
   21        2.620820
   22        3.166756
   23        3.237808
   24        3.246014
   25        4.160097
   26        4.319744
   27        4.594141
   28        5.369865
   29        5.856909
   30        5.866094
   31        6.100903
   32        7.082499
   33        7.417230
   34        7.427021
   35        8.585702
   36        8.595049
   37        9.093077
   38        9.800702
   39        9.807948
   40       10.544893
   41       10.976710
   42       10.999145
   43       11.007085
   44       11.954321
   45       13.216751
   46       13.435753
   47       13.647349
   48       14.032811
   49       14.212587