 running on    6 total cores
 distrk:  each k-point on    6 cores,    1 groups
 distr:  one band on    1 cores,    6 groups
 using from now: INCAR     
 vasp.5.3.5 31Mar14 (build Nov 02 2014 15:17:37) complex                        
  
 POSCAR found :  1 types and      32 ions
 scaLAPACK will be used

 ----------------------------------------------------------------------------- 
|                                                                             |
|           W    W    AA    RRRRR   N    N  II  N    N   GGGG   !!!           |
|           W    W   A  A   R    R  NN   N  II  NN   N  G    G  !!!           |
|           W    W  A    A  R    R  N N  N  II  N N  N  G       !!!           |
|           W WW W  AAAAAA  RRRRR   N  N N  II  N  N N  G  GGG   !            |
|           WW  WW  A    A  R   R   N   NN  II  N   NN  G    G                |
|           W    W  A    A  R    R  N    N  II  N    N   GGGG   !!!           |
|                                                                             |
|      For optimal performance we recommend to set                            |
|        NCORE= 4 - approx SQRT( number of cores)                             |
|      NCORE specifies how many cores store one orbital (NPAR=cpu/NCORE).     |
|      This setting can  greatly improve the performance of VASP for DFT.     |
|      The default, NPAR=number of cores might be grossly inefficient         |
|      on modern multi-core architectures or massively parallel machines.     |
|      Do your own testing !!!!                                               |
|      Unfortunately you need to use the default for GW and RPA calculations. |
|      (for HF NCORE is supported but not extensively tested yet)             |
|                                                                             |
 ----------------------------------------------------------------------------- 


 ----------------------------------------------------------------------------- 
|                                                                             |
|  ADVICE TO THIS USER RUNNING 'VASP/VAMP'   (HEAR YOUR MASTER'S VOICE ...):  |
|                                                                             |
|      You have a (more or less) 'large supercell' and for larger cells       |
|      it might be more efficient to use real space projection operators      |
|      So try LREAL= Auto  in the INCAR   file.                               |
|      Mind: If you want to do a very accurate calculations keep the          |
|      reciprocal projection scheme          (i.e. LREAL=.FALSE.)             |
|                                                                             |
 ----------------------------------------------------------------------------- 

 LDA part: xc-table for Pade appr. of Perdew
 POSCAR, INCAR and KPOINTS ok, starting setup
 WARNING: small aliasing (wrap around) errors must be expected
 FFT: planning ...
 WAVECAR not read
 WARNING: random wavefunctions but no delay for mixing, default for NELMDL
 entering main loop
       N       E                     dE             d eps       ncg     rms          rms(c)
DAV:   1     0.598793698206E+03    0.59879E+03   -0.81222E+04 27384   0.177E+03
DAV:   2    -0.870614922018E+02   -0.68586E+03   -0.64532E+03 33828   0.333E+02
DAV:   3    -0.125187850339E+03   -0.38126E+02   -0.36715E+02 34608   0.651E+01
DAV:   4    -0.125950781220E+03   -0.76293E+00   -0.75520E+00 33096   0.862E+00
DAV:   5    -0.125966609217E+03   -0.15828E-01   -0.15828E-01 33084   0.104E+00    0.231E+01
DAV:   6    -0.114150453919E+03    0.11816E+02   -0.14189E+01 30336   0.134E+01    0.114E+01
DAV:   7    -0.111393494489E+03    0.27570E+01   -0.42264E+00 30948   0.777E+00    0.311E+00
DAV:   8    -0.111247641866E+03    0.14585E+00   -0.44636E-01 31992   0.236E+00    0.520E-01
DAV:   9    -0.111247088910E+03    0.55296E-03   -0.25019E-02 33972   0.548E-01    0.359E-01
DAV:  10    -0.111246251006E+03    0.83790E-03   -0.89230E-03 32820   0.314E-01    0.133E-01
DAV:  11    -0.111246068046E+03    0.18296E-03   -0.12484E-03 32208   0.133E-01    0.536E-02
DAV:  12    -0.111246134513E+03   -0.66467E-04   -0.36727E-04 31296   0.689E-02    0.129E-02
DAV:  13    -0.111246145343E+03   -0.10830E-04   -0.22668E-05 33348   0.184E-02    0.940E-03
DAV:  14    -0.111246138183E+03    0.71599E-05   -0.38909E-06 21708   0.741E-03    0.519E-03
DAV:  15    -0.111246129367E+03    0.88165E-05   -0.21341E-06 17664   0.544E-03    0.151E-03
DAV:  16    -0.111246128195E+03    0.11723E-05   -0.53900E-07 16908   0.280E-03    0.473E-04
DAV:  17    -0.111246128398E+03   -0.20396E-06   -0.92920E-08 16668   0.117E-03
   1 F= -.11693797E+03 E0= -.11693797E+03  d E =0.000000E+00
