   4   4   0   0
  0.8643287E+01  0.2466437E-09  0.2466437E-09  0.6565433E-09  0.5000000E-15
  1.000000000000000E-004
  CAR 
 graphite                                
     18.70412977    -16.78562572  301      4.85901278      1.00000000
    -16.786  0.0000E+00  0.0000E+00
    -16.667  0.0000E+00  0.0000E+00
    -16.549  0.0000E+00  0.0000E+00
    -16.431  0.0000E+00  0.0000E+00
    -16.312  0.0000E+00  0.0000E+00
    -16.194  0.0000E+00  0.0000E+00
    -16.076  0.0000E+00  0.0000E+00
    -15.958  0.0000E+00  0.0000E+00
    -15.839  0.0000E+00  0.0000E+00
    -15.721  0.0000E+00  0.0000E+00
    -15.603  0.0000E+00  0.0000E+00
    -15.484  0.0000E+00  0.0000E+00
    -15.366  0.0000E+00  0.0000E+00
    -15.248  0.0000E+00  0.0000E+00
    -15.129  0.0000E+00  0.0000E+00
    -15.011  0.0000E+00  0.0000E+00
    -14.893  0.0000E+00  0.0000E+00
    -14.775  0.1858E-04  0.6864E-07
    -14.656  0.1064E-02  0.5356E-04
    -14.538  0.1690E-02  0.2272E-03
    -14.420  0.2531E-02  0.4696E-03
    -14.301  0.3278E-02  0.8254E-03
    -14.183  0.3081E-02  0.1191E-02
    -14.065  0.3097E-02  0.1557E-02
    -13.946  0.3090E-02  0.1924E-02
    -13.828  0.3025E-02  0.2284E-02
    -13.710  0.3109E-02  0.2646E-02
    -13.592  0.3157E-02  0.3019E-02
    -13.473  0.3154E-02  0.3392E-02
    -13.355  0.3125E-02  0.3764E-02
    -13.237  0.3061E-02  0.4128E-02
    -13.118  0.3076E-02  0.4491E-02
    -13.000  0.3109E-02  0.4857E-02
    -12.882  0.3166E-02  0.5228E-02
    -12.763  0.3209E-02  0.5606E-02
    -12.645  0.3191E-02  0.5985E-02
    -12.527  0.3168E-02  0.6361E-02
    -12.409  0.3127E-02  0.6733E-02
    -12.290  0.3129E-02  0.7102E-02
    -12.172  0.3145E-02  0.7473E-02
    -12.054  0.3167E-02  0.7847E-02
    -11.935  0.3196E-02  0.8223E-02
    -11.817  0.3232E-02  0.8603E-02
    -11.699  0.3270E-02  0.8988E-02
    -11.580  0.3262E-02  0.9374E-02
    -11.462  0.3252E-02  0.9759E-02
    -11.344  0.3227E-02  0.1014E-01
    -11.226  0.3233E-02  0.1052E-01
    -11.107  0.3249E-02  0.1091E-01
    -10.989  0.3278E-02  0.1129E-01
    -10.871  0.3307E-02  0.1168E-01
    -10.752  0.3337E-02  0.1208E-01
    -10.634  0.3377E-02  0.1247E-01
    -10.516  0.3431E-02  0.1288E-01
    -10.397  0.3495E-02  0.1329E-01
    -10.279  0.3551E-02  0.1370E-01
    -10.161  0.3636E-02  0.1413E-01
    -10.043  0.3757E-02  0.1456E-01
     -9.924  0.3917E-02  0.1502E-01
     -9.806  0.5002E-02  0.1554E-01
     -9.688  0.5522E-02  0.1616E-01
     -9.569  0.5261E-02  0.1683E-01
     -9.451  0.3908E-02  0.1738E-01
     -9.333  0.2896E-02  0.1777E-01
     -9.214  0.2560E-02  0.1809E-01
     -9.096  0.2277E-02  0.1838E-01
     -8.978  0.3731E-02  0.1874E-01
     -8.860  0.3294E-02  0.1912E-01
     -8.741  0.1225E-02  0.1937E-01
     -8.623  0.1083E-02  0.1951E-01
     -8.505  0.9409E-03  0.1963E-01
     -8.386  0.7989E-03  0.1973E-01
     -8.268  0.8527E-03  0.1983E-01
     -8.150  0.1139E-02  0.1994E-01
     -8.031  0.1426E-02  0.2010E-01
     -7.913  0.2160E-02  0.2029E-01
     -7.795  0.4652E-02  0.2069E-01
     -7.677  0.4481E-02  0.2126E-01
     -7.558  0.3498E-02  0.2176E-01
     -7.440  0.4247E-02  0.2222E-01
     -7.322  0.4996E-02  0.2277E-01
     -7.203  0.5746E-02  0.2340E-01
     -7.085  0.5552E-02  0.2411E-01
     -6.967  0.3746E-02  0.2468E-01
     -6.848  0.3495E-02  0.2510E-01
     -6.730  0.3399E-02  0.2551E-01
     -6.612  0.3313E-02  0.2591E-01
     -6.494  0.3229E-02  0.2629E-01
     -6.375  0.3139E-02  0.2667E-01
     -6.257  0.3045E-02  0.2704E-01
     -6.139  0.2950E-02  0.2739E-01
     -6.020  0.2855E-02  0.2773E-01
     -5.902  0.2761E-02  0.2807E-01
     -5.784  0.2666E-02  0.2839E-01
     -5.666  0.2569E-02  0.2870E-01
     -5.547  0.2710E-02  0.2901E-01
     -5.429  0.2941E-02  0.2934E-01
     -5.311  0.3172E-02  0.2970E-01
     -5.192  0.3403E-02  0.3009E-01
     -5.074  0.3634E-02  0.3051E-01
     -4.956  0.3864E-02  0.3095E-01
     -4.837  0.4095E-02  0.3142E-01
     -4.719  0.4138E-02  0.3191E-01
     -4.601  0.4018E-02  0.3240E-01
     -4.483  0.3825E-02  0.3286E-01
     -4.364  0.3823E-02  0.3331E-01
     -4.246  0.3822E-02  0.3376E-01
     -4.128  0.3820E-02  0.3422E-01
     -4.009  0.3837E-02  0.3467E-01
     -3.891  0.3916E-02  0.3513E-01
     -3.773  0.3996E-02  0.3560E-01
     -3.654  0.4173E-02  0.3608E-01
     -3.536  0.4663E-02  0.3660E-01
     -3.418  0.4826E-02  0.3716E-01
     -3.300  0.5076E-02  0.3774E-01
     -3.181  0.5430E-02  0.3836E-01
     -3.063  0.5718E-02  0.3902E-01
     -2.945  0.5863E-02  0.3971E-01
     -2.826  0.6071E-02  0.4041E-01
     -2.708  0.6423E-02  0.4115E-01
     -2.590  0.6964E-02  0.4194E-01
     -2.471  0.7236E-02  0.4279E-01
     -2.353  0.7022E-02  0.4364E-01
     -2.235  0.6478E-02  0.4443E-01
     -2.117  0.6279E-02  0.4518E-01
     -1.998  0.6643E-02  0.4593E-01
     -1.880  0.7899E-02  0.4680E-01
     -1.762  0.8793E-02  0.4778E-01
     -1.643  0.9943E-02  0.4889E-01
     -1.525  0.1108E-01  0.5016E-01
     -1.407  0.1199E-01  0.5180E-01
     -1.288  0.9769E-02  0.5306E-01
     -1.170  0.8786E-02  0.5416E-01
     -1.052  0.7829E-02  0.5514E-01
     -0.934  0.6274E-02  0.5600E-01
     -0.815  0.4767E-02  0.5663E-01
     -0.697  0.4792E-02  0.5719E-01
     -0.579  0.5172E-02  0.5777E-01
     -0.460  0.5673E-02  0.5841E-01
     -0.342  0.7101E-02  0.5914E-01
     -0.224  0.7074E-02  0.6000E-01
     -0.105  0.9020E-02  0.6087E-01
      0.013  0.7930E-02  0.6185E-01
      0.131  0.7233E-02  0.6275E-01
      0.249  0.6713E-02  0.6357E-01
      0.368  0.6404E-02  0.6434E-01
      0.486  0.6150E-02  0.6509E-01
      0.604  0.5928E-02  0.6580E-01
      0.723  0.5723E-02  0.6649E-01
      0.841  0.5948E-02  0.6717E-01
      0.959  0.5919E-02  0.6788E-01
      1.078  0.5795E-02  0.6857E-01
      1.196  0.5682E-02  0.6925E-01
      1.314  0.5918E-02  0.6995E-01
      1.432  0.5607E-02  0.7064E-01
      1.551  0.5993E-02  0.7129E-01
      1.669  0.5507E-02  0.7199E-01
      1.787  0.4603E-02  0.7259E-01
      1.906  0.4429E-02  0.7312E-01
      2.024  0.4420E-02  0.7365E-01
      2.142  0.4242E-02  0.7416E-01
      2.261  0.4203E-02  0.7466E-01
      2.379  0.4187E-02  0.7516E-01
      2.497  0.4206E-02  0.7565E-01
      2.615  0.4205E-02  0.7615E-01
      2.734  0.4228E-02  0.7665E-01
      2.852  0.4379E-02  0.7717E-01
      2.970  0.3478E-02  0.7764E-01
      3.089  0.2962E-02  0.7802E-01
      3.207  0.2496E-02  0.7834E-01
      3.325  0.2069E-02  0.7861E-01
      3.444  0.1814E-02  0.7884E-01
      3.562  0.1638E-02  0.7904E-01
      3.680  0.1462E-02  0.7922E-01
      3.798  0.1283E-02  0.7939E-01
      3.917  0.1105E-02  0.7953E-01
      4.035  0.9362E-03  0.7965E-01
      4.153  0.7684E-03  0.7975E-01
      4.272  0.6137E-03  0.7983E-01
      4.390  0.4736E-03  0.7989E-01
      4.508  0.3424E-03  0.7994E-01
      4.627  0.2188E-03  0.7998E-01
      4.745  0.1012E-03  0.7999E-01
      4.863  0.5089E-05  0.8000E-01
      4.981  0.7913E-04  0.8000E-01
      5.100  0.1652E-03  0.8002E-01
      5.218  0.2586E-03  0.8004E-01
      5.336  0.3613E-03  0.8008E-01
      5.455  0.4737E-03  0.8013E-01
      5.573  0.6014E-03  0.8019E-01
      5.691  0.7546E-03  0.8027E-01
      5.810  0.9307E-03  0.8037E-01
      5.928  0.1165E-02  0.8049E-01
      6.046  0.1778E-02  0.8067E-01
      6.164  0.2153E-02  0.8091E-01
      6.283  0.2270E-02  0.8117E-01
      6.401  0.3323E-02  0.8149E-01
      6.519  0.6433E-02  0.8205E-01
      6.638  0.4560E-02  0.8271E-01
      6.756  0.4426E-02  0.8324E-01
      6.874  0.4314E-02  0.8376E-01
      6.993  0.4202E-02  0.8426E-01
      7.111  0.4150E-02  0.8475E-01
      7.229  0.4154E-02  0.8525E-01
      7.347  0.3869E-02  0.8573E-01
      7.466  0.3265E-02  0.8613E-01
      7.584  0.3090E-02  0.8651E-01
      7.702  0.2938E-02  0.8687E-01
      7.821  0.2804E-02  0.8721E-01
      7.939  0.2688E-02  0.8753E-01
      8.057  0.2602E-02  0.8784E-01
      8.176  0.2534E-02  0.8815E-01
      8.294  0.2477E-02  0.8844E-01
      8.412  0.2426E-02  0.8873E-01
      8.530  0.2376E-02  0.8902E-01
      8.649  0.2326E-02  0.8930E-01
      8.767  0.2277E-02  0.8957E-01
      8.885  0.2227E-02  0.8983E-01
      9.004  0.2161E-02  0.9009E-01
      9.122  0.2102E-02  0.9035E-01
      9.240  0.2051E-02  0.9059E-01
      9.358  0.2006E-02  0.9083E-01
      9.477  0.2045E-02  0.9107E-01
      9.595  0.2222E-02  0.9132E-01
      9.713  0.2273E-02  0.9159E-01
      9.832  0.2302E-02  0.9186E-01
      9.950  0.2371E-02  0.9213E-01
     10.068  0.2432E-02  0.9242E-01
     10.187  0.2464E-02  0.9271E-01
     10.305  0.2488E-02  0.9300E-01
     10.423  0.2526E-02  0.9330E-01
     10.541  0.2737E-02  0.9361E-01
     10.660  0.3019E-02  0.9395E-01
     10.778  0.3338E-02  0.9432E-01
     10.896  0.3504E-02  0.9473E-01
     11.015  0.2881E-02  0.9512E-01
     11.133  0.2620E-02  0.9545E-01
     11.251  0.2389E-02  0.9574E-01
     11.370  0.2231E-02  0.9602E-01
     11.488  0.2065E-02  0.9627E-01
     11.606  0.1950E-02  0.9651E-01
     11.724  0.1874E-02  0.9673E-01
     11.843  0.1848E-02  0.9695E-01
     11.961  0.1978E-02  0.9718E-01
     12.079  0.2273E-02  0.9742E-01
     12.198  0.3426E-02  0.9776E-01
     12.316  0.5051E-02  0.9825E-01
     12.434  0.6293E-02  0.9893E-01
     12.553  0.7583E-02  0.9974E-01
     12.671  0.8816E-02  0.1007E+00
     12.789  0.9956E-02  0.1018E+00
     12.907  0.9890E-02  0.1030E+00
     13.026  0.9671E-02  0.1042E+00
     13.144  0.9866E-02  0.1053E+00
     13.262  0.1309E-01  0.1068E+00
     13.381  0.1242E-01  0.1083E+00
     13.499  0.8650E-02  0.1096E+00
     13.617  0.6081E-02  0.1104E+00
     13.736  0.5756E-02  0.1111E+00
     13.854  0.5501E-02  0.1118E+00
     13.972  0.5489E-02  0.1125E+00
     14.090  0.5095E-02  0.1131E+00
     14.209  0.4501E-02  0.1137E+00
     14.327  0.3966E-02  0.1142E+00
     14.445  0.3487E-02  0.1146E+00
     14.564  0.3086E-02  0.1150E+00
     14.682  0.3095E-02  0.1154E+00
     14.800  0.3583E-02  0.1157E+00
     14.919  0.4319E-02  0.1163E+00
     15.037  0.3687E-02  0.1167E+00
     15.155  0.3783E-02  0.1172E+00
     15.273  0.4275E-02  0.1176E+00
     15.392  0.4173E-02  0.1182E+00
     15.510  0.2939E-02  0.1186E+00
     15.628  0.2232E-02  0.1189E+00
     15.747  0.1873E-02  0.1191E+00
     15.865  0.1580E-02  0.1193E+00
     15.983  0.1454E-02  0.1195E+00
     16.102  0.1284E-02  0.1197E+00
     16.220  0.8882E-03  0.1198E+00
     16.338  0.6000E-03  0.1199E+00
     16.456  0.4307E-03  0.1199E+00
     16.575  0.2384E-03  0.1200E+00
     16.693  0.1692E-05  0.1200E+00
     16.811  0.0000E+00  0.1200E+00
     16.930  0.0000E+00  0.1200E+00
     17.048  0.0000E+00  0.1200E+00
     17.166  0.0000E+00  0.1200E+00
     17.285  0.0000E+00  0.1200E+00
     17.403  0.0000E+00  0.1200E+00
     17.521  0.0000E+00  0.1200E+00
     17.639  0.0000E+00  0.1200E+00
     17.758  0.0000E+00  0.1200E+00
     17.876  0.0000E+00  0.1200E+00
     17.994  0.0000E+00  0.1200E+00
     18.113  0.0000E+00  0.1200E+00
     18.231  0.0000E+00  0.1200E+00
     18.349  0.0000E+00  0.1200E+00
     18.468  0.0000E+00  0.1200E+00
     18.586  0.0000E+00  0.1200E+00
     18.704  0.0000E+00  0.1200E+00
