  32  32   0   0
  0.8119452E+01  0.4932875E-09  0.4932875E-09  0.1233506E-08  0.5000000E-15
  1.000000000000000E-004
  CAR 
 graphite                                
     17.30366162    -16.29879778  301      5.42729237      1.00000000
    -16.299  0.0000E+00  0.0000E+00
    -16.187  0.0000E+00  0.0000E+00
    -16.075  0.0000E+00  0.0000E+00
    -15.963  0.0000E+00  0.0000E+00
    -15.851  0.0000E+00  0.0000E+00
    -15.739  0.0000E+00  0.0000E+00
    -15.627  0.0000E+00  0.0000E+00
    -15.515  0.0000E+00  0.0000E+00
    -15.403  0.0000E+00  0.0000E+00
    -15.291  0.0000E+00  0.0000E+00
    -15.179  0.0000E+00  0.0000E+00
    -15.067  0.0000E+00  0.0000E+00
    -14.955  0.0000E+00  0.0000E+00
    -14.843  0.0000E+00  0.0000E+00
    -14.731  0.0000E+00  0.0000E+00
    -14.619  0.0000E+00  0.0000E+00
    -14.507  0.0000E+00  0.0000E+00
    -14.395  0.0000E+00  0.0000E+00
    -14.283  0.9216E-01  0.4961E-03
    -14.171  0.1427E+01  0.1041E+00
    -14.059  0.2246E+01  0.3096E+00
    -13.947  0.2796E+01  0.5917E+00
    -13.835  0.3542E+01  0.9447E+00
    -13.723  0.4764E+01  0.1400E+01
    -13.611  0.4896E+01  0.1949E+01
    -13.499  0.4905E+01  0.2501E+01
    -13.387  0.4981E+01  0.3053E+01
    -13.275  0.4966E+01  0.3611E+01
    -13.163  0.4928E+01  0.4163E+01
    -13.051  0.5372E+01  0.4736E+01
    -12.939  0.5559E+01  0.5349E+01
    -12.827  0.6234E+01  0.6016E+01
    -12.715  0.5584E+01  0.6698E+01
    -12.603  0.4795E+01  0.7265E+01
    -12.491  0.2635E+01  0.7633E+01
    -12.379  0.3753E+01  0.8010E+01
    -12.267  0.3485E+01  0.8404E+01
    -12.154  0.5685E+01  0.9068E+01
    -12.042  0.5231E+01  0.9665E+01
    -11.930  0.5255E+01  0.1024E+02
    -11.818  0.5503E+01  0.1087E+02
    -11.706  0.4856E+01  0.1143E+02
    -11.594  0.5253E+01  0.1200E+02
    -11.482  0.5031E+01  0.1258E+02
    -11.370  0.4986E+01  0.1313E+02
    -11.258  0.5084E+01  0.1370E+02
    -11.146  0.5398E+01  0.1429E+02
    -11.034  0.5066E+01  0.1489E+02
    -10.922  0.5015E+01  0.1545E+02
    -10.810  0.5107E+01  0.1601E+02
    -10.698  0.5209E+01  0.1659E+02
    -10.586  0.5282E+01  0.1718E+02
    -10.474  0.5346E+01  0.1778E+02
    -10.362  0.5581E+01  0.1838E+02
    -10.250  0.5733E+01  0.1902E+02
    -10.138  0.5935E+01  0.1967E+02
    -10.026  0.6139E+01  0.2035E+02
     -9.914  0.6053E+01  0.2105E+02
     -9.802  0.5097E+01  0.2167E+02
     -9.690  0.4103E+01  0.2218E+02
     -9.578  0.4158E+01  0.2264E+02
     -9.466  0.4924E+01  0.2314E+02
     -9.354  0.5359E+01  0.2372E+02
     -9.242  0.5602E+01  0.2434E+02
     -9.130  0.6318E+01  0.2499E+02
     -9.018  0.6984E+01  0.2573E+02
     -8.906  0.8394E+01  0.2659E+02
     -8.794  0.8961E+01  0.2761E+02
     -8.682  0.6045E+01  0.2850E+02
     -8.570  0.4884E+01  0.2910E+02
     -8.458  0.4155E+01  0.2965E+02
     -8.346  0.3249E+01  0.3004E+02
     -8.234  0.2851E+01  0.3038E+02
     -8.122  0.2560E+01  0.3068E+02
     -8.010  0.2750E+01  0.3100E+02
     -7.898  0.2283E+01  0.3127E+02
     -7.786  0.1864E+01  0.3151E+02
     -7.674  0.2128E+01  0.3172E+02
     -7.562  0.4647E+01  0.3203E+02
     -7.450  0.6052E+01  0.3270E+02
     -7.338  0.4227E+01  0.3322E+02
     -7.226  0.4145E+01  0.3369E+02
     -7.114  0.6012E+01  0.3425E+02
     -7.002  0.6549E+01  0.3493E+02
     -6.890  0.6763E+01  0.3573E+02
     -6.778  0.7969E+01  0.3655E+02
     -6.666  0.8092E+01  0.3749E+02
     -6.554  0.7269E+01  0.3835E+02
     -6.442  0.6090E+01  0.3908E+02
     -6.330  0.5795E+01  0.3974E+02
     -6.218  0.5564E+01  0.4038E+02
     -6.106  0.5363E+01  0.4099E+02
     -5.994  0.5177E+01  0.4158E+02
     -5.882  0.4987E+01  0.4215E+02
     -5.770  0.4863E+01  0.4270E+02
     -5.658  0.4828E+01  0.4324E+02
     -5.546  0.4762E+01  0.4378E+02
     -5.434  0.4618E+01  0.4431E+02
     -5.322  0.4515E+01  0.4482E+02
     -5.210  0.3688E+01  0.4529E+02
     -5.098  0.3861E+01  0.4569E+02
     -4.986  0.4536E+01  0.4616E+02
     -4.874  0.5264E+01  0.4671E+02
     -4.762  0.6017E+01  0.4735E+02
     -4.650  0.8168E+01  0.4812E+02
     -4.538  0.9285E+01  0.4910E+02
     -4.426  0.8255E+01  0.5015E+02
     -4.314  0.5468E+01  0.5092E+02
     -4.202  0.2851E+01  0.5138E+02
     -4.090  0.2413E+01  0.5165E+02
     -3.978  0.3442E+01  0.5197E+02
     -3.866  0.4928E+01  0.5244E+02
     -3.754  0.6732E+01  0.5309E+02
     -3.642  0.7923E+01  0.5393E+02
     -3.530  0.7713E+01  0.5482E+02
     -3.418  0.6258E+01  0.5560E+02
     -3.306  0.5885E+01  0.5627E+02
     -3.194  0.8577E+01  0.5709E+02
     -3.082  0.8206E+01  0.5803E+02
     -2.970  0.7849E+01  0.5892E+02
     -2.858  0.7604E+01  0.5979E+02
     -2.746  0.7465E+01  0.6064E+02
     -2.634  0.7778E+01  0.6159E+02
     -2.522  0.9183E+01  0.6258E+02
     -2.410  0.9071E+01  0.6364E+02
     -2.298  0.7587E+01  0.6457E+02
     -2.186  0.7267E+01  0.6538E+02
     -2.074  0.8385E+01  0.6625E+02
     -1.962  0.1028E+02  0.6729E+02
     -1.850  0.1110E+02  0.6849E+02
     -1.738  0.1231E+02  0.6981E+02
     -1.626  0.9865E+01  0.7106E+02
     -1.514  0.1159E+02  0.7225E+02
     -1.402  0.1317E+02  0.7363E+02
     -1.290  0.1422E+02  0.7520E+02
     -1.178  0.1294E+02  0.7675E+02
     -1.066  0.1580E+02  0.7824E+02
     -0.954  0.1029E+02  0.7970E+02
     -0.842  0.1901E+02  0.8128E+02
     -0.730  0.1776E+02  0.8340E+02
     -0.618  0.1468E+02  0.8525E+02
     -0.506  0.1368E+02  0.8684E+02
     -0.394  0.1171E+02  0.8828E+02
     -0.282  0.9816E+01  0.8947E+02
     -0.170  0.9910E+01  0.9057E+02
     -0.058  0.1028E+02  0.9168E+02
      0.054  0.1318E+02  0.9298E+02
      0.166  0.1489E+02  0.9448E+02
      0.278  0.9712E+01  0.9592E+02
      0.390  0.9111E+01  0.9696E+02
      0.502  0.9225E+01  0.9794E+02
      0.614  0.1007E+02  0.9902E+02
      0.726  0.1101E+02  0.1002E+03
      0.838  0.1087E+02  0.1015E+03
      0.950  0.1046E+02  0.1027E+03
      1.062  0.9364E+01  0.1038E+03
      1.174  0.9254E+01  0.1048E+03
      1.286  0.9358E+01  0.1058E+03
      1.398  0.9425E+01  0.1069E+03
      1.511  0.9119E+01  0.1079E+03
      1.623  0.9887E+01  0.1090E+03
      1.735  0.9878E+01  0.1101E+03
      1.847  0.9544E+01  0.1112E+03
      1.959  0.8941E+01  0.1122E+03
      2.071  0.8602E+01  0.1132E+03
      2.183  0.9234E+01  0.1142E+03
      2.295  0.9471E+01  0.1152E+03
      2.407  0.8369E+01  0.1163E+03
      2.519  0.6079E+01  0.1171E+03
      2.631  0.7010E+01  0.1178E+03
      2.743  0.6714E+01  0.1186E+03
      2.855  0.3448E+01  0.1192E+03
      2.967  0.3156E+01  0.1196E+03
      3.079  0.6674E+01  0.1201E+03
      3.191  0.8565E+01  0.1210E+03
      3.303  0.8203E+01  0.1219E+03
      3.415  0.5341E+01  0.1226E+03
      3.527  0.5758E+01  0.1232E+03
      3.639  0.5301E+01  0.1238E+03
      3.751  0.5993E+01  0.1244E+03
      3.863  0.5413E+01  0.1251E+03
      3.975  0.3909E+01  0.1256E+03
      4.087  0.3225E+01  0.1260E+03
      4.199  0.2869E+01  0.1264E+03
      4.311  0.2517E+01  0.1267E+03
      4.423  0.2128E+01  0.1269E+03
      4.535  0.1774E+01  0.1271E+03
      4.647  0.1578E+01  0.1273E+03
      4.759  0.1367E+01  0.1275E+03
      4.871  0.1180E+01  0.1276E+03
      4.983  0.1019E+01  0.1278E+03
      5.095  0.8848E+00  0.1279E+03
      5.207  0.5671E+00  0.1279E+03
      5.319  0.2543E+00  0.1280E+03
      5.431  0.0000E+00  0.1280E+03
      5.543  0.1284E+00  0.1280E+03
      5.655  0.2883E+00  0.1280E+03
      5.767  0.4559E+00  0.1281E+03
      5.879  0.6315E+00  0.1281E+03
      5.991  0.8202E+00  0.1282E+03
      6.103  0.9860E+00  0.1283E+03
      6.215  0.1196E+01  0.1284E+03
      6.327  0.1459E+01  0.1286E+03
      6.439  0.1720E+01  0.1288E+03
      6.551  0.2038E+01  0.1290E+03
      6.663  0.2593E+01  0.1292E+03
      6.775  0.3882E+01  0.1296E+03
      6.887  0.4873E+01  0.1301E+03
      6.999  0.8758E+01  0.1308E+03
      7.111  0.8996E+01  0.1320E+03
      7.223  0.7480E+01  0.1330E+03
      7.335  0.7185E+01  0.1338E+03
      7.447  0.6925E+01  0.1346E+03
      7.559  0.7148E+01  0.1354E+03
      7.671  0.5630E+01  0.1361E+03
      7.783  0.4678E+01  0.1367E+03
      7.895  0.4113E+01  0.1372E+03
      8.007  0.4038E+01  0.1376E+03
      8.119  0.3548E+01  0.1380E+03
      8.231  0.3635E+01  0.1384E+03
      8.343  0.3960E+01  0.1389E+03
      8.455  0.4412E+01  0.1393E+03
      8.567  0.4799E+01  0.1399E+03
      8.679  0.4979E+01  0.1404E+03
      8.791  0.4839E+01  0.1410E+03
      8.903  0.4407E+01  0.1415E+03
      9.015  0.4084E+01  0.1420E+03
      9.127  0.4009E+01  0.1424E+03
      9.239  0.3890E+01  0.1428E+03
      9.351  0.3696E+01  0.1433E+03
      9.463  0.3576E+01  0.1437E+03
      9.575  0.3497E+01  0.1441E+03
      9.687  0.3378E+01  0.1445E+03
      9.799  0.3261E+01  0.1448E+03
      9.911  0.3209E+01  0.1452E+03
     10.023  0.3205E+01  0.1456E+03
     10.135  0.3060E+01  0.1459E+03
     10.247  0.2972E+01  0.1462E+03
     10.359  0.2995E+01  0.1466E+03
     10.471  0.2950E+01  0.1469E+03
     10.583  0.2938E+01  0.1472E+03
     10.695  0.3017E+01  0.1476E+03
     10.807  0.3209E+01  0.1479E+03
     10.919  0.3422E+01  0.1483E+03
     11.031  0.3459E+01  0.1487E+03
     11.143  0.3436E+01  0.1491E+03
     11.255  0.3899E+01  0.1495E+03
     11.367  0.3972E+01  0.1499E+03
     11.479  0.4025E+01  0.1504E+03
     11.591  0.3857E+01  0.1508E+03
     11.703  0.3790E+01  0.1512E+03
     11.815  0.3842E+01  0.1517E+03
     11.927  0.4013E+01  0.1521E+03
     12.039  0.4682E+01  0.1526E+03
     12.151  0.3428E+01  0.1531E+03
     12.263  0.3382E+01  0.1534E+03
     12.375  0.2399E+01  0.1538E+03
     12.487  0.2796E+01  0.1540E+03
     12.599  0.4112E+01  0.1544E+03
     12.711  0.5505E+01  0.1550E+03
     12.823  0.7744E+01  0.1558E+03
     12.935  0.9292E+01  0.1568E+03
     13.047  0.1025E+02  0.1578E+03
     13.159  0.1110E+02  0.1590E+03
     13.271  0.1206E+02  0.1604E+03
     13.383  0.1114E+02  0.1617E+03
     13.495  0.1057E+02  0.1629E+03
     13.607  0.9889E+01  0.1640E+03
     13.719  0.9948E+01  0.1651E+03
     13.831  0.9674E+01  0.1663E+03
     13.943  0.5227E+01  0.1671E+03
     14.055  0.2994E+01  0.1675E+03
     14.167  0.1592E+01  0.1678E+03
     14.279  0.6873E+00  0.1679E+03
     14.391  0.2174E+00  0.1680E+03
     14.503  0.1293E+00  0.1680E+03
     14.615  0.8244E-01  0.1680E+03
     14.727  0.5775E-01  0.1680E+03
     14.839  0.3748E-01  0.1680E+03
     14.951  0.2157E-01  0.1680E+03
     15.063  0.1003E-01  0.1680E+03
     15.176  0.2857E-02  0.1680E+03
     15.288  0.4536E-04  0.1680E+03
     15.400  0.0000E+00  0.1680E+03
     15.512  0.0000E+00  0.1680E+03
     15.624  0.0000E+00  0.1680E+03
     15.736  0.0000E+00  0.1680E+03
     15.848  0.0000E+00  0.1680E+03
     15.960  0.0000E+00  0.1680E+03
     16.072  0.0000E+00  0.1680E+03
     16.184  0.0000E+00  0.1680E+03
     16.296  0.0000E+00  0.1680E+03
     16.408  0.0000E+00  0.1680E+03
     16.520  0.0000E+00  0.1680E+03
     16.632  0.0000E+00  0.1680E+03
     16.744  0.0000E+00  0.1680E+03
     16.856  0.0000E+00  0.1680E+03
     16.968  0.0000E+00  0.1680E+03
     17.080  0.0000E+00  0.1680E+03
     17.192  0.0000E+00  0.1680E+03
     17.304  0.0000E+00  0.1680E+03
