<?xml version="1.0" encoding="ISO-8859-1"?>
<modeling>
 <generator>
  <i name="program" type="string">vasp </i>
  <i name="version" type="string">5.3.5  </i>
  <i name="subversion" type="string">31Mar14 (build Nov 02 2014 15:17:37) complex                          parallel </i>
  <i name="platform" type="string">ion-Intel-MKL </i>
  <i name="date" type="string">2016 10 19 </i>
  <i name="time" type="string">04:20:23 </i>
 </generator>
 <incar>
  <i type="string" name="SYSTEM">graphite</i>
  <i type="string" name="PREC">accurate</i>
  <i type="int" name="NELM">   200</i>
  <i type="int" name="IBRION">    -1</i>
  <i name="EDIFF">      0.00000001</i>
  <i name="EDIFFG">      0.00100000</i>
  <i type="int" name="NSW">     0</i>
  <i type="int" name="ISIF">     2</i>
  <i name="ENCUT">    800.00000000</i>
  <i type="int" name="ISMEAR">    -5</i>
  <i type="logical" name="LWAVE"> F  </i>
  <i type="logical" name="LCHARG"> F  </i>
  <i type="int" name="NELM">   200</i>
  <i type="string" name="GGA">PE</i>
 </incar>
 <kpoints>
  <generation param="Gamma">
   <v type="int" name="divisions">       6        6        4 </v>
   <v name="usershift">      0.00000000       0.00000000       0.00000000 </v>
   <v name="genvec1">      0.16666667       0.00000000       0.00000000 </v>
   <v name="genvec2">      0.00000000       0.16666667       0.00000000 </v>
   <v name="genvec3">      0.00000000       0.00000000       0.25000000 </v>
   <v name="shift">      0.00000000       0.00000000       0.00000000 </v>
  </generation>
  <varray name="kpointlist" >
   <v>       0.00000000       0.00000000       0.00000000 </v>
   <v>       0.16666667       0.00000000       0.00000000 </v>
   <v>       0.33333333       0.00000000       0.00000000 </v>
   <v>       0.50000000       0.00000000       0.00000000 </v>
   <v>       0.00000000       0.16666667       0.00000000 </v>
   <v>       0.16666667       0.16666667       0.00000000 </v>
   <v>       0.33333333       0.16666667       0.00000000 </v>
   <v>       0.50000000       0.16666667       0.00000000 </v>
   <v>      -0.33333333       0.16666667       0.00000000 </v>
   <v>      -0.16666667       0.16666667       0.00000000 </v>
   <v>       0.00000000       0.33333333       0.00000000 </v>
   <v>       0.16666667       0.33333333       0.00000000 </v>
   <v>       0.33333333       0.33333333       0.00000000 </v>
   <v>       0.50000000       0.33333333       0.00000000 </v>
   <v>      -0.33333333       0.33333333       0.00000000 </v>
   <v>      -0.16666667       0.33333333       0.00000000 </v>
   <v>       0.00000000       0.50000000       0.00000000 </v>
   <v>       0.16666667       0.50000000       0.00000000 </v>
   <v>       0.33333333       0.50000000       0.00000000 </v>
   <v>       0.50000000       0.50000000       0.00000000 </v>
   <v>       0.00000000       0.00000000       0.25000000 </v>
   <v>       0.16666667       0.00000000       0.25000000 </v>
   <v>       0.33333333       0.00000000       0.25000000 </v>
   <v>       0.50000000       0.00000000       0.25000000 </v>
   <v>      -0.33333333      -0.00000000       0.25000000 </v>
   <v>      -0.16666667      -0.00000000       0.25000000 </v>
   <v>       0.00000000       0.16666667       0.25000000 </v>
   <v>       0.16666667       0.16666667       0.25000000 </v>
   <v>       0.33333333       0.16666667       0.25000000 </v>
   <v>       0.50000000       0.16666667       0.25000000 </v>
   <v>      -0.33333333       0.16666667       0.25000000 </v>
   <v>      -0.16666667       0.16666667       0.25000000 </v>
   <v>       0.00000000       0.33333333       0.25000000 </v>
   <v>       0.16666667       0.33333333       0.25000000 </v>
   <v>       0.33333333       0.33333333       0.25000000 </v>
   <v>       0.50000000       0.33333333       0.25000000 </v>
   <v>      -0.33333333       0.33333333       0.25000000 </v>
   <v>      -0.16666667       0.33333333       0.25000000 </v>
   <v>       0.00000000       0.50000000       0.25000000 </v>
   <v>       0.16666667       0.50000000       0.25000000 </v>
   <v>       0.33333333       0.50000000       0.25000000 </v>
   <v>       0.50000000       0.50000000       0.25000000 </v>
   <v>      -0.33333333       0.50000000       0.25000000 </v>
   <v>      -0.16666667       0.50000000       0.25000000 </v>
   <v>      -0.00000000      -0.33333333       0.25000000 </v>
   <v>       0.16666667      -0.33333333       0.25000000 </v>
   <v>       0.33333333      -0.33333333       0.25000000 </v>
   <v>       0.50000000      -0.33333333       0.25000000 </v>
   <v>      -0.33333333      -0.33333333       0.25000000 </v>
   <v>      -0.16666667      -0.33333333       0.25000000 </v>
   <v>      -0.00000000      -0.16666667       0.25000000 </v>
   <v>       0.16666667      -0.16666667       0.25000000 </v>
   <v>       0.33333333      -0.16666667       0.25000000 </v>
   <v>       0.50000000      -0.16666667       0.25000000 </v>
   <v>      -0.33333333      -0.16666667       0.25000000 </v>
   <v>      -0.16666667      -0.16666667       0.25000000 </v>
   <v>       0.00000000       0.00000000       0.50000000 </v>
   <v>       0.16666667       0.00000000       0.50000000 </v>
   <v>       0.33333333       0.00000000       0.50000000 </v>
   <v>       0.50000000       0.00000000       0.50000000 </v>
   <v>       0.00000000       0.16666667       0.50000000 </v>
   <v>       0.16666667       0.16666667       0.50000000 </v>
   <v>       0.33333333       0.16666667       0.50000000 </v>
   <v>       0.50000000       0.16666667       0.50000000 </v>
   <v>      -0.33333333       0.16666667       0.50000000 </v>
   <v>      -0.16666667       0.16666667       0.50000000 </v>
   <v>       0.00000000       0.33333333       0.50000000 </v>
   <v>       0.16666667       0.33333333       0.50000000 </v>
   <v>       0.33333333       0.33333333       0.50000000 </v>
   <v>       0.50000000       0.33333333       0.50000000 </v>
   <v>      -0.33333333       0.33333333       0.50000000 </v>
   <v>      -0.16666667       0.33333333       0.50000000 </v>
   <v>       0.00000000       0.50000000       0.50000000 </v>
   <v>       0.16666667       0.50000000       0.50000000 </v>
   <v>       0.33333333       0.50000000       0.50000000 </v>
   <v>       0.50000000       0.50000000       0.50000000 </v>
  </varray>
  <varray name="weights" >
   <v>       0.00694444 </v>
   <v>       0.01388889 </v>
   <v>       0.01388889 </v>
   <v>       0.00694444 </v>
   <v>       0.01388889 </v>
   <v>       0.01388889 </v>
   <v>       0.01388889 </v>
   <v>       0.01388889 </v>
   <v>       0.01388889 </v>
   <v>       0.01388889 </v>
   <v>       0.01388889 </v>
   <v>       0.01388889 </v>
   <v>       0.01388889 </v>
   <v>       0.01388889 </v>
   <v>       0.01388889 </v>
   <v>       0.01388889 </v>
   <v>       0.00694444 </v>
   <v>       0.01388889 </v>
   <v>       0.01388889 </v>
   <v>       0.00694444 </v>
   <v>       0.01388889 </v>
   <v>       0.01388889 </v>
   <v>       0.01388889 </v>
   <v>       0.01388889 </v>
   <v>       0.01388889 </v>
   <v>       0.01388889 </v>
   <v>       0.01388889 </v>
   <v>       0.01388889 </v>
   <v>       0.01388889 </v>
   <v>       0.01388889 </v>
   <v>       0.01388889 </v>
   <v>       0.01388889 </v>
   <v>       0.01388889 </v>
   <v>       0.01388889 </v>
   <v>       0.01388889 </v>
   <v>       0.01388889 </v>
   <v>       0.01388889 </v>
   <v>       0.01388889 </v>
   <v>       0.01388889 </v>
   <v>       0.01388889 </v>
   <v>       0.01388889 </v>
   <v>       0.01388889 </v>
   <v>       0.01388889 </v>
   <v>       0.01388889 </v>
   <v>       0.01388889 </v>
   <v>       0.01388889 </v>
   <v>       0.01388889 </v>
   <v>       0.01388889 </v>
   <v>       0.01388889 </v>
   <v>       0.01388889 </v>
   <v>       0.01388889 </v>
   <v>       0.01388889 </v>
   <v>       0.01388889 </v>
   <v>       0.01388889 </v>
   <v>       0.01388889 </v>
   <v>       0.01388889 </v>
   <v>       0.00694444 </v>
   <v>       0.01388889 </v>
   <v>       0.01388889 </v>
   <v>       0.00694444 </v>
   <v>       0.01388889 </v>
   <v>       0.01388889 </v>
   <v>       0.01388889 </v>
   <v>       0.01388889 </v>
   <v>       0.01388889 </v>
   <v>       0.01388889 </v>
   <v>       0.01388889 </v>
   <v>       0.01388889 </v>
   <v>       0.01388889 </v>
   <v>       0.01388889 </v>
   <v>       0.01388889 </v>
   <v>       0.01388889 </v>
   <v>       0.00694444 </v>
   <v>       0.01388889 </v>
   <v>       0.01388889 </v>
   <v>       0.00694444 </v>
  </varray>
  <varray name="tetrahedronlist"  type="int" >
   <v type="int" >        2        2        5        6       27 </v>
   <v type="int" >        2        1        2        5       27 </v>
   <v type="int" >        2        1        2       21       27 </v>
   <v type="int" >        2        2        6       27       28 </v>
   <v type="int" >        2        2       22       27       28 </v>
   <v type="int" >        2        2       21       22       27 </v>
   <v type="int" >        2        3        6        7       28 </v>
   <v type="int" >        2        2        3        6       28 </v>
   <v type="int" >        2        2        3       22       28 </v>
   <v type="int" >        2        3        7       28       29 </v>
   <v type="int" >        2        3       23       28       29 </v>
   <v type="int" >        2        3       22       23       28 </v>
   <v type="int" >        2        4        7        8       29 </v>
   <v type="int" >        2        3        4        7       29 </v>
   <v type="int" >        2        3        4       23       29 </v>
   <v type="int" >        2        4        8       29       30 </v>
   <v type="int" >        2        4       24       29       30 </v>
   <v type="int" >        2        4       23       24       29 </v>
   <v type="int" >        2        3        8        9       30 </v>
   <v type="int" >        2        3        4        8       30 </v>
   <v type="int" >        2        3        4       24       30 </v>
   <v type="int" >        2        3        9       30       31 </v>
   <v type="int" >        2        3       25       30       31 </v>
   <v type="int" >        2        3       24       25       30 </v>
   <v type="int" >        2        2        9       10       31 </v>
   <v type="int" >        2        2        3        9       31 </v>
   <v type="int" >        2        2        3       25       31 </v>
   <v type="int" >        2        2       10       31       32 </v>
   <v type="int" >        2        2       26       31       32 </v>
   <v type="int" >        2        2       25       26       31 </v>
   <v type="int" >        2        1        5       10       32 </v>
   <v type="int" >        2        1        2       10       32 </v>
   <v type="int" >        2        1        2       26       32 </v>
   <v type="int" >        2        1        5       27       32 </v>
   <v type="int" >        2        1       21       27       32 </v>
   <v type="int" >        2        1       21       26       32 </v>
   <v type="int" >        2        6       11       12       33 </v>
   <v type="int" >        2        5        6       11       33 </v>
   <v type="int" >        2        5        6       27       33 </v>
   <v type="int" >        2        6       12       33       34 </v>
   <v type="int" >        2        6       28       33       34 </v>
   <v type="int" >        2        6       27       28       33 </v>
   <v type="int" >        2        7       12       13       34 </v>
   <v type="int" >        2        6        7       12       34 </v>
   <v type="int" >        2        6        7       28       34 </v>
   <v type="int" >        2        7       13       34       35 </v>
   <v type="int" >        2        7       29       34       35 </v>
   <v type="int" >        2        7       28       29       34 </v>
   <v type="int" >        2        8       13       14       35 </v>
   <v type="int" >        2        7        8       13       35 </v>
   <v type="int" >        2        7        8       29       35 </v>
   <v type="int" >        2        8       14       35       36 </v>
   <v type="int" >        2        8       30       35       36 </v>
   <v type="int" >        2        8       29       30       35 </v>
   <v type="int" >        2        9       14       15       36 </v>
   <v type="int" >        2        8        9       14       36 </v>
   <v type="int" >        2        8        9       30       36 </v>
   <v type="int" >        2        9       15       36       37 </v>
   <v type="int" >        2        9       31       36       37 </v>
   <v type="int" >        2        9       30       31       36 </v>
   <v type="int" >        2       10       15       16       37 </v>
   <v type="int" >        2        9       10       15       37 </v>
   <v type="int" >        2        9       10       31       37 </v>
   <v type="int" >        2       10       16       37       38 </v>
   <v type="int" >        2       10       32       37       38 </v>
   <v type="int" >        2       10       31       32       37 </v>
   <v type="int" >        2        5       11       16       38 </v>
   <v type="int" >        2        5       10       16       38 </v>
   <v type="int" >        2        5       10       32       38 </v>
   <v type="int" >        2        5       11       33       38 </v>
   <v type="int" >        2        5       27       33       38 </v>
   <v type="int" >        2        5       27       32       38 </v>
   <v type="int" >        2       12       17       18       39 </v>
   <v type="int" >        2       11       12       17       39 </v>
   <v type="int" >        2       11       12       33       39 </v>
   <v type="int" >        2       12       18       39       40 </v>
   <v type="int" >        2       12       34       39       40 </v>
   <v type="int" >        2       12       33       34       39 </v>
   <v type="int" >        2       13       18       19       40 </v>
   <v type="int" >        2       12       13       18       40 </v>
   <v type="int" >        2       12       13       34       40 </v>
   <v type="int" >        2       13       19       40       41 </v>
   <v type="int" >        2       13       35       40       41 </v>
   <v type="int" >        2       13       34       35       40 </v>
   <v type="int" >        2       14       19       20       41 </v>
   <v type="int" >        2       13       14       19       41 </v>
   <v type="int" >        2       13       14       35       41 </v>
   <v type="int" >        2       14       20       41       42 </v>
   <v type="int" >        2       14       36       41       42 </v>
   <v type="int" >        2       14       35       36       41 </v>
   <v type="int" >        2       15       19       20       42 </v>
   <v type="int" >        2       14       15       20       42 </v>
   <v type="int" >        2       14       15       36       42 </v>
   <v type="int" >        2       15       19       42       43 </v>
   <v type="int" >        2       15       37       42       43 </v>
   <v type="int" >        2       15       36       37       42 </v>
   <v type="int" >        2       16       18       19       43 </v>
   <v type="int" >        2       15       16       19       43 </v>
   <v type="int" >        2       15       16       37       43 </v>
   <v type="int" >        2       16       18       43       44 </v>
   <v type="int" >        2       16       38       43       44 </v>
   <v type="int" >        2       16       37       38       43 </v>
   <v type="int" >        2       11       17       18       44 </v>
   <v type="int" >        2       11       16       18       44 </v>
   <v type="int" >        2       11       16       38       44 </v>
   <v type="int" >        2       11       17       39       44 </v>
   <v type="int" >        2       11       33       39       44 </v>
   <v type="int" >        2       11       33       38       44 </v>
   <v type="int" >        2       11       16       18       45 </v>
   <v type="int" >        2       11       17       18       45 </v>
   <v type="int" >        2       17       18       39       45 </v>
   <v type="int" >        2       16       18       45       46 </v>
   <v type="int" >        2       18       40       45       46 </v>
   <v type="int" >        2       18       39       40       45 </v>
   <v type="int" >        2       15       16       19       46 </v>
   <v type="int" >        2       16       18       19       46 </v>
   <v type="int" >        2       18       19       40       46 </v>
   <v type="int" >        2       15       19       46       47 </v>
   <v type="int" >        2       19       41       46       47 </v>
   <v type="int" >        2       19       40       41       46 </v>
   <v type="int" >        2       14       15       20       47 </v>
   <v type="int" >        2       15       19       20       47 </v>
   <v type="int" >        2       19       20       41       47 </v>
   <v type="int" >        2       14       20       47       48 </v>
   <v type="int" >        2       20       42       47       48 </v>
   <v type="int" >        2       20       41       42       47 </v>
   <v type="int" >        2       13       14       19       48 </v>
   <v type="int" >        2       14       19       20       48 </v>
   <v type="int" >        2       19       20       42       48 </v>
   <v type="int" >        2       13       19       48       49 </v>
   <v type="int" >        2       19       43       48       49 </v>
   <v type="int" >        2       19       42       43       48 </v>
   <v type="int" >        2       12       13       18       49 </v>
   <v type="int" >        2       13       18       19       49 </v>
   <v type="int" >        2       18       19       43       49 </v>
   <v type="int" >        2       12       18       49       50 </v>
   <v type="int" >        2       18       44       49       50 </v>
   <v type="int" >        2       18       43       44       49 </v>
   <v type="int" >        2       11       12       17       50 </v>
   <v type="int" >        2       12       17       18       50 </v>
   <v type="int" >        2       17       18       44       50 </v>
   <v type="int" >        2       11       17       45       50 </v>
   <v type="int" >        2       17       39       45       50 </v>
   <v type="int" >        2       17       39       44       50 </v>
   <v type="int" >        2        5       10       16       51 </v>
   <v type="int" >        2        5       11       16       51 </v>
   <v type="int" >        2       11       16       45       51 </v>
   <v type="int" >        2       10       16       51       52 </v>
   <v type="int" >        2       16       46       51       52 </v>
   <v type="int" >        2       16       45       46       51 </v>
   <v type="int" >        2        9       10       15       52 </v>
   <v type="int" >        2       10       15       16       52 </v>
   <v type="int" >        2       15       16       46       52 </v>
   <v type="int" >        2        9       15       52       53 </v>
   <v type="int" >        2       15       47       52       53 </v>
   <v type="int" >        2       15       46       47       52 </v>
   <v type="int" >        2        8        9       14       53 </v>
   <v type="int" >        2        9       14       15       53 </v>
   <v type="int" >        2       14       15       47       53 </v>
   <v type="int" >        2        8       14       53       54 </v>
   <v type="int" >        2       14       48       53       54 </v>
   <v type="int" >        2       14       47       48       53 </v>
   <v type="int" >        2        7        8       13       54 </v>
   <v type="int" >        2        8       13       14       54 </v>
   <v type="int" >        2       13       14       48       54 </v>
   <v type="int" >        2        7       13       54       55 </v>
   <v type="int" >        2       13       49       54       55 </v>
   <v type="int" >        2       13       48       49       54 </v>
   <v type="int" >        2        6        7       12       55 </v>
   <v type="int" >        2        7       12       13       55 </v>
   <v type="int" >        2       12       13       49       55 </v>
   <v type="int" >        2        6       12       55       56 </v>
   <v type="int" >        2       12       50       55       56 </v>
   <v type="int" >        2       12       49       50       55 </v>
   <v type="int" >        2        5        6       11       56 </v>
   <v type="int" >        2        6       11       12       56 </v>
   <v type="int" >        2       11       12       50       56 </v>
   <v type="int" >        2        5       11       51       56 </v>
   <v type="int" >        2       11       45       51       56 </v>
   <v type="int" >        2       11       45       50       56 </v>
   <v type="int" >        2        1        2       10       21 </v>
   <v type="int" >        2        1        5       10       21 </v>
   <v type="int" >        2        5       10       21       51 </v>
   <v type="int" >        2        2       10       21       22 </v>
   <v type="int" >        2       10       21       22       52 </v>
   <v type="int" >        2       10       21       51       52 </v>
   <v type="int" >        2        2        3        9       22 </v>
   <v type="int" >        2        2        9       10       22 </v>
   <v type="int" >        2        9       10       22       52 </v>
   <v type="int" >        2        3        9       22       23 </v>
   <v type="int" >        2        9       22       23       53 </v>
   <v type="int" >        2        9       22       52       53 </v>
   <v type="int" >        2        3        4        8       23 </v>
   <v type="int" >        2        3        8        9       23 </v>
   <v type="int" >        2        8        9       23       53 </v>
   <v type="int" >        2        4        8       23       24 </v>
   <v type="int" >        2        8       23       24       54 </v>
   <v type="int" >        2        8       23       53       54 </v>
   <v type="int" >        2        3        4        7       24 </v>
   <v type="int" >        2        4        7        8       24 </v>
   <v type="int" >        2        7        8       24       54 </v>
   <v type="int" >        2        3        7       24       25 </v>
   <v type="int" >        2        7       24       25       55 </v>
   <v type="int" >        2        7       24       54       55 </v>
   <v type="int" >        2        2        3        6       25 </v>
   <v type="int" >        2        3        6        7       25 </v>
   <v type="int" >        2        6        7       25       55 </v>
   <v type="int" >        2        2        6       25       26 </v>
   <v type="int" >        2        6       25       26       56 </v>
   <v type="int" >        2        6       25       55       56 </v>
   <v type="int" >        2        1        2        5       26 </v>
   <v type="int" >        2        2        5        6       26 </v>
   <v type="int" >        2        5        6       26       56 </v>
   <v type="int" >        2        1        5       21       26 </v>
   <v type="int" >        2        5       21       26       51 </v>
   <v type="int" >        2        5       26       51       56 </v>
   <v type="int" >        2       22       27       28       61 </v>
   <v type="int" >        2       21       22       27       61 </v>
   <v type="int" >        2       21       22       57       61 </v>
   <v type="int" >        2       22       28       61       62 </v>
   <v type="int" >        2       22       58       61       62 </v>
   <v type="int" >        2       22       57       58       61 </v>
   <v type="int" >        2       23       28       29       62 </v>
   <v type="int" >        2       22       23       28       62 </v>
   <v type="int" >        2       22       23       58       62 </v>
   <v type="int" >        2       23       29       62       63 </v>
   <v type="int" >        2       23       59       62       63 </v>
   <v type="int" >        2       23       58       59       62 </v>
   <v type="int" >        2       24       29       30       63 </v>
   <v type="int" >        2       23       24       29       63 </v>
   <v type="int" >        2       23       24       59       63 </v>
   <v type="int" >        2       24       30       63       64 </v>
   <v type="int" >        2       24       60       63       64 </v>
   <v type="int" >        2       24       59       60       63 </v>
   <v type="int" >        2       25       30       31       64 </v>
   <v type="int" >        2       24       25       30       64 </v>
   <v type="int" >        2       24       25       60       64 </v>
   <v type="int" >        2       25       31       64       65 </v>
   <v type="int" >        2       25       59       64       65 </v>
   <v type="int" >        2       25       59       60       64 </v>
   <v type="int" >        2       26       31       32       65 </v>
   <v type="int" >        2       25       26       31       65 </v>
   <v type="int" >        2       25       26       59       65 </v>
   <v type="int" >        2       26       32       65       66 </v>
   <v type="int" >        2       26       58       65       66 </v>
   <v type="int" >        2       26       58       59       65 </v>
   <v type="int" >        2       21       27       32       66 </v>
   <v type="int" >        2       21       26       32       66 </v>
   <v type="int" >        2       21       26       58       66 </v>
   <v type="int" >        2       21       27       61       66 </v>
   <v type="int" >        2       21       57       61       66 </v>
   <v type="int" >        2       21       57       58       66 </v>
   <v type="int" >        2       28       33       34       67 </v>
   <v type="int" >        2       27       28       33       67 </v>
   <v type="int" >        2       27       28       61       67 </v>
   <v type="int" >        2       28       34       67       68 </v>
   <v type="int" >        2       28       62       67       68 </v>
   <v type="int" >        2       28       61       62       67 </v>
   <v type="int" >        2       29       34       35       68 </v>
   <v type="int" >        2       28       29       34       68 </v>
   <v type="int" >        2       28       29       62       68 </v>
   <v type="int" >        2       29       35       68       69 </v>
   <v type="int" >        2       29       63       68       69 </v>
   <v type="int" >        2       29       62       63       68 </v>
   <v type="int" >        2       30       35       36       69 </v>
   <v type="int" >        2       29       30       35       69 </v>
   <v type="int" >        2       29       30       63       69 </v>
   <v type="int" >        2       30       36       69       70 </v>
   <v type="int" >        2       30       64       69       70 </v>
   <v type="int" >        2       30       63       64       69 </v>
   <v type="int" >        2       31       36       37       70 </v>
   <v type="int" >        2       30       31       36       70 </v>
   <v type="int" >        2       30       31       64       70 </v>
   <v type="int" >        2       31       37       70       71 </v>
   <v type="int" >        2       31       65       70       71 </v>
   <v type="int" >        2       31       64       65       70 </v>
   <v type="int" >        2       32       37       38       71 </v>
   <v type="int" >        2       31       32       37       71 </v>
   <v type="int" >        2       31       32       65       71 </v>
   <v type="int" >        2       32       38       71       72 </v>
   <v type="int" >        2       32       66       71       72 </v>
   <v type="int" >        2       32       65       66       71 </v>
   <v type="int" >        2       27       33       38       72 </v>
   <v type="int" >        2       27       32       38       72 </v>
   <v type="int" >        2       27       32       66       72 </v>
   <v type="int" >        2       27       33       67       72 </v>
   <v type="int" >        2       27       61       67       72 </v>
   <v type="int" >        2       27       61       66       72 </v>
   <v type="int" >        2       34       39       40       73 </v>
   <v type="int" >        2       33       34       39       73 </v>
   <v type="int" >        2       33       34       67       73 </v>
   <v type="int" >        2       34       40       73       74 </v>
   <v type="int" >        2       34       68       73       74 </v>
   <v type="int" >        2       34       67       68       73 </v>
   <v type="int" >        2       35       40       41       74 </v>
   <v type="int" >        2       34       35       40       74 </v>
   <v type="int" >        2       34       35       68       74 </v>
   <v type="int" >        2       35       41       74       75 </v>
   <v type="int" >        2       35       69       74       75 </v>
   <v type="int" >        2       35       68       69       74 </v>
   <v type="int" >        2       36       41       42       75 </v>
   <v type="int" >        2       35       36       41       75 </v>
   <v type="int" >        2       35       36       69       75 </v>
   <v type="int" >        2       36       42       75       76 </v>
   <v type="int" >        2       36       70       75       76 </v>
   <v type="int" >        2       36       69       70       75 </v>
   <v type="int" >        2       37       42       43       76 </v>
   <v type="int" >        2       36       37       42       76 </v>
   <v type="int" >        2       36       37       70       76 </v>
   <v type="int" >        2       37       43       75       76 </v>
   <v type="int" >        2       37       71       75       76 </v>
   <v type="int" >        2       37       70       71       76 </v>
   <v type="int" >        2       38       43       44       75 </v>
   <v type="int" >        2       37       38       43       75 </v>
   <v type="int" >        2       37       38       71       75 </v>
   <v type="int" >        2       38       44       74       75 </v>
   <v type="int" >        2       38       72       74       75 </v>
   <v type="int" >        2       38       71       72       75 </v>
   <v type="int" >        2       33       39       44       74 </v>
   <v type="int" >        2       33       38       44       74 </v>
   <v type="int" >        2       33       38       72       74 </v>
   <v type="int" >        2       33       39       73       74 </v>
   <v type="int" >        2       33       67       73       74 </v>
   <v type="int" >        2       33       67       72       74 </v>
   <v type="int" >        2       40       45       46       67 </v>
   <v type="int" >        2       39       40       45       67 </v>
   <v type="int" >        2       39       40       67       73 </v>
   <v type="int" >        2       40       46       67       72 </v>
   <v type="int" >        2       40       67       72       74 </v>
   <v type="int" >        2       40       67       73       74 </v>
   <v type="int" >        2       41       46       47       72 </v>
   <v type="int" >        2       40       41       46       72 </v>
   <v type="int" >        2       40       41       72       74 </v>
   <v type="int" >        2       41       47       71       72 </v>
   <v type="int" >        2       41       71       72       75 </v>
   <v type="int" >        2       41       72       74       75 </v>
   <v type="int" >        2       42       47       48       71 </v>
   <v type="int" >        2       41       42       47       71 </v>
   <v type="int" >        2       41       42       71       75 </v>
   <v type="int" >        2       42       48       70       71 </v>
   <v type="int" >        2       42       70       71       76 </v>
   <v type="int" >        2       42       71       75       76 </v>
   <v type="int" >        2       43       48       49       70 </v>
   <v type="int" >        2       42       43       48       70 </v>
   <v type="int" >        2       42       43       70       76 </v>
   <v type="int" >        2       43       49       69       70 </v>
   <v type="int" >        2       43       69       70       75 </v>
   <v type="int" >        2       43       70       75       76 </v>
   <v type="int" >        2       44       49       50       69 </v>
   <v type="int" >        2       43       44       49       69 </v>
   <v type="int" >        2       43       44       69       75 </v>
   <v type="int" >        2       44       50       68       69 </v>
   <v type="int" >        2       44       68       69       74 </v>
   <v type="int" >        2       44       69       74       75 </v>
   <v type="int" >        2       39       45       50       68 </v>
   <v type="int" >        2       39       44       50       68 </v>
   <v type="int" >        2       39       44       68       74 </v>
   <v type="int" >        2       39       45       67       68 </v>
   <v type="int" >        2       39       67       68       73 </v>
   <v type="int" >        2       39       68       73       74 </v>
   <v type="int" >        2       46       51       52       61 </v>
   <v type="int" >        2       45       46       51       61 </v>
   <v type="int" >        2       45       46       61       67 </v>
   <v type="int" >        2       46       52       61       66 </v>
   <v type="int" >        2       46       61       66       72 </v>
   <v type="int" >        2       46       61       67       72 </v>
   <v type="int" >        2       47       52       53       66 </v>
   <v type="int" >        2       46       47       52       66 </v>
   <v type="int" >        2       46       47       66       72 </v>
   <v type="int" >        2       47       53       65       66 </v>
   <v type="int" >        2       47       65       66       71 </v>
   <v type="int" >        2       47       66       71       72 </v>
   <v type="int" >        2       48       53       54       65 </v>
   <v type="int" >        2       47       48       53       65 </v>
   <v type="int" >        2       47       48       65       71 </v>
   <v type="int" >        2       48       54       64       65 </v>
   <v type="int" >        2       48       64       65       70 </v>
   <v type="int" >        2       48       65       70       71 </v>
   <v type="int" >        2       49       54       55       64 </v>
   <v type="int" >        2       48       49       54       64 </v>
   <v type="int" >        2       48       49       64       70 </v>
   <v type="int" >        2       49       55       63       64 </v>
   <v type="int" >        2       49       63       64       69 </v>
   <v type="int" >        2       49       64       69       70 </v>
   <v type="int" >        2       50       55       56       63 </v>
   <v type="int" >        2       49       50       55       63 </v>
   <v type="int" >        2       49       50       63       69 </v>
   <v type="int" >        2       50       56       62       63 </v>
   <v type="int" >        2       50       62       63       68 </v>
   <v type="int" >        2       50       63       68       69 </v>
   <v type="int" >        2       45       51       56       62 </v>
   <v type="int" >        2       45       50       56       62 </v>
   <v type="int" >        2       45       50       62       68 </v>
   <v type="int" >        2       45       51       61       62 </v>
   <v type="int" >        2       45       61       62       67 </v>
   <v type="int" >        2       45       62       67       68 </v>
   <v type="int" >        2       21       22       52       57 </v>
   <v type="int" >        2       21       51       52       57 </v>
   <v type="int" >        2       51       52       57       61 </v>
   <v type="int" >        2       22       52       57       58 </v>
   <v type="int" >        2       52       57       58       66 </v>
   <v type="int" >        2       52       57       61       66 </v>
   <v type="int" >        2       22       23       53       58 </v>
   <v type="int" >        2       22       52       53       58 </v>
   <v type="int" >        2       52       53       58       66 </v>
   <v type="int" >        2       23       53       58       59 </v>
   <v type="int" >        2       53       58       59       65 </v>
   <v type="int" >        2       53       58       65       66 </v>
   <v type="int" >        2       23       24       54       59 </v>
   <v type="int" >        2       23       53       54       59 </v>
   <v type="int" >        2       53       54       59       65 </v>
   <v type="int" >        2       24       54       59       60 </v>
   <v type="int" >        2       54       59       60       64 </v>
   <v type="int" >        2       54       59       64       65 </v>
   <v type="int" >        2       24       25       55       60 </v>
   <v type="int" >        2       24       54       55       60 </v>
   <v type="int" >        2       54       55       60       64 </v>
   <v type="int" >        2       25       55       59       60 </v>
   <v type="int" >        2       55       59       60       63 </v>
   <v type="int" >        2       55       60       63       64 </v>
   <v type="int" >        2       25       26       56       59 </v>
   <v type="int" >        2       25       55       56       59 </v>
   <v type="int" >        2       55       56       59       63 </v>
   <v type="int" >        2       26       56       58       59 </v>
   <v type="int" >        2       56       58       59       62 </v>
   <v type="int" >        2       56       59       62       63 </v>
   <v type="int" >        2       21       26       51       58 </v>
   <v type="int" >        2       26       51       56       58 </v>
   <v type="int" >        2       51       56       58       62 </v>
   <v type="int" >        2       21       51       57       58 </v>
   <v type="int" >        2       51       57       58       61 </v>
   <v type="int" >        2       51       58       61       62 </v>
  </varray>
  <i name="volumeweight">      0.00115741 </i>
 </kpoints>
 <parameters>
  <separator name="general" >
   <i type="string" name="SYSTEM">graphite</i>
   <i type="logical" name="LCOMPAT"> F  </i>
  </separator>
  <separator name="electronic" >
   <i type="string" name="PREC">accura</i>
   <i name="ENMAX">    800.00000000</i>
   <i name="ENAUG">    644.87300000</i>
   <i name="EDIFF">      0.00000001</i>
   <i type="int" name="IALGO">    38</i>
   <i type="int" name="IWAVPR">    10</i>
   <i type="int" name="NBANDS">    84</i>
   <i name="NELECT">    128.00000000</i>
   <i type="int" name="TURBO">     0</i>
   <i type="int" name="IRESTART">     0</i>
   <i type="int" name="NREBOOT">     0</i>
   <i type="int" name="NMIN">     0</i>
   <i name="EREF">      0.00000000</i>
   <separator name="electronic smearing" >
    <i type="int" name="ISMEAR">    -5</i>
    <i name="SIGMA">      0.20000000</i>
    <i name="KSPACING">      0.50000000</i>
    <i type="logical" name="KGAMMA"> T  </i>
   </separator>
   <separator name="electronic projectors" >
    <i type="logical" name="LREAL"> F  </i>
    <v name="ROPT">      0.00000000</v>
    <i type="int" name="LMAXPAW">  -100</i>
    <i type="int" name="LMAXMIX">     2</i>
    <i type="logical" name="NLSPLINE"> F  </i>
   </separator>
   <separator name="electronic startup" >
    <i type="int" name="ISTART">     0</i>
    <i type="int" name="ICHARG">     2</i>
    <i type="int" name="INIWAV">     1</i>
   </separator>
   <separator name="electronic spin" >
    <i type="int" name="ISPIN">     1</i>
    <i type="logical" name="LNONCOLLINEAR"> F  </i>
    <v name="MAGMOM">      1.00000000      1.00000000      1.00000000      1.00000000      1.00000000      1.00000000      1.00000000      1.00000000      1.00000000      1.00000000      1.00000000      1.00000000      1.00000000      1.00000000      1.00000000      1.00000000      1.00000000      1.00000000      1.00000000      1.00000000
      1.00000000      1.00000000      1.00000000      1.00000000      1.00000000      1.00000000      1.00000000      1.00000000      1.00000000      1.00000000      1.00000000      1.00000000</v>
    <i name="NUPDOWN">     -1.00000000</i>
    <i type="logical" name="LSORBIT"> F  </i>
    <v name="SAXIS">      0.00000000      0.00000000      1.00000000</v>
    <i type="logical" name="LSPIRAL"> F  </i>
    <v name="QSPIRAL">      0.00000000      0.00000000      0.00000000</v>
    <i type="logical" name="LZEROZ"> F  </i>
   </separator>
   <separator name="electronic exchange-correlation" >
    <i type="logical" name="LASPH"> F  </i>
    <i type="logical" name="LMETAGGA"> F  </i>
   </separator>
   <separator name="electronic convergence" >
    <i type="int" name="NELM">   200</i>
    <i type="int" name="NELMDL">     0</i>
    <i type="int" name="NELMIN">     2</i>
    <i name="ENINI">    800.00000000</i>
    <separator name="electronic convergence detail" >
     <i type="logical" name="LDIAG"> T  </i>
     <i type="logical" name="LSUBROT"> F  </i>
     <i name="WEIMIN">      0.00000000</i>
     <i name="EBREAK">      0.00000000</i>
     <i name="DEPER">      0.30000000</i>
     <i type="int" name="NRMM">     4</i>
     <i name="TIME">      0.40000000</i>
    </separator>
   </separator>
   <separator name="electronic mixer" >
    <i name="AMIX">      0.40000000</i>
    <i name="BMIX">      1.00000000</i>
    <i name="AMIN">      0.10000000</i>
    <i name="AMIX_MAG">      1.60000000</i>
    <i name="BMIX_MAG">      1.00000000</i>
    <separator name="electronic mixer details" >
     <i type="int" name="IMIX">     4</i>
     <i type="int" name="MAXMIX">   -45</i>
     <i name="WC">    100.00000000</i>
     <i type="int" name="INIMIX">     1</i>
     <i type="int" name="MIXPRE">     1</i>
     <i type="int" name="MREMOVE">     5</i>
    </separator>
   </separator>
   <separator name="electronic dipolcorrection" >
    <i type="logical" name="LDIPOL"> F  </i>
    <i type="logical" name="LMONO"> F  </i>
    <i type="int" name="IDIPOL">     0</i>
    <i name="EPSILON">      1.00000000</i>
    <v name="DIPOL">   -100.00000000   -100.00000000   -100.00000000</v>
    <i name="EFIELD">      0.00000000</i>
   </separator>
  </separator>
  <separator name="grids" >
   <i type="int" name="NGX">    48</i>
   <i type="int" name="NGY">    48</i>
   <i type="int" name="NGZ">   120</i>
   <i type="int" name="NGXF">    96</i>
   <i type="int" name="NGYF">    96</i>
   <i type="int" name="NGZF">   240</i>
   <i type="logical" name="ADDGRID"> F  </i>
  </separator>
  <separator name="ionic" >
   <i type="int" name="NSW">     0</i>
   <i type="int" name="IBRION">    -1</i>
   <i type="int" name="ISIF">     2</i>
   <i name="PSTRESS">      0.00000000</i>
   <i name="EDIFFG">      0.00100000</i>
   <i type="int" name="NFREE">     0</i>
   <i name="POTIM">      0.50000000</i>
   <i name="SMASS">     -3.00000000</i>
   <i name="SCALEE">      1.00000000</i>
  </separator>
  <separator name="ionic md" >
   <i name="TEBEG">      0.00010000</i>
   <i name="TEEND">      0.00010000</i>
   <i type="int" name="NBLOCK">     1</i>
   <i type="int" name="KBLOCK">     1</i>
   <i type="int" name="NPACO">   256</i>
   <i name="APACO">     16.00000000</i>
  </separator>
  <separator name="symmetry" >
   <i type="int" name="ISYM">     2</i>
   <i name="SYMPREC">      0.00001000</i>
  </separator>
  <separator name="dos" >
   <i type="logical" name="LORBIT"> F  </i>
   <v name="RWIGS">     -1.00000000</v>
   <i type="int" name="NEDOS">   301</i>
   <i name="EMIN">     10.00000000</i>
   <i name="EMAX">    -10.00000000</i>
   <i name="EFERMI">      0.00000000</i>
  </separator>
  <separator name="writing" >
   <i type="int" name="NWRITE">     2</i>
   <i type="logical" name="LWAVE"> F  </i>
   <i type="logical" name="LCHARG"> F  </i>
   <i type="logical" name="LPARD"> F  </i>
   <i type="logical" name="LVTOT"> F  </i>
   <i type="logical" name="LVHAR"> F  </i>
   <i type="logical" name="LELF"> F  </i>
   <i type="logical" name="LOPTICS"> F  </i>
   <v name="STM">      0.00000000      0.00000000      0.00000000      0.00000000      0.00000000      0.00000000      0.00000000</v>
  </separator>
  <separator name="performance" >
   <i type="int" name="NPAR">     6</i>
   <i type="int" name="NSIM">     4</i>
   <i type="int" name="NBLK">    -1</i>
   <i type="logical" name="LPLANE"> T  </i>
   <i type="logical" name="LSCALAPACK"> T  </i>
   <i type="logical" name="LSCAAWARE"> F  </i>
   <i type="logical" name="LSCALU"> F  </i>
   <i type="logical" name="LASYNC"> F  </i>
   <i type="logical" name="LORBITALREAL"> F  </i>
  </separator>
  <separator name="miscellaneous" >
   <i type="int" name="IDIOT">     3</i>
   <i type="logical" name="LMUSIC"> F  </i>
   <v name="POMASS">     12.01100000</v>
   <v name="DARWINR">      0.00000000</v>
   <v name="DARWINV">      1.00000000</v>
   <i type="logical" name="LCORR"> T  </i>
  </separator>
  <i type="logical" name="GGA_COMPAT"> T  </i>
  <i type="logical" name="LBERRY"> F  </i>
  <i type="int" name="ICORELEVEL">     0</i>
  <i type="logical" name="LDAU"> F  </i>
  <i type="int" name="I_CONSTRAINED_M">     0</i>
  <separator name="electronic exchange-correlation" >
   <i type="string" name="GGA">PE</i>
   <i type="int" name="VOSKOWN">     0</i>
   <i type="logical" name="LHFCALC"> F  </i>
   <i type="string" name="PRECFOCK"></i>
   <i type="logical" name="LSYMGRAD"> F  </i>
   <i type="logical" name="LHFONE"> F  </i>
   <i type="logical" name="LRHFCALC"> F  </i>
   <i type="logical" name="LTHOMAS"> F  </i>
   <i type="logical" name="LMODELHF"> F  </i>
   <i name="ENCUT4O">     -1.00000000</i>
   <i type="int" name="EXXOEP">     0</i>
   <i type="int" name="FOURORBIT">     0</i>
   <i name="AEXX">      0.00000000</i>
   <i name="HFALPHA">      0.00000000</i>
   <i name="MCALPHA">      0.00000000</i>
   <i name="ALDAX">      1.00000000</i>
   <i name="AGGAX">      1.00000000</i>
   <i name="ALDAC">      1.00000000</i>
   <i name="AGGAC">      1.00000000</i>
   <i type="int" name="NKREDX">     1</i>
   <i type="int" name="NKREDY">     1</i>
   <i type="int" name="NKREDZ">     1</i>
   <i type="logical" name="SHIFTRED"> F  </i>
   <i type="logical" name="ODDONLY"> F  </i>
   <i type="logical" name="EVENONLY"> F  </i>
   <i type="int" name="LMAXFOCK">     0</i>
   <i type="int" name="NMAXFOCKAE">     0</i>
   <i type="logical" name="LFOCKAEDFT"> F  </i>
   <i name="HFSCREEN">      0.00000000</i>
   <i name="HFSCREENC">      0.00000000</i>
   <i type="int" name="NBANDSGWLOW">     0</i>
  </separator>
  <separator name="vdW DFT" >
   <i type="logical" name="LUSE_VDW"> F  </i>
   <i name="Zab_VDW">     -0.84910000</i>
   <i name="PARAM1">      0.12340000</i>
   <i name="PARAM2">      1.00000000</i>
   <i name="PARAM3">      0.00000000</i>
  </separator>
  <separator name="model GW" >
   <i type="int" name="MODEL_GW">     0</i>
   <i name="MODEL_EPS0">      4.92405453</i>
   <i name="MODEL_ALPHA">      1.00000000</i>
  </separator>
  <separator name="linear response parameters" >
   <i type="logical" name="LEPSILON"> F  </i>
   <i type="logical" name="LRPA"> F  </i>
   <i type="logical" name="LNABLA"> F  </i>
   <i type="logical" name="LVEL"> F  </i>
   <i type="int" name="KINTER">     0</i>
   <i name="CSHIFT">      0.10000000</i>
   <i name="OMEGAMAX">     -1.00000000</i>
   <i name="DEG_THRESHOLD">      0.00200000</i>
  </separator>
  <separator name="orbital magnetization" >
   <i type="logical" name="NUCIND"> F  </i>
   <v name="MAGPOS">      0.00000000      0.00000000      0.00000000</v>
   <i type="logical" name="LNICSALL"> T  </i>
   <i type="logical" name="ORBITALMAG"> F  </i>
   <i type="logical" name="LMAGBLOCH"> F  </i>
   <i type="logical" name="LCHIMAG"> F  </i>
   <i type="logical" name="LGAUGE"> T  </i>
   <i type="int" name="MAGATOM">     0</i>
   <v name="MAGDIPOL">      0.00000000      0.00000000      0.00000000</v>
   <v name="AVECCONST">      0.00000000      0.00000000      0.00000000</v>
  </separator>
  <separator name="response functions" >
   <i type="logical" name="LADDER"> F  </i>
   <i type="logical" name="LFXC"> F  </i>
   <i type="logical" name="LHARTREE"> T  </i>
   <i type="int" name="IBSE">     0</i>
   <i type="logical" name="LTCTE"> F  </i>
   <i type="logical" name="LTETE"> F  </i>
   <i type="logical" name="LTRIPLET"> F  </i>
   <i type="logical" name="LFXCEPS"> F  </i>
   <i type="logical" name="LFXHEG"> F  </i>
   <i type="logical" name="L2ORDER"> F  </i>
   <i type="logical" name="LUSEW"> F  </i>
   <i name="ENCUTGW">     -2.00000000</i>
   <i name="ENCUTGWSOFT">     -2.00000000</i>
   <i name="ENCUTLF">     -1.00000000</i>
   <i type="int" name="LMAXMP2">    -1</i>
   <i name="SCISSOR">      0.00000000</i>
   <i type="int" name="NOMEGA">     0</i>
   <i type="int" name="NOMEGAR">     0</i>
   <i type="int" name="NBANDSGW">    -1</i>
   <i type="int" name="NBANDSO">    -1</i>
   <i type="int" name="NBANDSV">    -1</i>
   <i type="int" name="NELM">   200</i>
   <i type="int" name="DIM">     3</i>
   <i type="int" name="ANTIRES">     0</i>
   <i name="OMEGAMAX">    -30.00000000</i>
   <i name="OMEGAMIN">    -30.00000000</i>
   <i name="OMEGATL">   -200.00000000</i>
   <i type="int" name="OMEGAGRID">     0</i>
   <i name="CSHIFT">     -0.10000000</i>
   <i type="logical" name="SELFENERGY"> F  </i>
   <i type="logical" name="LSPECTRAL"> F  </i>
   <i type="logical" name="ODDONLYGW"> F  </i>
   <i type="logical" name="EVENONLYGW"> F  </i>
   <i type="int" name="NKREDLFX">     1</i>
   <i type="int" name="NKREDLFY">     1</i>
   <i type="int" name="NKREDLFZ">     1</i>
   <i type="int" name="MAXMEM">  1800</i>
   <i type="int" name="TELESCOPE">     0</i>
   <i type="int" name="TAUPAR">     1</i>
  </separator>
  <separator name="External order field" >
   <i name="OFIELD_KAPPA">      0.00000000</i>
   <v name="OFIELD_K">      0.00000000      0.00000000      0.00000000</v>
   <i name="OFIELD_Q6_NEAR">      0.00000000</i>
   <i name="OFIELD_Q6_FAR">      0.00000000</i>
   <i name="OFIELD_A">      0.00000000</i>
  </separator>
 </parameters>
 <atominfo>
  <atoms>      32 </atoms>
  <types>       1 </types>
  <array name="atoms" >
   <dimension dim="1">ion</dimension>
   <field type="string">element</field>
   <field type="int">atomtype</field>
   <set>
    <rc><c>C </c><c>   1</c></rc>
    <rc><c>C </c><c>   1</c></rc>
    <rc><c>C </c><c>   1</c></rc>
    <rc><c>C </c><c>   1</c></rc>
    <rc><c>C </c><c>   1</c></rc>
    <rc><c>C </c><c>   1</c></rc>
    <rc><c>C </c><c>   1</c></rc>
    <rc><c>C </c><c>   1</c></rc>
    <rc><c>C </c><c>   1</c></rc>
    <rc><c>C </c><c>   1</c></rc>
    <rc><c>C </c><c>   1</c></rc>
    <rc><c>C </c><c>   1</c></rc>
    <rc><c>C </c><c>   1</c></rc>
    <rc><c>C </c><c>   1</c></rc>
    <rc><c>C </c><c>   1</c></rc>
    <rc><c>C </c><c>   1</c></rc>
    <rc><c>C </c><c>   1</c></rc>
    <rc><c>C </c><c>   1</c></rc>
    <rc><c>C </c><c>   1</c></rc>
    <rc><c>C </c><c>   1</c></rc>
    <rc><c>C </c><c>   1</c></rc>
    <rc><c>C </c><c>   1</c></rc>
    <rc><c>C </c><c>   1</c></rc>
    <rc><c>C </c><c>   1</c></rc>
    <rc><c>C </c><c>   1</c></rc>
    <rc><c>C </c><c>   1</c></rc>
    <rc><c>C </c><c>   1</c></rc>
    <rc><c>C </c><c>   1</c></rc>
    <rc><c>C </c><c>   1</c></rc>
    <rc><c>C </c><c>   1</c></rc>
    <rc><c>C </c><c>   1</c></rc>
    <rc><c>C </c><c>   1</c></rc>
   </set>
  </array>
  <array name="atomtypes" >
   <dimension dim="1">type</dimension>
   <field type="int">atomspertype</field>
   <field type="string">element</field>
   <field>mass</field>
   <field>valence</field>
   <field type="string">pseudopotential</field>
   <set>
    <rc><c>  32</c><c>C </c><c>     12.01100000</c><c>      4.00000000</c><c> PAW_PBE C 08Apr2002                    </c></rc>
   </set>
  </array>
 </atominfo>
 <structure name="initialpos" >
  <crystal>
   <varray name="basis" >
    <v>       4.93287450      -0.00191929       0.00000000 </v>
    <v>      -2.46809940       4.27103499       0.00000000 </v>
    <v>       0.00000000       0.00000000      12.46769137 </v>
   </varray>
   <i name="volume">    262.61624148 </i>
   <varray name="rec_basis" >
    <v>       0.20276715       0.11717288       0.00000000 </v>
    <v>       0.00009112       0.23418794       0.00000000 </v>
    <v>       0.00000000       0.00000000       0.08020731 </v>
   </varray>
  </crystal>
  <varray name="positions" >
   <v>       0.50041912       0.00032672       0.12574582 </v>
   <v>       0.99967330       0.00032672       0.12500000 </v>
   <v>       0.49967330       0.50032672       0.12500000 </v>
   <v>       0.99967330       0.50032672       0.12500000 </v>
   <v>       0.49967330       0.00032672       0.62500000 </v>
   <v>       0.99967330       0.00032672       0.62500000 </v>
   <v>       0.49967330       0.50032672       0.62500000 </v>
   <v>       0.99967330       0.50032672       0.62500000 </v>
   <v>       0.00032672       0.49967330       0.37500000 </v>
   <v>       0.50032672       0.49967330       0.37500000 </v>
   <v>       0.00032672       0.99967330       0.37500000 </v>
   <v>       0.50032672       0.99967330       0.37500000 </v>
   <v>       0.00032672       0.49967330       0.87500000 </v>
   <v>       0.50032672       0.49967330       0.87500000 </v>
   <v>       0.00032672       0.99967330       0.87500000 </v>
   <v>       0.50032672       0.99967330       0.87500000 </v>
   <v>       0.16629246       0.33370753       0.12500000 </v>
   <v>       0.66629246       0.33370753       0.12500000 </v>
   <v>       0.16629246       0.83370753       0.12500000 </v>
   <v>       0.66629246       0.83370753       0.12500000 </v>
   <v>       0.16629246       0.33370753       0.62500000 </v>
   <v>       0.66629246       0.33370753       0.62500000 </v>
   <v>       0.16629246       0.83370753       0.62500000 </v>
   <v>       0.66629246       0.83370753       0.62500000 </v>
   <v>       0.33370753       0.16629246       0.37500000 </v>
   <v>       0.83370753       0.16629246       0.37500000 </v>
   <v>       0.33370753       0.66629246       0.37500000 </v>
   <v>       0.83370753       0.66629246       0.37500000 </v>
   <v>       0.33370753       0.16629246       0.87500000 </v>
   <v>       0.83370753       0.16629246       0.87500000 </v>
   <v>       0.33370753       0.66629246       0.87500000 </v>
   <v>       0.83370753       0.66629246       0.87500000 </v>
  </varray>
 </structure>
 <calculation>
  <scstep>
   <time name="dav">  226.70  453.65</time>
   <time name="total">  227.78  455.83</time>
   <energy>
    <i name="alphaZ">    317.70955013 </i>
    <i name="ewald">  -4034.92338460 </i>
    <i name="hartreedc">   -970.56137806 </i>
    <i name="XCdc">    444.32390218 </i>
    <i name="pawpsdc">   1210.60617908 </i>
    <i name="pawaedc">  -1247.42152856 </i>
    <i name="eentropy">      0.00000000 </i>
    <i name="bandstr">    245.44866907 </i>
    <i name="atom">   4708.94155045 </i>
    <i name="e_fr_energy">    674.12355969 </i>
    <i name="e_wo_entrp">    674.12355969 </i>
    <i name="e_0_energy">    674.12355969 </i>
   </energy>
  </scstep>
  <scstep>
   <time name="dav">  258.57  516.41</time>
   <time name="total">  258.66  516.60</time>
   <energy>
    <i name="e_fr_energy">   -257.38378074 </i>
    <i name="e_wo_entrp">   -257.38378074 </i>
    <i name="e_0_energy">   -257.38378074 </i>
   </energy>
  </scstep>
  <scstep>
   <time name="dav">  252.38  505.01</time>
   <time name="total">  252.47  505.22</time>
   <energy>
    <i name="e_fr_energy">   -311.50180023 </i>
    <i name="e_wo_entrp">   -311.50180023 </i>
    <i name="e_0_energy">   -311.50180023 </i>
   </energy>
  </scstep>
  <scstep>
   <time name="dav">  260.71  521.66</time>
   <time name="total">  260.77  521.80</time>
   <energy>
    <i name="e_fr_energy">   -312.52762742 </i>
    <i name="e_wo_entrp">   -312.52762742 </i>
    <i name="e_0_energy">   -312.52762742 </i>
   </energy>
  </scstep>
  <scstep>
   <time name="dav">  252.59  505.42</time>
   <time name="total">  258.55  517.37</time>
   <energy>
    <i name="e_fr_energy">   -312.55840504 </i>
    <i name="e_wo_entrp">   -312.55840504 </i>
    <i name="e_0_energy">   -312.55840504 </i>
   </energy>
  </scstep>
  <scstep>
   <time name="dav">  241.29  482.82</time>
   <time name="total">  247.98  496.23</time>
   <energy>
    <i name="e_fr_energy">   -298.50244380 </i>
    <i name="e_wo_entrp">   -298.50244380 </i>
    <i name="e_0_energy">   -298.50244380 </i>
   </energy>
  </scstep>
  <scstep>
   <time name="dav">  244.44  489.12</time>
   <time name="total">  251.19  502.63</time>
   <energy>
    <i name="e_fr_energy">   -294.11068961 </i>
    <i name="e_wo_entrp">   -294.11068961 </i>
    <i name="e_0_energy">   -294.11068961 </i>
   </energy>
  </scstep>
  <scstep>
   <time name="dav">  238.93  478.10</time>
   <time name="total">  245.73  491.72</time>
   <energy>
    <i name="e_fr_energy">   -294.16114048 </i>
    <i name="e_wo_entrp">   -294.16114048 </i>
    <i name="e_0_energy">   -294.16114048 </i>
   </energy>
  </scstep>
  <scstep>
   <time name="dav">  250.59  501.43</time>
   <time name="total">  257.47  515.20</time>
   <energy>
    <i name="e_fr_energy">   -294.16088356 </i>
    <i name="e_wo_entrp">   -294.16088356 </i>
    <i name="e_0_energy">   -294.16088356 </i>
   </energy>
  </scstep>
  <scstep>
   <time name="dav">  248.90  496.53</time>
   <time name="total">  255.60  509.96</time>
   <energy>
    <i name="e_fr_energy">   -294.16053879 </i>
    <i name="e_wo_entrp">   -294.16053879 </i>
    <i name="e_0_energy">   -294.16053879 </i>
   </energy>
  </scstep>
  <scstep>
   <time name="dav">  263.20  526.67</time>
   <time name="total">  269.90  540.08</time>
   <energy>
    <i name="e_fr_energy">   -294.16146802 </i>
    <i name="e_wo_entrp">   -294.16146802 </i>
    <i name="e_0_energy">   -294.16146802 </i>
   </energy>
  </scstep>
  <scstep>
   <time name="dav">  252.22  504.68</time>
   <time name="total">  258.91  518.09</time>
   <energy>
    <i name="e_fr_energy">   -294.16112519 </i>
    <i name="e_wo_entrp">   -294.16112519 </i>
    <i name="e_0_energy">   -294.16112519 </i>
   </energy>
  </scstep>
  <scstep>
   <time name="dav">  254.66  509.58</time>
   <time name="total">  261.40  523.07</time>
   <energy>
    <i name="e_fr_energy">   -294.16124275 </i>
    <i name="e_wo_entrp">   -294.16124275 </i>
    <i name="e_0_energy">   -294.16124275 </i>
   </energy>
  </scstep>
  <scstep>
   <time name="dav">  246.22  492.69</time>
   <time name="total">  253.19  506.67</time>
   <energy>
    <i name="e_fr_energy">   -294.16129361 </i>
    <i name="e_wo_entrp">   -294.16129361 </i>
    <i name="e_0_energy">   -294.16129361 </i>
   </energy>
  </scstep>
  <scstep>
   <time name="dav">  266.88  534.01</time>
   <time name="total">  273.50  547.27</time>
   <energy>
    <i name="e_fr_energy">   -294.16125178 </i>
    <i name="e_wo_entrp">   -294.16125178 </i>
    <i name="e_0_energy">   -294.16125178 </i>
   </energy>
  </scstep>
  <scstep>
   <time name="dav">  236.31  472.84</time>
   <time name="total">  242.91  486.05</time>
   <energy>
    <i name="e_fr_energy">   -294.16125193 </i>
    <i name="e_wo_entrp">   -294.16125193 </i>
    <i name="e_0_energy">   -294.16125193 </i>
   </energy>
  </scstep>
  <scstep>
   <time name="dav">  322.19  644.71</time>
   <time name="total">  328.84  658.00</time>
   <energy>
    <i name="e_fr_energy">   -294.16124220 </i>
    <i name="e_wo_entrp">   -294.16124220 </i>
    <i name="e_0_energy">   -294.16124220 </i>
   </energy>
  </scstep>
  <scstep>
   <time name="dav">  235.84  471.90</time>
   <time name="total">  242.35  484.96</time>
   <energy>
    <i name="e_fr_energy">   -294.16124165 </i>
    <i name="e_wo_entrp">   -294.16124165 </i>
    <i name="e_0_energy">   -294.16124165 </i>
   </energy>
  </scstep>
  <scstep>
   <time name="dav">  280.87  562.02</time>
   <time name="total">  287.57  575.42</time>
   <energy>
    <i name="e_fr_energy">   -294.16124123 </i>
    <i name="e_wo_entrp">   -294.16124123 </i>
    <i name="e_0_energy">   -294.16124123 </i>
   </energy>
  </scstep>
  <scstep>
   <time name="dav">  245.73  491.73</time>
   <time name="total">  252.59  505.44</time>
   <energy>
    <i name="e_fr_energy">   -294.16124100 </i>
    <i name="e_wo_entrp">   -294.16124100 </i>
    <i name="e_0_energy">   -294.16124100 </i>
   </energy>
  </scstep>
  <scstep>
   <time name="dav">  228.65  457.53</time>
   <time name="total">  235.19  470.60</time>
   <energy>
    <i name="e_fr_energy">   -294.16124103 </i>
    <i name="e_wo_entrp">   -294.16124103 </i>
    <i name="e_0_energy">   -294.16124103 </i>
   </energy>
  </scstep>
  <scstep>
   <time name="dav">  182.82  365.83</time>
   <time name="total">  183.73  367.65</time>
   <energy>
    <i name="alphaZ">    317.70955013 </i>
    <i name="ewald">  -4034.92338460 </i>
    <i name="hartreedc">  -1227.00066639 </i>
    <i name="XCdc">    461.90350378 </i>
    <i name="pawpsdc">   2224.61272598 </i>
    <i name="pawaedc">  -2265.84231098 </i>
    <i name="eentropy">      0.00000000 </i>
    <i name="bandstr">   -479.56220940 </i>
    <i name="atom">   4708.94155045 </i>
    <i name="e_fr_energy">   -294.16124104 </i>
    <i name="e_wo_entrp">   -294.16124104 </i>
    <i name="e_0_energy">   -294.16124104 </i>
   </energy>
  </scstep>
  <structure>
   <crystal>
    <varray name="basis" >
     <v>       4.93287450      -0.00191929       0.00000000 </v>
     <v>      -2.46809940       4.27103499       0.00000000 </v>
     <v>       0.00000000       0.00000000      12.46769137 </v>
    </varray>
    <i name="volume">    262.61624148 </i>
    <varray name="rec_basis" >
     <v>       0.20276715       0.11717288       0.00000000 </v>
     <v>       0.00009112       0.23418794       0.00000000 </v>
     <v>       0.00000000       0.00000000       0.08020731 </v>
    </varray>
   </crystal>
   <varray name="positions" >
    <v>       0.50041912       0.00032672       0.12574582 </v>
    <v>       0.99967330       0.00032672       0.12500000 </v>
    <v>       0.49967330       0.50032672       0.12500000 </v>
    <v>       0.99967330       0.50032672       0.12500000 </v>
    <v>       0.49967330       0.00032672       0.62500000 </v>
    <v>       0.99967330       0.00032672       0.62500000 </v>
    <v>       0.49967330       0.50032672       0.62500000 </v>
    <v>       0.99967330       0.50032672       0.62500000 </v>
    <v>       0.00032672       0.49967330       0.37500000 </v>
    <v>       0.50032672       0.49967330       0.37500000 </v>
    <v>       0.00032672       0.99967330       0.37500000 </v>
    <v>       0.50032672       0.99967330       0.37500000 </v>
    <v>       0.00032672       0.49967330       0.87500000 </v>
    <v>       0.50032672       0.49967330       0.87500000 </v>
    <v>       0.00032672       0.99967330       0.87500000 </v>
    <v>       0.50032672       0.99967330       0.87500000 </v>
    <v>       0.16629246       0.33370753       0.12500000 </v>
    <v>       0.66629246       0.33370753       0.12500000 </v>
    <v>       0.16629246       0.83370753       0.12500000 </v>
    <v>       0.66629246       0.83370753       0.12500000 </v>
    <v>       0.16629246       0.33370753       0.62500000 </v>
    <v>       0.66629246       0.33370753       0.62500000 </v>
    <v>       0.16629246       0.83370753       0.62500000 </v>
    <v>       0.66629246       0.83370753       0.62500000 </v>
    <v>       0.33370753       0.16629246       0.37500000 </v>
    <v>       0.83370753       0.16629246       0.37500000 </v>
    <v>       0.33370753       0.66629246       0.37500000 </v>
    <v>       0.83370753       0.66629246       0.37500000 </v>
    <v>       0.33370753       0.16629246       0.87500000 </v>
    <v>       0.83370753       0.16629246       0.87500000 </v>
    <v>       0.33370753       0.66629246       0.87500000 </v>
    <v>       0.83370753       0.66629246       0.87500000 </v>
   </varray>
  </structure>
  <varray name="forces" >
   <v>      -0.23892975       0.00772232      -0.13062938 </v>
   <v>       0.02916450       0.00659043       0.00069886 </v>
   <v>      -0.01033933      -0.01622600       0.00077142 </v>
   <v>      -0.01046560       0.02955734       0.00054289 </v>
   <v>      -0.01147560       0.00653637       0.00699586 </v>
   <v>      -0.01141560       0.00653751       0.00710398 </v>
   <v>      -0.01144421       0.00652068       0.00710374 </v>
   <v>      -0.01144255       0.00655249       0.00710422 </v>
   <v>       0.01118328      -0.00675106      -0.00717462 </v>
   <v>       0.01073927      -0.00687047      -0.00734543 </v>
   <v>       0.01106260      -0.00642067      -0.00725730 </v>
   <v>       0.01081075      -0.00670090      -0.00596726 </v>
   <v>       0.01142965      -0.00603359      -0.00739581 </v>
   <v>       0.01182330      -0.00612428      -0.00723665 </v>
   <v>       0.01170139      -0.00643665      -0.00732001 </v>
   <v>       0.01145781      -0.00621708      -0.00578290 </v>
   <v>       0.00866654      -0.00499787       0.01169532 </v>
   <v>       0.03797540      -0.00571244       0.04478858 </v>
   <v>       0.08605201       0.02263442       0.04523430 </v>
   <v>       0.08645220      -0.03303462       0.04425278 </v>
   <v>       0.00860578      -0.00493161      -0.00110400 </v>
   <v>       0.00860975      -0.00493088      -0.00105658 </v>
   <v>       0.00860654      -0.00493415      -0.00105689 </v>
   <v>       0.00860694      -0.00493098      -0.00105321 </v>
   <v>      -0.00900702       0.00537111       0.00206901 </v>
   <v>      -0.00764041       0.00556744       0.00216910 </v>
   <v>      -0.00849497       0.00430810       0.00212690 </v>
   <v>      -0.00819896       0.00507436       0.00071259 </v>
   <v>      -0.00792287       0.00412850       0.00217525 </v>
   <v>      -0.00907596       0.00433882       0.00203516 </v>
   <v>      -0.00868476       0.00524021       0.00206993 </v>
   <v>      -0.00841010       0.00457315       0.00073015 </v>
  </varray>
  <varray name="stress" >
   <v>      -6.24573233       2.84262130      -0.04438034 </v>
   <v>       2.84262127      -2.75183084       0.03602279 </v>
   <v>      -0.04438039       0.03602283      39.03274201 </v>
  </varray>
  <energy>
   <i name="e_fr_energy">   -299.61161576 </i>
   <i name="e_wo_entrp">   -299.61161576 </i>
   <i name="e_0_energy">      0.00000000 </i>
  </energy>
  <time name="totalsc"> 5705.1811413.72</time>
  <eigenvalues>
   <array>
    <dimension dim="1">band</dimension>
    <dimension dim="2">kpoint</dimension>
    <dimension dim="3">spin</dimension>
    <field>eigene</field>
    <field>occ</field>
    <set>
     <set comment="spin 1">
      <set comment="kpoint 1">
       <r>  -14.3825    1.0000 </r>
       <r>  -14.1378    1.0000 </r>
       <r>  -14.1371    1.0000 </r>
       <r>  -13.8645    1.0000 </r>
       <r>   -9.0069    1.0000 </r>
       <r>   -8.9992    1.0000 </r>
       <r>   -8.9968    1.0000 </r>
       <r>   -8.8931    1.0000 </r>
       <r>   -8.8927    1.0000 </r>
       <r>   -8.8851    1.0000 </r>
       <r>   -8.8814    1.0000 </r>
       <r>   -8.8813    1.0000 </r>
       <r>   -8.8791    1.0000 </r>
       <r>   -8.8127    1.0000 </r>
       <r>   -8.8012    1.0000 </r>
       <r>   -8.7975    1.0000 </r>
       <r>   -7.8886    1.0000 </r>
       <r>   -7.8855    1.0000 </r>
       <r>   -7.8832    1.0000 </r>
       <r>   -7.8483    1.0000 </r>
       <r>   -7.8445    1.0000 </r>
       <r>   -7.8426    1.0000 </r>
       <r>   -7.8420    1.0000 </r>
       <r>   -7.8418    1.0000 </r>
       <r>   -7.8379    1.0000 </r>
       <r>   -7.7446    1.0000 </r>
       <r>   -7.7393    1.0000 </r>
       <r>   -7.7373    1.0000 </r>
       <r>   -3.5037    1.0000 </r>
       <r>   -2.2564    1.0000 </r>
       <r>   -2.2542    1.0000 </r>
       <r>   -1.0707    1.0000 </r>
       <r>   -1.0680    1.0000 </r>
       <r>   -1.0486    1.0000 </r>
       <r>   -1.0180    1.0000 </r>
       <r>   -1.0138    1.0000 </r>
       <r>   -1.0137    1.0000 </r>
       <r>   -1.0129    1.0000 </r>
       <r>   -0.9951    1.0000 </r>
       <r>   -0.9925    1.0000 </r>
       <r>   -0.9603    1.0000 </r>
       <r>   -0.9577    1.0000 </r>
       <r>   -0.9383    1.0000 </r>
       <r>   -0.6955    1.0000 </r>
       <r>    2.3386    1.0000 </r>
       <r>    2.3516    1.0000 </r>
       <r>    2.3524    1.0000 </r>
       <r>    2.3548    1.0000 </r>
       <r>    2.3597    1.0000 </r>
       <r>    2.3641    1.0000 </r>
       <r>    2.3644    1.0000 </r>
       <r>    2.3804    1.0000 </r>
       <r>    2.3814    1.0000 </r>
       <r>    2.3867    1.0000 </r>
       <r>    2.4045    1.0000 </r>
       <r>    2.9878    1.0000 </r>
       <r>    2.9905    1.0000 </r>
       <r>    2.9921    1.0000 </r>
       <r>    2.9962    1.0000 </r>
       <r>    2.9968    1.0000 </r>
       <r>    2.9989    1.0000 </r>
       <r>    3.3212    1.0000 </r>
       <r>    3.3398    1.0000 </r>
       <r>    3.3427    1.0000 </r>
       <r>    6.9384    0.0000 </r>
       <r>    6.9416    0.0000 </r>
       <r>    6.9461    0.0000 </r>
       <r>    6.9836    0.0000 </r>
       <r>    6.9892    0.0000 </r>
       <r>    6.9935    0.0000 </r>
       <r>    6.9946    0.0000 </r>
       <r>    6.9950    0.0000 </r>
       <r>    7.0011    0.0000 </r>
       <r>    7.7640    0.0000 </r>
       <r>    7.7780    0.0000 </r>
       <r>    7.7804    0.0000 </r>
       <r>   10.3871    0.0000 </r>
       <r>   12.4190    0.0000 </r>
       <r>   12.4231    0.0000 </r>
       <r>   12.4564    0.0000 </r>
       <r>   12.7401    0.0000 </r>
       <r>   12.7414    0.0000 </r>
       <r>   12.7483    0.0000 </r>
       <r>   12.7717    0.0000 </r>
      </set>
      <set comment="kpoint 2">
       <r>  -14.2159    1.0000 </r>
       <r>  -13.9733    1.0000 </r>
       <r>  -13.9726    1.0000 </r>
       <r>  -13.7027    1.0000 </r>
       <r>  -10.3385    1.0000 </r>
       <r>  -10.1475    1.0000 </r>
       <r>  -10.1468    1.0000 </r>
       <r>   -9.9404    1.0000 </r>
       <r>   -9.4573    1.0000 </r>
       <r>   -9.4506    1.0000 </r>
       <r>   -9.2872    1.0000 </r>
       <r>   -9.2866    1.0000 </r>
       <r>   -9.2796    1.0000 </r>
       <r>   -9.2790    1.0000 </r>
       <r>   -9.1078    1.0000 </r>
       <r>   -9.0999    1.0000 </r>
       <r>   -7.3186    1.0000 </r>
       <r>   -7.3107    1.0000 </r>
       <r>   -7.1848    1.0000 </r>
       <r>   -7.1819    1.0000 </r>
       <r>   -7.1752    1.0000 </r>
       <r>   -7.1748    1.0000 </r>
       <r>   -7.0312    1.0000 </r>
       <r>   -7.0228    1.0000 </r>
       <r>   -6.4741    1.0000 </r>
       <r>   -6.3334    1.0000 </r>
       <r>   -6.3316    1.0000 </r>
       <r>   -6.1805    1.0000 </r>
       <r>   -3.3015    1.0000 </r>
       <r>   -2.0614    1.0000 </r>
       <r>   -2.0592    1.0000 </r>
       <r>   -1.5662    1.0000 </r>
       <r>   -1.5471    1.0000 </r>
       <r>   -1.5007    1.0000 </r>
       <r>   -1.5003    1.0000 </r>
       <r>   -1.4825    1.0000 </r>
       <r>   -1.4799    1.0000 </r>
       <r>   -1.4328    1.0000 </r>
       <r>   -1.4136    1.0000 </r>
       <r>   -0.9070    1.0000 </r>
       <r>   -0.8544    1.0000 </r>
       <r>   -0.8514    1.0000 </r>
       <r>   -0.7981    1.0000 </r>
       <r>   -0.5109    1.0000 </r>
       <r>    1.2047    1.0000 </r>
       <r>    1.6923    1.0000 </r>
       <r>    1.7240    1.0000 </r>
       <r>    1.7286    1.0000 </r>
       <r>    1.7606    1.0000 </r>
       <r>    1.9970    1.0000 </r>
       <r>    2.0238    1.0000 </r>
       <r>    2.0294    1.0000 </r>
       <r>    2.0560    1.0000 </r>
       <r>    2.1010    1.0000 </r>
       <r>    2.1025    1.0000 </r>
       <r>    2.1480    1.0000 </r>
       <r>    2.1508    1.0000 </r>
       <r>    2.8805    1.0000 </r>
       <r>    2.8826    1.0000 </r>
       <r>    2.8865    1.0000 </r>
       <r>    2.8896    1.0000 </r>
       <r>    3.1515    1.0000 </r>
       <r>    3.5130    1.0000 </r>
       <r>    3.5277    1.0000 </r>
       <r>    7.0220    0.0000 </r>
       <r>    7.0248    0.0000 </r>
       <r>    7.2646    0.0000 </r>
       <r>    7.2704    0.0000 </r>
       <r>    7.2750    0.0000 </r>
       <r>    7.2772    0.0000 </r>
       <r>    7.5835    0.0000 </r>
       <r>    8.0428    0.0000 </r>
       <r>    8.0520    0.0000 </r>
       <r>    8.0949    0.0000 </r>
       <r>    8.0988    0.0000 </r>
       <r>    8.9756    0.0000 </r>
       <r>   10.5787    0.0000 </r>
       <r>   12.5165    0.0000 </r>
       <r>   12.8270    0.0000 </r>
       <r>   12.8289    0.0000 </r>
       <r>   13.1479    0.0000 </r>
       <r>   13.1567    0.0000 </r>
       <r>   13.1916    0.0000 </r>
       <r>   13.4902    0.0000 </r>
      </set>
      <set comment="kpoint 3">
       <r>  -13.7180    1.0000 </r>
       <r>  -13.4817    1.0000 </r>
       <r>  -13.4810    1.0000 </r>
       <r>  -13.2190    1.0000 </r>
       <r>  -11.7582    1.0000 </r>
       <r>  -11.5468    1.0000 </r>
       <r>  -11.5462    1.0000 </r>
       <r>  -11.3149    1.0000 </r>
       <r>   -9.8863    1.0000 </r>
       <r>   -9.8827    1.0000 </r>
       <r>   -9.7025    1.0000 </r>
       <r>   -9.7013    1.0000 </r>
       <r>   -9.6981    1.0000 </r>
       <r>   -9.6973    1.0000 </r>
       <r>   -9.5028    1.0000 </r>
       <r>   -9.4989    1.0000 </r>
       <r>   -6.1425    1.0000 </r>
       <r>   -6.1318    1.0000 </r>
       <r>   -6.0146    1.0000 </r>
       <r>   -6.0118    1.0000 </r>
       <r>   -6.0027    1.0000 </r>
       <r>   -6.0021    1.0000 </r>
       <r>   -5.8756    1.0000 </r>
       <r>   -5.8651    1.0000 </r>
       <r>   -4.3473    1.0000 </r>
       <r>   -4.2288    1.0000 </r>
       <r>   -4.2269    1.0000 </r>
       <r>   -4.1019    1.0000 </r>
       <r>   -2.7316    1.0000 </r>
       <r>   -2.7156    1.0000 </r>
       <r>   -2.6989    1.0000 </r>
       <r>   -2.6493    1.0000 </r>
       <r>   -2.6490    1.0000 </r>
       <r>   -2.6342    1.0000 </r>
       <r>   -2.6316    1.0000 </r>
       <r>   -2.5612    1.0000 </r>
       <r>   -2.5450    1.0000 </r>
       <r>   -1.4817    1.0000 </r>
       <r>   -1.4795    1.0000 </r>
       <r>   -0.4320    1.0000 </r>
       <r>   -0.3817    1.0000 </r>
       <r>   -0.3784    1.0000 </r>
       <r>   -0.3725    1.0000 </r>
       <r>   -0.3272    1.0000 </r>
       <r>    0.0228    1.0000 </r>
       <r>    0.0358    1.0000 </r>
       <r>    0.0829    1.0000 </r>
       <r>    0.0865    1.0000 </r>
       <r>    0.1470    1.0000 </r>
       <r>    0.7286    1.0000 </r>
       <r>    0.7310    1.0000 </r>
       <r>    1.1926    1.0000 </r>
       <r>    1.2312    1.0000 </r>
       <r>    1.2358    1.0000 </r>
       <r>    1.2748    1.0000 </r>
       <r>    1.7660    1.0000 </r>
       <r>    1.7683    1.0000 </r>
       <r>    2.0548    1.0000 </r>
       <r>    2.6916    1.0000 </r>
       <r>    2.6930    1.0000 </r>
       <r>    2.6954    1.0000 </r>
       <r>    2.6988    1.0000 </r>
       <r>    3.6849    1.0000 </r>
       <r>    3.6921    1.0000 </r>
       <r>    7.3961    0.0000 </r>
       <r>    7.4004    0.0000 </r>
       <r>    7.8418    0.0000 </r>
       <r>    7.8473    0.0000 </r>
       <r>    7.8506    0.0000 </r>
       <r>    7.8526    0.0000 </r>
       <r>    8.4677    0.0000 </r>
       <r>    8.4715    0.0000 </r>
       <r>    9.6667    0.0000 </r>
       <r>   10.2314    0.0000 </r>
       <r>   10.2345    0.0000 </r>
       <r>   10.9894    0.0000 </r>
       <r>   11.1556    0.0000 </r>
       <r>   12.7690    0.0000 </r>
       <r>   13.0721    0.0000 </r>
       <r>   13.0744    0.0000 </r>
       <r>   13.2145    0.0000 </r>
       <r>   13.5711    0.0000 </r>
       <r>   13.5767    0.0000 </r>
       <r>   13.5779    0.0000 </r>
      </set>
      <set comment="kpoint 4">
       <r>  -12.8962    1.0000 </r>
       <r>  -12.8932    1.0000 </r>
       <r>  -12.6716    1.0000 </r>
       <r>  -12.6683    1.0000 </r>
       <r>  -12.6683    1.0000 </r>
       <r>  -12.6655    1.0000 </r>
       <r>  -12.4205    1.0000 </r>
       <r>  -12.4174    1.0000 </r>
       <r>  -10.0364    1.0000 </r>
       <r>  -10.0346    1.0000 </r>
       <r>   -9.8497    1.0000 </r>
       <r>   -9.8476    1.0000 </r>
       <r>   -9.8475    1.0000 </r>
       <r>   -9.8459    1.0000 </r>
       <r>   -9.6458    1.0000 </r>
       <r>   -9.6439    1.0000 </r>
       <r>   -5.2069    1.0000 </r>
       <r>   -5.2045    1.0000 </r>
       <r>   -5.1347    1.0000 </r>
       <r>   -5.1303    1.0000 </r>
       <r>   -5.1295    1.0000 </r>
       <r>   -5.1295    1.0000 </r>
       <r>   -5.0649    1.0000 </r>
       <r>   -5.0628    1.0000 </r>
       <r>   -3.5934    1.0000 </r>
       <r>   -3.5922    1.0000 </r>
       <r>   -3.5525    1.0000 </r>
       <r>   -3.5524    1.0000 </r>
       <r>   -3.5512    1.0000 </r>
       <r>   -3.5482    1.0000 </r>
       <r>   -3.4897    1.0000 </r>
       <r>   -3.4880    1.0000 </r>
       <r>   -2.1122    1.0000 </r>
       <r>   -2.1092    1.0000 </r>
       <r>   -2.0218    1.0000 </r>
       <r>   -2.0211    1.0000 </r>
       <r>   -2.0211    1.0000 </r>
       <r>   -2.0153    1.0000 </r>
       <r>   -1.9263    1.0000 </r>
       <r>   -1.9228    1.0000 </r>
       <r>   -1.7115    1.0000 </r>
       <r>   -1.7091    1.0000 </r>
       <r>   -0.5369    1.0000 </r>
       <r>   -0.5330    1.0000 </r>
       <r>   -0.5329    1.0000 </r>
       <r>   -0.5303    1.0000 </r>
       <r>    0.3019    1.0000 </r>
       <r>    0.3082    1.0000 </r>
       <r>    0.3466    1.0000 </r>
       <r>    0.3553    1.0000 </r>
       <r>    0.3554    1.0000 </r>
       <r>    0.3566    1.0000 </r>
       <r>    0.4002    1.0000 </r>
       <r>    0.4046    1.0000 </r>
       <r>    0.9157    1.0000 </r>
       <r>    0.9185    1.0000 </r>
       <r>    1.6368    1.0000 </r>
       <r>    1.6387    1.0000 </r>
       <r>    2.6073    1.0000 </r>
       <r>    2.6089    1.0000 </r>
       <r>    2.6095    1.0000 </r>
       <r>    2.6137    1.0000 </r>
       <r>    3.7208    1.0000 </r>
       <r>    3.7236    1.0000 </r>
       <r>    7.6856    0.0000 </r>
       <r>    7.6883    0.0000 </r>
       <r>    8.1474    0.0000 </r>
       <r>    8.1531    0.0000 </r>
       <r>    8.1538    0.0000 </r>
       <r>    8.1553    0.0000 </r>
       <r>    8.6152    0.0000 </r>
       <r>    8.6184    0.0000 </r>
       <r>   12.0947    0.0000 </r>
       <r>   12.1006    0.0000 </r>
       <r>   12.1278    0.0000 </r>
       <r>   12.1343    0.0000 </r>
       <r>   12.5028    0.0000 </r>
       <r>   12.5048    0.0000 </r>
       <r>   12.5063    0.0000 </r>
       <r>   12.5117    0.0000 </r>
       <r>   13.0978    0.0000 </r>
       <r>   13.1010    0.0000 </r>
       <r>   13.2120    0.0000 </r>
       <r>   13.2152    0.0000 </r>
      </set>
      <set comment="kpoint 5">
       <r>  -14.2159    1.0000 </r>
       <r>  -13.9733    1.0000 </r>
       <r>  -13.9726    1.0000 </r>
       <r>  -13.7027    1.0000 </r>
       <r>  -10.3385    1.0000 </r>
       <r>  -10.1475    1.0000 </r>
       <r>  -10.1468    1.0000 </r>
       <r>   -9.9404    1.0000 </r>
       <r>   -9.4574    1.0000 </r>
       <r>   -9.4506    1.0000 </r>
       <r>   -9.2875    1.0000 </r>
[...]
       <r>   -3.5171    1.0000 </r>
       <r>   -3.5145    1.0000 </r>
       <r>   -3.5130    1.0000 </r>
       <r>   -3.5130    1.0000 </r>
       <r>   -2.1050    1.0000 </r>
       <r>   -2.0987    1.0000 </r>
       <r>   -2.0987    1.0000 </r>
       <r>   -2.0983    1.0000 </r>
       <r>   -1.9730    1.0000 </r>
       <r>   -1.9672    1.0000 </r>
       <r>   -1.9671    1.0000 </r>
       <r>   -1.9667    1.0000 </r>
       <r>   -1.3876    1.0000 </r>
       <r>   -1.3853    1.0000 </r>
       <r>   -1.3852    1.0000 </r>
       <r>   -1.3820    1.0000 </r>
       <r>    0.3359    1.0000 </r>
       <r>    0.3376    1.0000 </r>
       <r>    0.3376    1.0000 </r>
       <r>    0.3454    1.0000 </r>
       <r>    0.4039    1.0000 </r>
       <r>    0.4055    1.0000 </r>
       <r>    0.4055    1.0000 </r>
       <r>    0.4155    1.0000 </r>
       <r>    0.4438    1.0000 </r>
       <r>    0.4464    1.0000 </r>
       <r>    0.4466    1.0000 </r>
       <r>    0.4504    1.0000 </r>
       <r>    1.9127    1.0000 </r>
       <r>    1.9163    1.0000 </r>
       <r>    1.9166    1.0000 </r>
       <r>    1.9180    1.0000 </r>
       <r>    3.3777    1.0000 </r>
       <r>    3.3822    1.0000 </r>
       <r>    3.3826    1.0000 </r>
       <r>    3.3839    1.0000 </r>
       <r>    7.8304    0.0000 </r>
       <r>    7.8317    0.0000 </r>
       <r>    7.8320    0.0000 </r>
       <r>    7.8365    0.0000 </r>
       <r>    8.4671    0.0000 </r>
       <r>    8.4683    0.0000 </r>
       <r>    8.4687    0.0000 </r>
       <r>    8.4746    0.0000 </r>
       <r>   12.1662    0.0000 </r>
       <r>   12.1739    0.0000 </r>
       <r>   12.1756    0.0000 </r>
       <r>   12.1807    0.0000 </r>
       <r>   12.8500    0.0000 </r>
       <r>   12.8610    0.0000 </r>
       <r>   12.8640    0.0000 </r>
       <r>   12.8702    0.0000 </r>
       <r>   12.9722    0.0000 </r>
       <r>   12.9836    0.0000 </r>
       <r>   12.9854    0.0000 </r>
       <r>   12.9982    0.0000 </r>
      </set>
     </set>
    </set>
   </array>
  </eigenvalues>
  <separator name="orbital magnetization" >
   <v name="MAGDIPOLOUT">      0.00000000      0.00000000      0.00000000</v>
  </separator>
  <dos>
   <i name="efermi">      5.32788586 </i>
   <total>
    <array>
     <dimension dim="1">gridpoints</dimension>
     <dimension dim="2">spin</dimension>
     <field>energy</field>
     <field>total</field>
     <field>integrated</field>
     <set>
      <set comment="spin 1">
       <r>   -16.3825     0.0000     0.0000 </r>
       <r>   -16.2707     0.0000     0.0000 </r>
       <r>   -16.1590     0.0000     0.0000 </r>
       <r>   -16.0473     0.0000     0.0000 </r>
       <r>   -15.9356     0.0000     0.0000 </r>
       <r>   -15.8239     0.0000     0.0000 </r>
       <r>   -15.7122     0.0000     0.0000 </r>
       <r>   -15.6004     0.0000     0.0000 </r>
       <r>   -15.4887     0.0000     0.0000 </r>
       <r>   -15.3770     0.0000     0.0000 </r>
       <r>   -15.2653     0.0000     0.0000 </r>
       <r>   -15.1536     0.0000     0.0000 </r>
       <r>   -15.0418     0.0000     0.0000 </r>
       <r>   -14.9301     0.0000     0.0000 </r>
       <r>   -14.8184     0.0000     0.0000 </r>
       <r>   -14.7067     0.0000     0.0000 </r>
       <r>   -14.5950     0.0000     0.0000 </r>
       <r>   -14.4833     0.0000     0.0000 </r>
       <r>   -14.3715     0.0201     0.0001 </r>
       <r>   -14.2598     1.2711     0.0605 </r>
       <r>   -14.1481     2.0511     0.2660 </r>
       <r>   -14.0364     2.7296     0.5324 </r>
       <r>   -13.9247     3.5757     0.8824 </r>
       <r>   -13.8129     4.8345     1.3505 </r>
       <r>   -13.7012     4.7157     1.9148 </r>
       <r>   -13.5895     4.8561     2.4494 </r>
       <r>   -13.4778     4.9903     2.9996 </r>
       <r>   -13.3661     5.0409     3.5617 </r>
       <r>   -13.2544     5.1011     4.1262 </r>
       <r>   -13.1426     6.5403     4.7777 </r>
       <r>   -13.0309     6.9585     5.5368 </r>
       <r>   -12.9192     6.0691     6.2810 </r>
       <r>   -12.8075     6.4578     6.9551 </r>
       <r>   -12.6958     2.9858     7.5126 </r>
       <r>   -12.5841     1.9537     7.7709 </r>
       <r>   -12.4723     1.7720     7.9725 </r>
       <r>   -12.3606     2.3114     8.1914 </r>
       <r>   -12.2489     9.0046     8.6169 </r>
       <r>   -12.1372     5.6583     9.4573 </r>
       <r>   -12.0255     6.2692    10.1076 </r>
       <r>   -11.9137     6.7626    10.8532 </r>
       <r>   -11.8020     4.9075    11.5326 </r>
       <r>   -11.6903     4.2544    12.0040 </r>
       <r>   -11.5786     4.4716    12.4913 </r>
       <r>   -11.4669     4.6928    13.0031 </r>
       <r>   -11.3552     4.9052    13.5396 </r>
       <r>   -11.2434     5.0945    14.0979 </r>
       <r>   -11.1317     5.1800    14.6706 </r>
       <r>   -11.0200     5.2905    15.2576 </r>
       <r>   -10.9083     5.5623    15.8585 </r>
       <r>   -10.7966     6.0341    16.5222 </r>
       <r>   -10.6849     5.8300    17.1840 </r>
       <r>   -10.5731     5.7340    17.8286 </r>
       <r>   -10.4614     5.8928    18.4769 </r>
       <r>   -10.3497     6.0791    19.1456 </r>
       <r>   -10.2380     5.8656    19.8088 </r>
       <r>   -10.1263     5.8699    20.4641 </r>
       <r>   -10.0145     5.8426    21.1198 </r>
       <r>    -9.9028     4.9390    21.7300 </r>
       <r>    -9.7911     3.8105    22.2127 </r>
       <r>    -9.6794     3.7324    22.6232 </r>
       <r>    -9.5677     4.4635    23.0794 </r>
       <r>    -9.4560     4.8551    23.6046 </r>
       <r>    -9.3442     6.1642    24.2356 </r>
       <r>    -9.2325     7.5344    24.9860 </r>
       <r>    -9.1208     9.7266    25.9408 </r>
       <r>    -9.0091     9.0121    27.0699 </r>
       <r>    -8.8974     6.6055    27.9388 </r>
       <r>    -8.7856     4.9934    28.5706 </r>
       <r>    -8.6739     4.4189    29.0963 </r>
       <r>    -8.5622     7.0936    29.6500 </r>
       <r>    -8.4505     4.2473    30.2191 </r>
       <r>    -8.3388     4.2796    30.6905 </r>
       <r>    -8.2271     1.9392    31.0511 </r>
       <r>    -8.1153     1.7169    31.2554 </r>
       <r>    -8.0036     1.4945    31.4348 </r>
       <r>    -7.8919     1.2721    31.5893 </r>
       <r>    -7.7802     1.5478    31.7422 </r>
       <r>    -7.6685     2.0469    31.9425 </r>
       <r>    -7.5568     2.5584    32.1997 </r>
       <r>    -7.4450     3.8475    32.5258 </r>
       <r>    -7.3333     9.8094    33.2392 </r>
       <r>    -7.2216     6.2304    34.1861 </r>
       <r>    -7.1099     5.2075    34.7692 </r>
       <r>    -6.9982     5.7583    35.3782 </r>
       <r>    -6.8864     7.0461    36.0934 </r>
       <r>    -6.7747     8.3339    36.9525 </r>
       <r>    -6.6630     9.6029    37.9555 </r>
       <r>    -6.5513     7.7307    38.8877 </r>
       <r>    -6.4396     5.6813    39.6718 </r>
       <r>    -6.3279     5.5578    40.2980 </r>
       <r>    -6.2161     5.4828    40.9140 </r>
       <r>    -6.1044     5.3878    41.5239 </r>
       <r>    -5.9927     5.1953    42.1154 </r>
       <r>    -5.8810     5.0209    42.6855 </r>
       <r>    -5.7693     4.9009    43.2397 </r>
       <r>    -5.6576     4.7822    43.7806 </r>
       <r>    -5.5458     4.6636    44.3082 </r>
       <r>    -5.4341     4.5451    44.8226 </r>
       <r>    -5.3224     4.4254    45.3237 </r>
       <r>    -5.2107     4.3038    45.8112 </r>
       <r>    -5.0990     4.6906    46.3038 </r>
       <r>    -4.9872     5.3545    46.8662 </r>
       <r>    -4.8755     5.9886    47.4998 </r>
       <r>    -4.7638     6.6228    48.2042 </r>
       <r>    -4.6521     7.2570    48.9796 </r>
       <r>    -4.5404     7.8914    49.8257 </r>
       <r>    -4.4287     8.5259    50.7428 </r>
       <r>    -4.3169     7.5091    51.7035 </r>
       <r>    -4.2052     5.5236    52.4225 </r>
       <r>    -4.0935     5.7857    52.9957 </r>
       <r>    -3.9818     6.9913    53.7184 </r>
       <r>    -3.8701     5.3605    54.4083 </r>
       <r>    -3.7583     3.7290    54.9161 </r>
       <r>    -3.6466     2.0968    55.2415 </r>
       <r>    -3.5349     1.0981    55.3989 </r>
       <r>    -3.4232     2.6862    55.5935 </r>
       <r>    -3.3115     4.9820    56.0199 </r>
       <r>    -3.1998     7.3207    56.6888 </r>
       <r>    -3.0880    10.4247    57.6992 </r>
       <r>    -2.9763    13.2859    59.0306 </r>
       <r>    -2.8646    12.6859    60.5146 </r>
       <r>    -2.7529     8.2080    61.7234 </r>
       <r>    -2.6412     4.9721    62.3886 </r>
       <r>    -2.5295     5.8017    62.9759 </r>
       <r>    -2.4177     6.8931    63.6849 </r>
       <r>    -2.3060     9.2332    64.5414 </r>
       <r>    -2.1943    16.0090    65.9516 </r>
       <r>    -2.0826    12.2480    68.1973 </r>
       <r>    -1.9709     7.6515    69.6464 </r>
       <r>    -1.8591     7.3228    70.4809 </r>
       <r>    -1.7474     7.0835    71.2821 </r>
       <r>    -1.6357     7.3946    72.0834 </r>
       <r>    -1.5240     9.2009    72.9844 </r>
       <r>    -1.4123    15.9654    74.3262 </r>
       <r>    -1.3006    12.1721    75.8970 </r>
       <r>    -1.1888     8.4734    77.0322 </r>
       <r>    -1.0771    25.0740    78.4146 </r>
       <r>    -0.9654    19.0285    81.3001 </r>
       <r>    -0.8537    18.8001    83.6394 </r>
       <r>    -0.7420    14.5122    85.4234 </r>
       <r>    -0.6303    14.3447    87.0313 </r>
       <r>    -0.5185    12.7667    88.5504 </r>
       <r>    -0.4068     9.1727    89.7040 </r>
       <r>    -0.2951     7.9876    90.6733 </r>
       <r>    -0.1834     7.5720    91.5114 </r>
       <r>    -0.0717     8.6719    92.4177 </r>
       <r>     0.0401     9.1756    93.4112 </r>
       <r>     0.1518    10.6713    94.4990 </r>
       <r>     0.2635    13.2879    95.8002 </r>
       <r>     0.3752    16.2929    97.4685 </r>
       <r>     0.4869    12.8399    99.0257 </r>
       <r>     0.5986    11.8410   100.3612 </r>
       <r>     0.7104    10.4860   101.6232 </r>
       <r>     0.8221     9.4196   102.7176 </r>
       <r>     0.9338     9.0133   103.7463 </r>
       <r>     1.0455     8.7562   104.7382 </r>
       <r>     1.1572     8.5520   105.7041 </r>
       <r>     1.2690     8.5157   106.6551 </r>
       <r>     1.3807    10.4085   107.7461 </r>
       <r>     1.4924     9.9463   108.8984 </r>
       <r>     1.6041    10.4679   110.0419 </r>
       <r>     1.7158    10.2477   111.1966 </r>
       <r>     1.8275     9.8901   112.3336 </r>
       <r>     1.9393     9.0146   113.3901 </r>
       <r>     2.0510     9.9322   114.4083 </r>
       <r>     2.1627     9.8803   115.5456 </r>
       <r>     2.2744     8.2344   116.5597 </r>
       <r>     2.3861     6.6999   117.3860 </r>
       <r>     2.4978     5.9563   118.0840 </r>
       <r>     2.6096     4.8687   118.7060 </r>
       <r>     2.7213     3.9145   119.1980 </r>
       <r>     2.8330     3.3479   119.5967 </r>
       <r>     2.9447     4.3966   120.0096 </r>
       <r>     3.0564     5.1363   120.5340 </r>
       <r>     3.1682     8.4847   121.1989 </r>
       <r>     3.2799     7.6368   122.1382 </r>
       <r>     3.3916     6.3947   122.9448 </r>
       <r>     3.5033     6.0812   123.6179 </r>
       <r>     3.6150     6.4853   124.3215 </r>
       <r>     3.7267     5.7036   125.0124 </r>
       <r>     3.8385     4.3284   125.5678 </r>
       <r>     3.9502     3.5197   125.9981 </r>
       <r>     4.0619     3.0166   126.3637 </r>
       <r>     4.1736     2.5448   126.6737 </r>
       <r>     4.2853     2.1444   126.9348 </r>
       <r>     4.3970     1.8354   127.1569 </r>
       <r>     4.5088     1.5767   127.3465 </r>
       <r>     4.6205     1.4059   127.5121 </r>
       <r>     4.7322     1.2054   127.6603 </r>
       <r>     4.8439     0.9570   127.7810 </r>
       <r>     4.9556     0.7169   127.8745 </r>
       <r>     5.0674     0.4843   127.9415 </r>
       <r>     5.1791     0.2585   127.9829 </r>
       <r>     5.2908     0.0396   127.9995 </r>
       <r>     5.4025     0.0654   128.0019 </r>
       <r>     5.5142     0.2003   128.0167 </r>
       <r>     5.6259     0.3431   128.0469 </r>
       <r>     5.7377     0.4940   128.0936 </r>
       <r>     5.8494     0.6550   128.1577 </r>
       <r>     5.9611     0.8277   128.2404 </r>
       <r>     6.0728     1.0120   128.3431 </r>
       <r>     6.1845     1.2124   128.4671 </r>
       <r>     6.2963     1.4370   128.6149 </r>
       <r>     6.4080     2.0979   128.8078 </r>
       <r>     6.5197     2.5945   129.0698 </r>
       <r>     6.6314     3.1358   129.3894 </r>
       <r>     6.7431     3.5420   129.7623 </r>
       <r>     6.8548     5.2292   130.2307 </r>
       <r>     6.9666    12.6556   131.1541 </r>
       <r>     7.0783    10.6073   132.5995 </r>
       <r>     7.1900     9.0627   133.7298 </r>
       <r>     7.3017     6.7800   134.6107 </r>
       <r>     7.4134     5.6274   135.3021 </r>
       <r>     7.5251     4.8619   135.8846 </r>
       <r>     7.6369     4.1614   136.3917 </r>
       <r>     7.7486     3.8706   136.8341 </r>
       <r>     7.8603     3.7108   137.2612 </r>
       <r>     7.9720     3.7153   137.6751 </r>
       <r>     8.0837     3.7132   138.0895 </r>
       <r>     8.1955     4.0901   138.5237 </r>
       <r>     8.3072     4.4351   139.0008 </r>
       <r>     8.4189     4.6506   139.5100 </r>
       <r>     8.5306     4.8198   140.0391 </r>
       <r>     8.6423     4.7596   140.5788 </r>
       <r>     8.7540     4.5779   141.0993 </r>
       <r>     8.8658     4.4679   141.6043 </r>
       <r>     8.9775     4.4121   142.0999 </r>
       <r>     9.0892     4.3025   142.5865 </r>
       <r>     9.2009     4.1993   143.0614 </r>
       <r>     9.3126     4.0229   143.5244 </r>
       <r>     9.4244     3.6278   143.9481 </r>
       <r>     9.5361     3.4541   144.3432 </r>
       <r>     9.6478     3.3576   144.7226 </r>
       <r>     9.7595     3.2980   145.0944 </r>
       <r>     9.8712     3.2043   145.4576 </r>
       <r>     9.9829     3.1268   145.8108 </r>
       <r>    10.0947     3.0735   146.1571 </r>
       <r>    10.2064     3.0392   146.4985 </r>
       <r>    10.3181     2.9687   146.8346 </r>
       <r>    10.4298     2.8994   147.1617 </r>
       <r>    10.5415     3.0116   147.4898 </r>
       <r>    10.6532     3.1736   147.8371 </r>
       <r>    10.7650     3.2012   148.1945 </r>
       <r>    10.8767     3.9217   148.5949 </r>
       <r>    10.9884     4.2516   149.0536 </r>
       <r>    11.1001     4.4042   149.5395 </r>
       <r>    11.2118     4.3729   150.0309 </r>
       <r>    11.3236     4.2367   150.5123 </r>
       <r>    11.4353     4.0451   150.9755 </r>
       <r>    11.5470     3.9432   151.4199 </r>
       <r>    11.6587     3.9694   151.8582 </r>
       <r>    11.7704     7.3426   152.4567 </r>
       <r>    11.8821     4.2324   153.0634 </r>
       <r>    11.9939     2.6968   153.4480 </r>
       <r>    12.1056     2.3082   153.7256 </r>
       <r>    12.2173     2.1097   153.9712 </r>
       <r>    12.3290     2.0975   154.2042 </r>
       <r>    12.4407     2.6184   154.4520 </r>
       <r>    12.5524     4.8545   154.8935 </r>
       <r>    12.6642     5.4292   155.4672 </r>
       <r>    12.7759     6.8855   156.1424 </r>
       <r>    12.8876     9.4306   157.0453 </r>
       <r>    12.9993    10.5745   158.1816 </r>
       <r>    13.1110    12.2629   159.4298 </r>
       <r>    13.2228    14.1583   160.9242 </r>
       <r>    13.3345    13.0457   162.4585 </r>
       <r>    13.4462    12.2811   163.8340 </r>
       <r>    13.5579    11.6088   165.1645 </r>
       <r>    13.6696    11.9835   166.5064 </r>
       <r>    13.7813     5.2795   167.5575 </r>
       <r>    13.8931     1.0937   167.8039 </r>
       <r>    14.0048     0.4516   167.8752 </r>
       <r>    14.1165     0.3086   167.9173 </r>
       <r>    14.2282     0.2037   167.9455 </r>
       <r>    14.3399     0.1368   167.9642 </r>
       <r>    14.4517     0.1000   167.9773 </r>
       <r>    14.5634     0.0699   167.9867 </r>
       <r>    14.6751     0.0451   167.9931 </r>
       <r>    14.7868     0.0258   167.9970 </r>
       <r>    14.8985     0.0118   167.9991 </r>
       <r>    15.0102     0.0032   167.9999 </r>
       <r>    15.1220     0.0000   168.0000 </r>
       <r>    15.2337     0.0000   168.0000 </r>
       <r>    15.3454     0.0000   168.0000 </r>
       <r>    15.4571     0.0000   168.0000 </r>
       <r>    15.5688     0.0000   168.0000 </r>
       <r>    15.6805     0.0000   168.0000 </r>
       <r>    15.7923     0.0000   168.0000 </r>
       <r>    15.9040     0.0000   168.0000 </r>
       <r>    16.0157     0.0000   168.0000 </r>
       <r>    16.1274     0.0000   168.0000 </r>
       <r>    16.2391     0.0000   168.0000 </r>
       <r>    16.3509     0.0000   168.0000 </r>
       <r>    16.4626     0.0000   168.0000 </r>
       <r>    16.5743     0.0000   168.0000 </r>
       <r>    16.6860     0.0000   168.0000 </r>
       <r>    16.7977     0.0000   168.0000 </r>
       <r>    16.9094     0.0000   168.0000 </r>
       <r>    17.0212     0.0000   168.0000 </r>
       <r>    17.1329     0.0000   168.0000 </r>
      </set>
     </set>
    </array>
   </total>
  </dos>
 </calculation>
 <structure name="finalpos" >
  <crystal>
   <varray name="basis" >
    <v>       4.93287450      -0.00191929       0.00000000 </v>
    <v>      -2.46809940       4.27103499       0.00000000 </v>
    <v>       0.00000000       0.00000000      12.46769137 </v>
   </varray>
   <i name="volume">    262.61624148 </i>
   <varray name="rec_basis" >
    <v>       0.20276715       0.11717288       0.00000000 </v>
    <v>       0.00009112       0.23418794       0.00000000 </v>
    <v>       0.00000000       0.00000000       0.08020731 </v>
   </varray>
  </crystal>
  <varray name="positions" >
   <v>       0.50041912       0.00032672       0.12574582 </v>
   <v>       0.99967330       0.00032672       0.12500000 </v>
   <v>       0.49967330       0.50032672       0.12500000 </v>
   <v>       0.99967330       0.50032672       0.12500000 </v>
   <v>       0.49967330       0.00032672       0.62500000 </v>
   <v>       0.99967330       0.00032672       0.62500000 </v>
   <v>       0.49967330       0.50032672       0.62500000 </v>
   <v>       0.99967330       0.50032672       0.62500000 </v>
   <v>       0.00032672       0.49967330       0.37500000 </v>
   <v>       0.50032672       0.49967330       0.37500000 </v>
   <v>       0.00032672       0.99967330       0.37500000 </v>
   <v>       0.50032672       0.99967330       0.37500000 </v>
   <v>       0.00032672       0.49967330       0.87500000 </v>
   <v>       0.50032672       0.49967330       0.87500000 </v>
   <v>       0.00032672       0.99967330       0.87500000 </v>
   <v>       0.50032672       0.99967330       0.87500000 </v>
   <v>       0.16629246       0.33370753       0.12500000 </v>
   <v>       0.66629246       0.33370753       0.12500000 </v>
   <v>       0.16629246       0.83370753       0.12500000 </v>
   <v>       0.66629246       0.83370753       0.12500000 </v>
   <v>       0.16629246       0.33370753       0.62500000 </v>
   <v>       0.66629246       0.33370753       0.62500000 </v>
   <v>       0.16629246       0.83370753       0.62500000 </v>
   <v>       0.66629246       0.83370753       0.62500000 </v>
   <v>       0.33370753       0.16629246       0.37500000 </v>
   <v>       0.83370753       0.16629246       0.37500000 </v>
   <v>       0.33370753       0.66629246       0.37500000 </v>
   <v>       0.83370753       0.66629246       0.37500000 </v>
   <v>       0.33370753       0.16629246       0.87500000 </v>
   <v>       0.83370753       0.16629246       0.87500000 </v>
   <v>       0.33370753       0.66629246       0.87500000 </v>
   <v>       0.83370753       0.66629246       0.87500000 </v>
  </varray>
 </structure>
</modeling>
