mesh: [     9,     9,     4 ]
nqpoint: 324    
reciprocal_lattice:
- [   0.37486767,  -0.21642995,  -0.15303908 ] # a*
- [   0.00000000,   0.43285990,  -0.15303908 ] # b*
- [   0.00000000,   0.00000000,   0.45911725 ] # c*
natom:   2      
lattice:
- [     2.667608029382043,     0.000000000000000,     0.000000000000000 ] # a
- [     1.333804014640041,     2.310216320793850,     0.000000000000000 ] # b
- [     1.333804014640041,     0.770072106897296,     2.178092835167873 ] # c
points:
- symbol: C  # 1
  coordinates: [  0.000000000000000,  0.000000000000000,  0.000000000000000 ]
  mass: 12.010700
- symbol: C  # 2
  coordinates: [  0.250000000000000,  0.250000000000000,  0.249999985000000 ]
  mass: 12.010700
phonon:
- q-position: [    0.0000000,    0.0000000,    0.1250000 ]
  weight: 1    
  band:
  - # 1
    frequency:     5.2666619697
  - # 2
    frequency:     5.2666619699
  - # 3
    frequency:     8.5585162440
  - # 4
    frequency:    32.4441828350
  - # 5
    frequency:    32.4441828358
  - # 6
    frequency:    33.1329212132

- q-position: [    0.1111111,    0.0000000,    0.1250000 ]
  weight: 1    
  band:
  - # 1
    frequency:     5.8491494616
  - # 2
    frequency:     5.8522030510
  - # 3
    frequency:     9.3229578123
  - # 4
    frequency:    32.3636009499
  - # 5
    frequency:    32.3642427143
  - # 6
    frequency:    33.1653824725

- q-position: [    0.2222222,    0.0000000,    0.1250000 ]
  weight: 1    
  band:
  - # 1
    frequency:     9.0851975088
  - # 2
    frequency:     9.2611371375
  - # 3
    frequency:    14.1881332876
  - # 4
    frequency:    31.6715628452
  - # 5
    frequency:    31.7283524871
  - # 6
    frequency:    33.4713515554

- q-position: [    0.3333333,    0.0000000,    0.1250000 ]
  weight: 1    
  band:
  - # 1
    frequency:    12.7109666498
  - # 2
    frequency:    13.2933639859
  - # 3
    frequency:    19.2434585510
  - # 4
    frequency:    30.4787888682
  - # 5
    frequency:    30.7406147337
  - # 6
    frequency:    33.5843592272

- q-position: [    0.4444444,    0.0000000,    0.1250000 ]
  weight: 1    
  band:
  - # 1
    frequency:    15.5503563030
  - # 2
    frequency:    16.5218055081
  - # 3
    frequency:    22.9570154910
  - # 4
    frequency:    29.1924665313
  - # 5
    frequency:    29.6896423818
  - # 6
    frequency:    33.2904810819

- q-position: [   -0.4444444,    0.0000000,    0.1250000 ]
  weight: 1    
  band:
  - # 1
    frequency:    16.4266711606
  - # 2
    frequency:    17.6984737177
  - # 3
    frequency:    24.0841831919
  - # 4
    frequency:    28.7163058167
  - # 5
    frequency:    29.3193288161
  - # 6
    frequency:    33.0325681471

- q-position: [   -0.3333333,    0.0000000,    0.1250000 ]
  weight: 1    
  band:
  - # 1
    frequency:    14.8014550322
  - # 2
    frequency:    16.1634495118
  - # 3
    frequency:    22.0017943399
  - # 4
    frequency:    29.5394093609
  - # 5
    frequency:    30.0856116737
  - # 6
    frequency:    33.2717863248

- q-position: [   -0.2222222,    0.0000000,    0.1250000 ]
  weight: 1    
  band:
  - # 1
    frequency:    11.6209292008
  - # 2
    frequency:    12.7522588448
  - # 3
    frequency:    17.7360588037
  - # 4
    frequency:    30.8524367595
  - # 5
    frequency:    31.2126511105
  - # 6
    frequency:    33.4531961718

- q-position: [   -0.1111111,    0.0000000,    0.1250000 ]
  weight: 1    
  band:
  - # 1
    frequency:     7.9976478839
  - # 2
    frequency:     8.5484423121
  - # 3
    frequency:    12.6404751054
  - # 4
    frequency:    31.9138672838
  - # 5
    frequency:    32.0361607885
  - # 6
    frequency:    33.3390162813

- q-position: [    0.0000000,    0.1111111,    0.1250000 ]
  weight: 1    
  band:
  - # 1
    frequency:     5.8491494615
  - # 2
    frequency:     5.8522030510
  - # 3
    frequency:     9.3229578123
  - # 4
    frequency:    32.3636009496
  - # 5
    frequency:    32.3642427146
  - # 6
    frequency:    33.1653824725

- q-position: [    0.1111111,    0.1111111,    0.1250000 ]
  weight: 1    
  band:
  - # 1
    frequency:     4.9071387218
  - # 2
    frequency:     4.9317404724
  - # 3
    frequency:     7.9902116880
  - # 4
    frequency:    32.4926334549
  - # 5
    frequency:    32.4957791993
  - # 6
    frequency:    33.0947080894

- q-position: [    0.2222222,    0.1111111,    0.1250000 ]
  weight: 1    
  band:
  - # 1
    frequency:     7.5641643672
  - # 2
    frequency:     8.0339455705
  - # 3
    frequency:    12.0058004763
  - # 4
    frequency:    32.0126673639
  - # 5
    frequency:    32.1113975718
  - # 6
    frequency:    33.3095252239

- q-position: [    0.3333333,    0.1111111,    0.1250000 ]
  weight: 1    
  band:
  - # 1
    frequency:    11.2318192353
  - # 2
    frequency:    12.2366134476
  - # 3
    frequency:    17.2419711510
  - # 4
    frequency:    30.9901213170
  - # 5
    frequency:    31.2979303086
  - # 6
    frequency:    33.4806897183

- q-position: [    0.4444444,    0.1111111,    0.1250000 ]
  weight: 1    
  band:
  - # 1
    frequency:    14.5087018535
  - # 2
    frequency:    15.7408596484
  - # 3
    frequency:    21.6880078085
  - # 4
    frequency:    29.6819726947
  - # 5
    frequency:    30.1632518754
  - # 6
    frequency:    33.3619847576

- q-position: [    0.5555556,    0.1111111,    0.1250000 ]
  weight: 1    
  band:
  - # 1
    frequency:    16.3086664759
  - # 2
    frequency:    17.4835490722
  - # 3
    frequency:    24.0084385719
  - # 4
    frequency:    28.7863080422
  - # 5
    frequency:    29.3345090160
  - # 6
    frequency:    33.1150425098

- q-position: [   -0.3333333,    0.1111111,    0.1250000 ]
  weight: 1    
  band:
  - # 1
    frequency:    15.6304354013
  - # 2
    frequency:    16.5556159793
  - # 3
    frequency:    23.1216741613
  - # 4
    frequency:    29.1559064390
  - # 5
    frequency:    29.6281299244
  - # 6
    frequency:    33.3122926084

- q-position: [   -0.2222222,    0.1111111,    0.1250000 ]
  weight: 1    
  band:
  - # 1
    frequency:    12.8884121551
  - # 2
    frequency:    13.4802513156
  - # 3
    frequency:    19.5169064457
  - # 4
    frequency:    30.4101723995
  - # 5
    frequency:    30.6775895423
  - # 6
    frequency:    33.5926448068

- q-position: [   -0.1111111,    0.1111111,    0.1250000 ]
  weight: 1    
  band:
  - # 1
    frequency:     9.2494902734
  - # 2
    frequency:     9.4730923888
  - # 3
    frequency:    14.4339368288
  - # 4
    frequency:    31.6266067255
  - # 5
    frequency:    31.6975452801
  - # 6
    frequency:    33.4820975201

- q-position: [    0.0000000,    0.2222222,    0.1250000 ]
  weight: 1    
  band:
  - # 1
    frequency:     9.0851975087
  - # 2
    frequency:     9.2611371375
  - # 3
    frequency:    14.1881332876
  - # 4
    frequency:    31.6715628449
  - # 5
    frequency:    31.7283524872
  - # 6
    frequency:    33.4713515556

- q-position: [    0.1111111,    0.2222222,    0.1250000 ]
  weight: 1    
  band:
  - # 1
    frequency:     7.5641643671
  - # 2
    frequency:     8.0339455705
  - # 3
    frequency:    12.0058004764
  - # 4
    frequency:    32.0126673636
  - # 5
    frequency:    32.1113975718
  - # 6
    frequency:    33.3095252242

- q-position: [    0.2222222,    0.2222222,    0.1250000 ]
  weight: 1    
  band:
  - # 1
    frequency:     8.8392993714
  - # 2
    frequency:     9.0163097729
  - # 3
    frequency:    13.8596705109
  - # 4
    frequency:    31.7397029170
  - # 5
    frequency:    31.7980504500
  - # 6
    frequency:    33.4587265639

- q-position: [    0.3333333,    0.2222222,    0.1250000 ]
  weight: 1    
  band:
  - # 1
    frequency:    11.6244762835
  - # 2
    frequency:    12.6239807263
  - # 3
    frequency:    17.6225619898
  - # 4
    frequency:    30.8454712517
  - # 5
    frequency:    31.1753765190
  - # 6
    frequency:    33.4450203941

- q-position: [    0.4444444,    0.2222222,    0.1250000 ]
  weight: 1    
  band:
  - # 1
    frequency:    14.7726015424
  - # 2
    frequency:    16.7077370441
  - # 3
    frequency:    21.3416704859
  - # 4
    frequency:    29.5115396532
  - # 5
    frequency:    30.3693330031
  - # 6
    frequency:    32.9233450789

- q-position: [    0.5555556,    0.2222222,    0.1250000 ]
  weight: 1    
  band:
  - # 1
    frequency:    17.0962736906
  - # 2
    frequency:    19.4967503352
  - # 3
    frequency:    23.9697324159
  - # 4
    frequency:    28.2658883895
  - # 5
    frequency:    29.5518419900
  - # 6
    frequency:    32.1529666059

- q-position: [   -0.3333333,    0.2222222,    0.1250000 ]
  weight: 1    
  band:
  - # 1
    frequency:    17.2509454520
  - # 2
    frequency:    19.5369608558
  - # 3
    frequency:    24.1844265979
  - # 4
    frequency:    28.1756728823
  - # 5
    frequency:    29.4265644187
  - # 6
    frequency:    32.1635838385

- q-position: [   -0.2222222,    0.2222222,    0.1250000 ]
  weight: 1    
  band:
  - # 1
    frequency:    15.1072306966
  - # 2
    frequency:    16.8099078668
  - # 3
    frequency:    21.8233525747
  - # 4
    frequency:    29.3491268404
  - # 5
    frequency:    30.1389856462
  - # 6
    frequency:    32.9690818183

- q-position: [   -0.1111111,    0.2222222,    0.1250000 ]
  weight: 1    
  band:
  - # 1
    frequency:    11.9772622866
  - # 2
    frequency:    12.8213291759
  - # 3
    frequency:    18.1282545780
  - # 4
    frequency:    30.7153382348
  - # 5
    frequency:    31.0038482936
  - # 6
    frequency:    33.4878108426

- q-position: [    0.0000000,    0.3333333,    0.1250000 ]
  weight: 1    
  band:
  - # 1
    frequency:    12.7109666496
  - # 2
    frequency:    13.2933639859
  - # 3
    frequency:    19.2434585512
  - # 4
    frequency:    30.4787888680
  - # 5
    frequency:    30.7406147337
  - # 6
    frequency:    33.5843592275

- q-position: [    0.1111111,    0.3333333,    0.1250000 ]
  weight: 1    
  band:
  - # 1
    frequency:    11.2318192352
  - # 2
    frequency:    12.2366134475
  - # 3
    frequency:    17.2419711512
  - # 4
    frequency:    30.9901213167
  - # 5
    frequency:    31.2979303085
  - # 6
    frequency:    33.4806897187

- q-position: [    0.2222222,    0.3333333,    0.1250000 ]
  weight: 1    
  band:
  - # 1
    frequency:    11.6244762834
  - # 2
    frequency:    12.6239807263
  - # 3
    frequency:    17.6225619899
  - # 4
    frequency:    30.8454712515
  - # 5
    frequency:    31.1753765190
  - # 6
    frequency:    33.4450203944

- q-position: [    0.3333333,    0.3333333,    0.1250000 ]
  weight: 1    
  band:
  - # 1
    frequency:    13.5960050909
  - # 2
    frequency:    14.1345803993
  - # 3
    frequency:    20.3146386519
  - # 4
    frequency:    30.0550345906
  - # 5
    frequency:    30.2872324244
  - # 6
    frequency:    33.5429359732

- q-position: [    0.4444444,    0.3333333,    0.1250000 ]
  weight: 1    
  band:
  - # 1
    frequency:    16.2276253360
  - # 2
    frequency:    17.4671311046
  - # 3
    frequency:    23.2098054069
  - # 4
    frequency:    28.7006931932
  - # 5
    frequency:    29.3330685824
  - # 6
    frequency:    32.9566653480

- q-position: [    0.5555556,    0.3333333,    0.1250000 ]
  weight: 1    
  band:
  - # 1
    frequency:    18.7309800379
  - # 2
    frequency:    21.2589075767
  - # 3
    frequency:    25.1945208822
  - # 4
    frequency:    27.1406108120
  - # 5
    frequency:    28.6840718934
  - # 6
    frequency:    31.4679503944

- q-position: [   -0.3333333,    0.3333333,    0.1250000 ]
  weight: 1    
  band:
  - # 1
    frequency:    19.4910905691
  - # 2
    frequency:    23.3330552923
  - # 3
    frequency:    25.2255938029
  - # 4
    frequency:    26.6025259818
  - # 5
    frequency:    29.0352725386
  - # 6
    frequency:    30.1586783556

- q-position: [   -0.2222222,    0.3333333,    0.1250000 ]
  weight: 1    
  band:
  - # 1
    frequency:    17.7308594447
  - # 2
    frequency:    21.1247258262
  - # 3
    frequency:    23.7213735857
  - # 4
    frequency:    27.8163708352
  - # 5
    frequency:    29.7620713971
  - # 6
    frequency:    31.3063139716

- q-position: [   -0.1111111,    0.3333333,    0.1250000 ]
  weight: 1    
  band:
  - # 1
    frequency:    15.0710556957
  - # 2
    frequency:    16.8736304242
  - # 3
    frequency:    21.7057725048
  - # 4
    frequency:    29.3589692051
  - # 5
    frequency:    30.1877849153
  - # 6
    frequency:    32.9253759474

- q-position: [    0.0000000,    0.4444444,    0.1250000 ]
  weight: 1    
  band:
  - # 1
    frequency:    15.5503563028
  - # 2
    frequency:    16.5218055080
  - # 3
    frequency:    22.9570154913
  - # 4
    frequency:    29.1924665310
  - # 5
    frequency:    29.6896423818
  - # 6
    frequency:    33.2904810822

- q-position: [    0.1111111,    0.4444444,    0.1250000 ]
  weight: 1    
  band:
  - # 1
    frequency:    14.5087018533
  - # 2
    frequency:    15.7408596484
  - # 3
    frequency:    21.6880078088
  - # 4
    frequency:    29.6819726944
  - # 5
    frequency:    30.1632518753
  - # 6
    frequency:    33.3619847581

- q-position: [    0.2222222,    0.4444444,    0.1250000 ]
  weight: 1    
  band:
  - # 1
    frequency:    14.7726015423
  - # 2
    frequency:    16.7077370440
  - # 3
    frequency:    21.3416704861
  - # 4
    frequency:    29.5115396531
  - # 5
    frequency:    30.3693330029
  - # 6
    frequency:    32.9233450793

- q-position: [    0.3333333,    0.4444444,    0.1250000 ]
  weight: 1    
  band:
  - # 1
    frequency:    16.2276253359
  - # 2
    frequency:    17.4671311046
  - # 3
    frequency:    23.2098054070
  - # 4
    frequency:    28.7006931931
  - # 5
    frequency:    29.3330685824
  - # 6
    frequency:    32.9566653481

- q-position: [    0.4444444,    0.4444444,    0.1250000 ]
  weight: 1    
  band:
  - # 1
    frequency:    18.2713434356
  - # 2
    frequency:    19.1044310226
  - # 3
    frequency:    25.8248792879
  - # 4
    frequency:    27.3812869438
  - # 5
    frequency:    27.7386497896
  - # 6
    frequency:    32.6749221456

- q-position: [    0.5555556,    0.4444444,    0.1250000 ]
  weight: 1    
  band:
  - # 1
    frequency:    20.7214799639
  - # 2
    frequency:    21.8879384482
  - # 3
    frequency:    25.6135331503
  - # 4
    frequency:    26.4992648753
  - # 5
    frequency:    27.7965610397
  - # 6
    frequency:    31.3190807997

- q-position: [    0.6666667,    0.4444444,    0.1250000 ]
  weight: 1    
  band:
  - # 1
    frequency:    21.7554078887
  - # 2
    frequency:    24.4116536767
  - # 3
    frequency:    25.0357790103
  - # 4
    frequency:    26.3963919372
  - # 5
    frequency:    27.9204379810
  - # 6
    frequency:    29.6058443917

- q-position: [   -0.2222222,    0.4444444,    0.1250000 ]
  weight: 1    
  band:
  - # 1
    frequency:    19.6874291379
  - # 2
    frequency:    23.7342097396
  - # 3
    frequency:    25.2354473994
  - # 4
    frequency:    26.4533997751
  - # 5
    frequency:    28.9961908314
  - # 6
    frequency:    29.9440129250

- q-position: [   -0.1111111,    0.4444444,    0.1250000 ]
  weight: 1    
  band:
  - # 1
    frequency:    17.3499246539
  - # 2
    frequency:    19.8136607486
  - # 3
    frequency:    24.1387504620
  - # 4
    frequency:    28.1042256307
  - # 5
    frequency:    29.4691697596
  - # 6
    frequency:    32.0183748166

- q-position: [    0.0000000,   -0.4444444,    0.1250000 ]
  weight: 1    
  band:
  - # 1
    frequency:    16.4266711605
  - # 2
    frequency:    17.6984737176
  - # 3
    frequency:    24.0841831922
  - # 4
    frequency:    28.7163058164
  - # 5
    frequency:    29.3193288160
  - # 6
    frequency:    33.0325681475

- q-position: [    0.1111111,    0.5555556,    0.1250000 ]
  weight: 1    
  band:
  - # 1
    frequency:    16.3086664757
  - # 2
    frequency:    17.4835490722
  - # 3
    frequency:    24.0084385722
  - # 4
    frequency:    28.7863080419
  - # 5
    frequency:    29.3345090160
  - # 6
    frequency:    33.1150425102

- q-position: [    0.2222222,    0.5555556,    0.1250000 ]
  weight: 1    
  band:
  - # 1
    frequency:    17.0962736905
  - # 2
    frequency:    19.4967503351
  - # 3
    frequency:    23.9697324162
  - # 4
    frequency:    28.2658883894
  - # 5
    frequency:    29.5518419897
  - # 6
    frequency:    32.1529666064

- q-position: [    0.3333333,    0.5555556,    0.1250000 ]
  weight: 1    
  band:
  - # 1
    frequency:    18.7309800379
  - # 2
    frequency:    21.2589075766
  - # 3
    frequency:    25.1945208824
  - # 4
    frequency:    27.1406108119
  - # 5
    frequency:    28.6840718933
  - # 6
    frequency:    31.4679503946

- q-position: [    0.4444444,    0.5555556,    0.1250000 ]
  weight: 1    
  band:
  - # 1
    frequency:    20.7214799639
  - # 2
    frequency:    21.8879384482
  - # 3
    frequency:    25.6135331503
  - # 4
    frequency:    26.4992648753
  - # 5
    frequency:    27.7965610398
  - # 6
    frequency:    31.3190807997

- q-position: [    0.5555556,    0.5555556,    0.1250000 ]
  weight: 1    
  band:
  - # 1
    frequency:    21.8015859055
  - # 2
    frequency:    23.4331999754
  - # 3
    frequency:    24.3033572079
  - # 4
    frequency:    24.5814417156
  - # 5
    frequency:    29.7073158354
  - # 6
    frequency:    30.5771427875

- q-position: [   -0.3333333,   -0.4444444,    0.1250000 ]
  weight: 1    
  band:
  - # 1
    frequency:    21.2440881953
  - # 2
    frequency:    22.3559009113
  - # 3
    frequency:    25.2098271925
  - # 4
    frequency:    26.0942534282
  - # 5
    frequency:    28.2740974756
  - # 6
    frequency:    31.0180154933

- q-position: [   -0.2222222,   -0.4444444,    0.1250000 ]
  weight: 1    
  band:
  - # 1
    frequency:    19.2138308742
  - # 2
    frequency:    21.7882681688
  - # 3
    frequency:    25.6278571943
  - # 4
    frequency:    26.7945017576
  - # 5
    frequency:    28.4073113488
  - # 6
    frequency:    31.2264184309

- q-position: [   -0.1111111,   -0.4444444,    0.1250000 ]
  weight: 1    
  band:
  - # 1
    frequency:    17.4347192510
  - # 2
    frequency:    20.0001646683
  - # 3
    frequency:    24.2022625065
  - # 4
    frequency:    28.0521964926
  - # 5
    frequency:    29.4780395686
  - # 6
    frequency:    31.9268474888

- q-position: [    0.0000000,   -0.3333333,    0.1250000 ]
  weight: 1    
  band:
  - # 1
    frequency:    14.8014550321
  - # 2
    frequency:    16.1634495117
  - # 3
    frequency:    22.0017943401
  - # 4
    frequency:    29.5394093606
  - # 5
    frequency:    30.0856116736
  - # 6
    frequency:    33.2717863252

- q-position: [    0.1111111,   -0.3333333,    0.1250000 ]
  weight: 1    
  band:
  - # 1
    frequency:    15.6304354011
  - # 2
    frequency:    16.5556159793
  - # 3
    frequency:    23.1216741616
  - # 4
    frequency:    29.1559064387
  - # 5
    frequency:    29.6281299244
  - # 6
    frequency:    33.3122926088

- q-position: [    0.2222222,   -0.3333333,    0.1250000 ]
  weight: 1    
  band:
  - # 1
    frequency:    17.2509454520
  - # 2
    frequency:    19.5369608556
  - # 3
    frequency:    24.1844265982
  - # 4
    frequency:    28.1756728821
  - # 5
    frequency:    29.4265644185
  - # 6
    frequency:    32.1635838389

- q-position: [    0.3333333,   -0.3333333,    0.1250000 ]
  weight: 1    
  band:
  - # 1
    frequency:    19.4910905690
  - # 2
    frequency:    23.3330552921
  - # 3
    frequency:    25.2255938032
  - # 4
    frequency:    26.6025259818
  - # 5
    frequency:    29.0352725383
  - # 6
    frequency:    30.1586783559

- q-position: [    0.4444444,    0.6666667,    0.1250000 ]
  weight: 1    
  band:
  - # 1
    frequency:    21.7554078887
  - # 2
    frequency:    24.4116536767
  - # 3
    frequency:    25.0357790103
  - # 4
    frequency:    26.3963919372
  - # 5
    frequency:    27.9204379810
  - # 6
    frequency:    29.6058443917

- q-position: [   -0.4444444,   -0.3333333,    0.1250000 ]
  weight: 1    
  band:
  - # 1
    frequency:    21.2440881954
  - # 2
    frequency:    22.3559009113
  - # 3
    frequency:    25.2098271925
  - # 4
    frequency:    26.0942534282
  - # 5
    frequency:    28.2740974756
  - # 6
    frequency:    31.0180154933

- q-position: [   -0.3333333,   -0.3333333,    0.1250000 ]
  weight: 1    
  band:
  - # 1
    frequency:    18.8253679720
  - # 2
    frequency:    19.6966011447
  - # 3
    frequency:    26.4150446117
  - # 4
    frequency:    26.9893473415
  - # 5
    frequency:    27.3471833680
  - # 6
    frequency:    32.4734308516

- q-position: [   -0.2222222,   -0.3333333,    0.1250000 ]
  weight: 1    
  band:
  - # 1
    frequency:    16.8051906103
  - # 2
    frequency:    18.0542196572
  - # 3
    frequency:    23.8479113225
  - # 4
    frequency:    28.3599173449
  - # 5
    frequency:    29.0318659661
  - # 6
    frequency:    32.8229143435

- q-position: [   -0.1111111,   -0.3333333,    0.1250000 ]
  weight: 1    
  band:
  - # 1
    frequency:    15.2610078346
  - # 2
    frequency:    17.2922174645
  - # 3
    frequency:    21.8515724843
  - # 4
    frequency:    29.2627661159
  - # 5
    frequency:    30.2066104685
  - # 6
    frequency:    32.7920707532

- q-position: [    0.0000000,   -0.2222222,    0.1250000 ]
  weight: 1    
  band:
  - # 1
    frequency:    11.6209292007
  - # 2
    frequency:    12.7522588447
  - # 3
    frequency:    17.7360588039
  - # 4
    frequency:    30.8524367592
  - # 5
    frequency:    31.2126511104
  - # 6
    frequency:    33.4531961722

- q-position: [    0.1111111,   -0.2222222,    0.1250000 ]
  weight: 1    
  band:
  - # 1
    frequency:    12.8884121549
  - # 2
    frequency:    13.4802513157
  - # 3
    frequency:    19.5169064459
  - # 4
    frequency:    30.4101723992
  - # 5
    frequency:    30.6775895424
  - # 6
    frequency:    33.5926448071

- q-position: [    0.2222222,   -0.2222222,    0.1250000 ]
  weight: 1    
  band:
  - # 1
    frequency:    15.1072306965
  - # 2
    frequency:    16.8099078667
  - # 3
    frequency:    21.8233525748
  - # 4
    frequency:    29.3491268403
  - # 5
    frequency:    30.1389856460
  - # 6
    frequency:    32.9690818185

- q-position: [    0.3333333,   -0.2222222,    0.1250000 ]
  weight: 1    
  band:
  - # 1
    frequency:    17.7308594447
  - # 2
    frequency:    21.1247258262
  - # 3
    frequency:    23.7213735857
  - # 4
    frequency:    27.8163708352
  - # 5
    frequency:    29.7620713970
  - # 6
    frequency:    31.3063139716

- q-position: [    0.4444444,   -0.2222222,    0.1250000 ]
  weight: 1    
  band:
  - # 1
    frequency:    19.6874291379
  - # 2
    frequency:    23.7342097399
  - # 3
    frequency:    25.2354473991
  - # 4
    frequency:    26.4533997751
  - # 5
    frequency:    28.9961908317
  - # 6
    frequency:    29.9440129247

- q-position: [   -0.4444444,   -0.2222222,    0.1250000 ]
  weight: 1    
  band:
  - # 1
    frequency:    19.2138308743
  - # 2
    frequency:    21.7882681689
  - # 3
    frequency:    25.6278571941
  - # 4
    frequency:    26.7945017577
  - # 5
    frequency:    28.4073113489
  - # 6
    frequency:    31.2264184307

- q-position: [   -0.3333333,   -0.2222222,    0.1250000 ]
  weight: 1    
  band:
  - # 1
    frequency:    16.8051906104
  - # 2
    frequency:    18.0542196572
  - # 3
    frequency:    23.8479113224
  - # 4
    frequency:    28.3599173450
  - # 5
    frequency:    29.0318659661
  - # 6
    frequency:    32.8229143434

- q-position: [   -0.2222222,   -0.2222222,    0.1250000 ]
  weight: 1    
  band:
  - # 1
    frequency:    14.1939292098
  - # 2
    frequency:    14.7726964023
  - # 3
    frequency:    21.0701909074
  - # 4
    frequency:    29.7731893604
  - # 5
    frequency:    30.0277316497
  - # 6
    frequency:    33.4989871545

- q-position: [   -0.1111111,   -0.2222222,    0.1250000 ]
  weight: 1    
  band:
  - # 1
    frequency:    12.1889698567
  - # 2
    frequency:    13.2344253421
  - # 3
    frequency:    18.3530312815
  - # 4
    frequency:    30.6339014793
  - # 5
    frequency:    30.9987493323
  - # 6
    frequency:    33.4308261045

- q-position: [    0.0000000,   -0.1111111,    0.1250000 ]
  weight: 1    
  band:
  - # 1
    frequency:     7.9976478839
  - # 2
    frequency:     8.5484423121
  - # 3
    frequency:    12.6404751055
  - # 4
    frequency:    31.9138672835
  - # 5
    frequency:    32.0361607885
  - # 6
    frequency:    33.3390162816

- q-position: [    0.1111111,   -0.1111111,    0.1250000 ]
  weight: 1    
  band:
  - # 1
    frequency:     9.2494902733
  - # 2
    frequency:     9.4730923888
  - # 3
    frequency:    14.4339368289
  - # 4
    frequency:    31.6266067251
  - # 5
    frequency:    31.6975452802
  - # 6
    frequency:    33.4820975204

- q-position: [    0.2222222,   -0.1111111,    0.1250000 ]
  weight: 1    
  band:
  - # 1
    frequency:    11.9772622866
  - # 2
    frequency:    12.8213291759
  - # 3
    frequency:    18.1282545780
  - # 4
    frequency:    30.7153382348
  - # 5
    frequency:    31.0038482936
  - # 6
    frequency:    33.4878108427

- q-position: [    0.3333333,   -0.1111111,    0.1250000 ]
  weight: 1    
  band:
  - # 1
    frequency:    15.0710556957
  - # 2
    frequency:    16.8736304243
  - # 3
    frequency:    21.7057725047
  - # 4
    frequency:    29.3589692051
  - # 5
    frequency:    30.1877849154
  - # 6
    frequency:    32.9253759472

- q-position: [    0.4444444,   -0.1111111,    0.1250000 ]
  weight: 1    
  band:
  - # 1
    frequency:    17.3499246540
  - # 2
    frequency:    19.8136607487
  - # 3
    frequency:    24.1387504617
  - # 4
    frequency:    28.1042256308
  - # 5
    frequency:    29.4691697598
  - # 6
    frequency:    32.0183748163

- q-position: [   -0.4444444,   -0.1111111,    0.1250000 ]
  weight: 1    
  band:
  - # 1
    frequency:    17.4347192510
  - # 2
    frequency:    20.0001646684
  - # 3
    frequency:    24.2022625062
  - # 4
    frequency:    28.0521964927
  - # 5
    frequency:    29.4780395689
  - # 6
    frequency:    31.9268474884

- q-position: [   -0.3333333,   -0.1111111,    0.1250000 ]
  weight: 1    
  band:
  - # 1
    frequency:    15.2610078347
  - # 2
    frequency:    17.2922174646
  - # 3
    frequency:    21.8515724840
  - # 4
    frequency:    29.2627661160
  - # 5
    frequency:    30.2066104687
  - # 6
    frequency:    32.7920707529

- q-position: [   -0.2222222,   -0.1111111,    0.1250000 ]
  weight: 1    
  band:
  - # 1
    frequency:    12.1889698568
  - # 2
    frequency:    13.2344253421
  - # 3
    frequency:    18.3530312814
  - # 4
    frequency:    30.6339014795
  - # 5
    frequency:    30.9987493322
  - # 6
    frequency:    33.4308261043

- q-position: [   -0.1111111,   -0.1111111,    0.1250000 ]
  weight: 1    
  band:
  - # 1
    frequency:     9.4204518082
  - # 2
    frequency:     9.6440394827
  - # 3
    frequency:    14.6856136211
  - # 4
    frequency:    31.5831481062
  - # 5
    frequency:    31.6597731141
  - # 6
    frequency:    33.4987035875

- q-position: [    0.0000000,    0.0000000,    0.3750000 ]
  weight: 1    
  band:
  - # 1
    frequency:    14.0500898374
  - # 2
    frequency:    14.0500898377
  - # 3
    frequency:    21.7215185804
  - # 4
    frequency:    29.9530081553
  - # 5
    frequency:    29.9530081560
  - # 6
    frequency:    33.9302440656

- q-position: [    0.1111111,    0.0000000,    0.3750000 ]
  weight: 1    
  band:
  - # 1
    frequency:    13.8577304367
  - # 2
    frequency:    14.4857014262
  - # 3
    frequency:    20.8639443628
  - # 4
    frequency:    30.0086898534
  - # 5
    frequency:    30.3169847245
  - # 6
    frequency:    33.5775105603

- q-position: [    0.2222222,    0.0000000,    0.3750000 ]
  weight: 1    
  band:
  - # 1
    frequency:    14.9425394574
  - # 2
    frequency:    15.7766194121
  - # 3
    frequency:    21.9095691825
  - # 4
    frequency:    29.4105716094
  - # 5
    frequency:    29.7921877660
  - # 6
    frequency:    33.3401819743

- q-position: [    0.3333333,    0.0000000,    0.3750000 ]
  weight: 1    
  band:
  - # 1
    frequency:    16.9803279082
  - # 2
    frequency:    17.0756408759
  - # 3
    frequency:    24.6884845007
  - # 4
    frequency:    28.2024098687
  - # 5
    frequency:    28.2438622642
  - # 6
    frequency:    33.3307289733

- q-position: [    0.4444444,    0.0000000,    0.3750000 ]
  weight: 1    
  band:
  - # 1
    frequency:    19.3694954886
  - # 2
    frequency:    19.6710637349
  - # 3
    frequency:    26.5678434477
  - # 4
    frequency:    26.6749924236
  - # 5
    frequency:    27.2276788830
  - # 6
    frequency:    32.5372750333

- q-position: [    0.5555556,    0.0000000,    0.3750000 ]
  weight: 1    
  band:
  - # 1
    frequency:    20.9457875797
  - # 2
    frequency:    23.2038775966
  - # 3
    frequency:    25.3525088592
  - # 4
    frequency:    25.6833801968
  - # 5
    frequency:    28.3379704860
  - # 6
    frequency:    30.8506409615

- q-position: [   -0.3333333,    0.0000000,    0.3750000 ]
  weight: 1    
  band:
  - # 1
    frequency:    19.8535463032
  - # 2
    frequency:    23.9596004551
  - # 3
    frequency:    26.1169314535
  - # 4
    frequency:    26.2807665390
  - # 5
    frequency:    27.7017725187
  - # 6
    frequency:    30.3937544886

- q-position: [   -0.2222222,    0.0000000,    0.3750000 ]
  weight: 1    
  band:
  - # 1
    frequency:    17.5626000418
  - # 2
    frequency:    20.8479026594
  - # 3
    frequency:    24.0878642350
  - # 4
    frequency:    27.9482813471
  - # 5
    frequency:    29.6058451930
  - # 6
    frequency:    31.5142683041

- q-position: [   -0.1111111,    0.0000000,    0.3750000 ]
  weight: 1    
  band:
  - # 1
    frequency:    15.4257565707
  - # 2
    frequency:    16.5381555449
  - # 3
    frequency:    22.9681169955
  - # 4
    frequency:    29.2480131737
  - # 5
    frequency:    29.7091068072
  - # 6
    frequency:    33.3188076250

- q-position: [    0.0000000,    0.1111111,    0.3750000 ]
  weight: 1    
  band:
  - # 1