# Thermal properties / unit cell (natom)

unit:
  temperature:   K
  free_energy:   kJ/mol
  entropy:       J/K/mol
  heat_capacity: J/K/mol

natom:     2
num_modes: 1944
num_integrated_modes: 1944

zero_point_energy:      29.3096749
high_T_entropy:        116.7107853

thermal_properties:
- temperature:         0.0000000
  free_energy:        29.3096749
  entropy:             0.0000000
  heat_capacity:       0.0000000
  energy:             29.3096749

- temperature:        10.0000000
  free_energy:        29.3096749
  entropy:             0.0000000
  heat_capacity:       0.0000000
  energy:             29.3096749

- temperature:        20.0000000
  free_energy:        29.3096749
  entropy:             0.0000169
  heat_capacity:       0.0001935
  energy:             29.3096752

- temperature:        30.0000000
  free_energy:        29.3096725
  entropy:             0.0007676
  heat_capacity:       0.0058725
  energy:             29.3096955

- temperature:        40.0000000
  free_energy:        29.3096471
  entropy:             0.0052783
  heat_capacity:       0.0309571
  energy:             29.3098582

- temperature:        50.0000000
  free_energy:        29.3095413
  entropy:             0.0174338
  heat_capacity:       0.0853969
  energy:             29.3104130

- temperature:        60.0000000
  free_energy:        29.3092625
  entropy:             0.0403296
  heat_capacity:       0.1747177
  energy:             29.3116823

- temperature:        70.0000000
  free_energy:        29.3086906
  entropy:             0.0764643
  heat_capacity:       0.3048161
  energy:             29.3140431

- temperature:        80.0000000
  free_energy:        29.3076812
  entropy:             0.1282261
  heat_capacity:       0.4831112
  energy:             29.3179392

- temperature:        90.0000000
  free_energy:        29.3060658
  entropy:             0.1980681
  heat_capacity:       0.7173504
  energy:             29.3238919

- temperature:       100.0000000
  free_energy:        29.3036514
  entropy:             0.2884370
  heat_capacity:       1.0141650
  energy:             29.3324951

- temperature:       110.0000000
  free_energy:        29.3002209
  entropy:             0.4016256
  heat_capacity:       1.3782735
  energy:             29.3443998

- temperature:       120.0000000
  free_energy:        29.2955360
  entropy:             0.5396482
  heat_capacity:       1.8123010
  energy:             29.3602938

- temperature:       130.0000000
  free_energy:        29.2893396
  entropy:             0.7041664
  heat_capacity:       2.3169125
  energy:             29.3808812

- temperature:       140.0000000
  free_energy:        29.2813601
  entropy:             0.8964561
  heat_capacity:       2.8910354
  energy:             29.4068639

- temperature:       150.0000000
  free_energy:        29.2713149
  entropy:             1.1174016
  heat_capacity:       3.5320822
  energy:             29.4389252

- temperature:       160.0000000
  free_energy:        29.2589148
  entropy:             1.3675063
  heat_capacity:       4.2361666
  energy:             29.4777158

- temperature:       170.0000000
  free_energy:        29.2438671
  entropy:             1.6469123
  heat_capacity:       4.9983245
  energy:             29.5238422

- temperature:       180.0000000
  free_energy:        29.2258795
  entropy:             1.9554283
  heat_capacity:       5.8127491
  energy:             29.5778566

- temperature:       190.0000000
  free_energy:        29.2046631
  entropy:             2.2925630
  heat_capacity:       6.6730352
  energy:             29.6402501

- temperature:       200.0000000
  free_energy:        29.1799353
  entropy:             2.6575616
  heat_capacity:       7.5724212
  energy:             29.7114476

- temperature:       210.0000000
  free_energy:        29.1514222
  entropy:             3.0494458
  heat_capacity:       8.5040154
  energy:             29.7918059

- temperature:       220.0000000
  free_energy:        29.1188607
  entropy:             3.4670541
  heat_capacity:       9.4609958
  energy:             29.8816125

- temperature:       230.0000000
  free_energy:        29.0819997
  entropy:             3.9090811
  heat_capacity:      10.4367759
  energy:             29.9810884

- temperature:       240.0000000
  free_energy:        29.0406023
  entropy:             4.3741150
  heat_capacity:      11.4251328
  energy:             30.0903899

- temperature:       250.0000000
  free_energy:        28.9944457
  entropy:             4.8606720
  heat_capacity:      12.4203009
  energy:             30.2096137

- temperature:       260.0000000
  free_energy:        28.9433222
  entropy:             5.3672264
  heat_capacity:      13.4170307
  energy:             30.3388011

- temperature:       270.0000000
  free_energy:        28.8870397
  entropy:             5.8922375
  heat_capacity:      14.4106210
  energy:             30.4779438

- temperature:       280.0000000
  free_energy:        28.8254211
  entropy:             6.4341718
  heat_capacity:      15.3969268
  energy:             30.6269892

- temperature:       290.0000000
  free_energy:        28.7583048
  entropy:             6.9915212
  heat_capacity:      16.3723495
  energy:             30.7858460

- temperature:       300.0000000
  free_energy:        28.6855442
  entropy:             7.5628181
  heat_capacity:      17.3338141
  energy:             30.9543896

- temperature:       310.0000000
  free_energy:        28.6070067
  entropy:             8.1466464
  heat_capacity:      18.2787367
  energy:             31.1324671

- temperature:       320.0000000
  free_energy:        28.5225740
  entropy:             8.7416501
  heat_capacity:      19.2049866
  energy:             31.3199020

- temperature:       330.0000000
  free_energy:        28.4321408
  entropy:             9.3465395
  heat_capacity:      20.1108449
  energy:             31.5164988

- temperature:       340.0000000
  free_energy:        28.3356143
  entropy:             9.9600944
  heat_capacity:      20.9949626
  energy:             31.7220464

- temperature:       350.0000000
  free_energy:        28.2329138
  entropy:            10.5811666
  heat_capacity:      21.8563190
  energy:             31.9363221

- temperature:       360.0000000
  free_energy:        28.1239695
  entropy:            11.2086804
  heat_capacity:      22.6941817
  energy:             32.1590945

- temperature:       370.0000000
  free_energy:        28.0087221
  entropy:            11.8416317
  heat_capacity:      23.5080690
  energy:             32.3901258

- temperature:       380.0000000
  free_energy:        27.8871219
  entropy:            12.4790872
  heat_capacity:      24.2977155
  energy:             32.6291750

- temperature:       390.0000000
  free_energy:        27.7591282
  entropy:            13.1201816
  heat_capacity:      25.0630402
  energy:             32.8759991

- temperature:       400.0000000
  free_energy:        27.6247088
  entropy:            13.7641155
  heat_capacity:      25.8041180
  energy:             33.1303550

- temperature:       410.0000000
  free_energy:        27.4838389
  entropy:            14.4101521
  heat_capacity:      26.5211545
  energy:             33.3920013

- temperature:       420.0000000
  free_energy:        27.3365010
  entropy:            15.0576142
  heat_capacity:      27.2144629
  energy:             33.6606990

- temperature:       430.0000000
  free_energy:        27.1826840
  entropy:            15.7058809
  heat_capacity:      27.8844447
  energy:             33.9362128

- temperature:       440.0000000
  free_energy:        27.0223826
  entropy:            16.3543843
  heat_capacity:      28.5315720
  energy:             34.2183117

- temperature:       450.0000000
  free_energy:        26.8555972
  entropy:            17.0026057
  heat_capacity:      29.1563727
  energy:             34.5067698

- temperature:       460.0000000
  free_energy:        26.6823330
  entropy:            17.6500730
  heat_capacity:      29.7594177
  energy:             34.8013666

- temperature:       470.0000000
  free_energy:        26.5025997
  entropy:            18.2963573
  heat_capacity:      30.3413095
  energy:             35.1018876

- temperature:       480.0000000
  free_energy:        26.3164111
  entropy:            18.9410693
  heat_capacity:      30.9026730
  energy:             35.4081244

- temperature:       490.0000000
  free_energy:        26.1237847
  entropy:            19.5838572
  heat_capacity:      31.4441474
  energy:             35.7198748

- temperature:       500.0000000
  free_energy:        25.9247414
  entropy:            20.2244035
  heat_capacity:      31.9663798
  energy:             36.0369432

- temperature:       510.0000000
  free_energy:        25.7193051
  entropy:            20.8624222
  heat_capacity:      32.4700190
  energy:             36.3591404

- temperature:       520.0000000
  free_energy:        25.5075023
  entropy:            21.4976566
  heat_capacity:      32.9557116
  energy:             36.6862837

- temperature:       530.0000000
  free_energy:        25.2893620
  entropy:            22.1298772
  heat_capacity:      33.4240974
  energy:             37.0181969

- temperature:       540.0000000
  free_energy:        25.0649155
  entropy:            22.7588789
  heat_capacity:      33.8758073
  energy:             37.3547101

- temperature:       550.0000000
  free_energy:        24.8341958
  entropy:            23.3844796
  heat_capacity:      34.3114597
  energy:             37.6956596

- temperature:       560.0000000
  free_energy:        24.5972378
  entropy:            24.0065179
  heat_capacity:      34.7316595
  energy:             38.0408878

- temperature:       570.0000000
  free_energy:        24.3540778
  entropy:            24.6248517
  heat_capacity:      35.1369960
  energy:             38.3902432

- temperature:       580.0000000
  free_energy:        24.1047535
  entropy:            25.2393562
  heat_capacity:      35.5280422
  energy:             38.7435801

- temperature:       590.0000000
  free_energy:        23.8493038
  entropy:            25.8499229
  heat_capacity:      35.9053537
  energy:             39.1007583

- temperature:       600.0000000
  free_energy:        23.5877685
  entropy:            26.4564578
  heat_capacity:      36.2694682
  energy:             39.4616432

- temperature:       610.0000000
  free_energy:        23.3201883
  entropy:            27.0588804
  heat_capacity:      36.6209052
  energy:             39.8261054

- temperature:       620.0000000
  free_energy:        23.0466048
  entropy:            27.6571224
  heat_capacity:      36.9601660
  energy:             40.1940207

- temperature:       630.0000000
  free_energy:        22.7670600
  entropy:            28.2511265
  heat_capacity:      37.2877337
  energy:             40.5652697

- temperature:       640.0000000
  free_energy:        22.4815966
  entropy:            28.8408459
  heat_capacity:      37.6040730
  energy:             40.9397379

- temperature:       650.0000000
  free_energy:        22.1902575
  entropy:            29.4262427
  heat_capacity:      37.9096310
  energy:             41.3173153

- temperature:       660.0000000
  free_energy:        21.8930862
  entropy:            30.0072876
  heat_capacity:      38.2048370
  energy:             41.6978960

- temperature:       670.0000000
  free_energy:        21.5901263
  entropy:            30.5839590
  heat_capacity:      38.4901034
  energy:             42.0813789

- temperature:       680.0000000
  free_energy:        21.2814217
  entropy:            31.1562421
  heat_capacity:      38.7658257
  energy:             42.4676663

- temperature:       690.0000000
  free_energy:        20.9670161
  entropy:            31.7241285
  heat_capacity:      39.0323830
  energy:             42.8566648

- temperature:       700.0000000
  free_energy:        20.6469537
  entropy:            32.2876155
  heat_capacity:      39.2901390
  energy:             43.2482846

- temperature:       710.0000000
  free_energy:        20.3212785
  entropy:            32.8467056
  heat_capacity:      39.5394419
  energy:             43.6424394

- temperature:       720.0000000
  free_energy:        19.9900343
  entropy:            33.4014057
  heat_capacity:      39.7806253
  energy:             44.0390464

- temperature:       730.0000000
  free_energy:        19.6532650
  entropy:            33.9517274
  heat_capacity:      40.0140087
  energy:             44.4380259

- temperature:       740.0000000
  free_energy:        19.3110143
  entropy:            34.4976856
  heat_capacity:      40.2398977
  energy:             44.8393016

- temperature:       750.0000000
  free_energy:        18.9633257
  entropy:            35.0392989
  heat_capacity:      40.4585852
  energy:             45.2427999

- temperature:       760.0000000
  free_energy:        18.6102427
  entropy:            35.5765888
  heat_capacity:      40.6703513
  energy:             45.6484502

- temperature:       770.0000000
  free_energy:        18.2518083
  entropy:            36.1095798
  heat_capacity:      40.8754639
  energy:             46.0561847

- temperature:       780.0000000
  free_energy:        17.8880653
  entropy:            36.6382985
  heat_capacity:      41.0741798
  energy:             46.4659382

- temperature:       790.0000000
  free_energy:        17.5190565
  entropy:            37.1627739
  heat_capacity:      41.2667442
  energy:             46.8776478

- temperature:       800.0000000
  free_energy:        17.1448239
  entropy:            37.6830368
  heat_capacity:      41.4533922
  energy:             47.2912533

- temperature:       810.0000000
  free_energy:        16.7654097
  entropy:            38.1991198
  heat_capacity:      41.6343484
  energy:             47.7066967

- temperature:       820.0000000
  free_energy:        16.3808553
  entropy:            38.7110570
  heat_capacity:      41.8098279
  energy:             48.1239221

- temperature:       830.0000000
  free_energy:        15.9912022
  entropy:            39.2188837
  heat_capacity:      41.9800366
  energy:             48.5428757

- temperature:       840.0000000
  free_energy:        15.5964912
  entropy:            39.7226365
  heat_capacity:      42.1451715
  energy:             48.9635059

- temperature:       850.0000000
  free_energy:        15.1967629
  entropy:            40.2223528
  heat_capacity:      42.3054211
  energy:             49.3857628

- temperature:       860.0000000
  free_energy:        14.7920575
  entropy:            40.7180711
  heat_capacity:      42.4609660
  energy:             49.8095986

- temperature:       870.0000000
  free_energy:        14.3824147
  entropy:            41.2098303
  heat_capacity:      42.6119790
  energy:             50.2349671

- temperature:       880.0000000
  free_energy:        13.9678740
  entropy:            41.6976701
  heat_capacity:      42.7586256
  energy:             50.6618237

- temperature:       890.0000000
  free_energy:        13.5484743
  entropy:            42.1816307
  heat_capacity:      42.9010642
  energy:             51.0901255

- temperature:       900.0000000
  free_energy:        13.1242542
  entropy:            42.6617525
  heat_capacity:      43.0394467
  energy:             51.5198314

- temperature:       910.0000000
  free_energy:        12.6952519
  entropy:            43.1380765
  heat_capacity:      43.1739185
  energy:             51.9509014

- temperature:       920.0000000
  free_energy:        12.2615051
  entropy:            43.6106436
  heat_capacity:      43.3046190
  energy:             52.3832972

- temperature:       930.0000000
  free_energy:        11.8230514
  entropy:            44.0794950
  heat_capacity:      43.4316816
  energy:             52.8169817

- temperature:       940.0000000
  free_energy:        11.3799275
  entropy:            44.5446720
  heat_capacity:      43.5552345
  energy:             53.2519191

- temperature:       950.0000000
  free_energy:        10.9321700
  entropy:            45.0062158
  heat_capacity:      43.6754002
  energy:             53.6880751

- temperature:       960.0000000
  free_energy:        10.4798152
  entropy:            45.4641678
  heat_capacity:      43.7922965
  energy:             54.1254163

- temperature:       970.0000000
  free_energy:        10.0228985
  entropy:            45.9185690
  heat_capacity:      43.9060363
  energy:             54.5639105

- temperature:       980.0000000
  free_energy:         9.5614555
  entropy:            46.3694606
  heat_capacity:      44.0167277
  energy:             55.0035268

- temperature:       990.0000000
  free_energy:         9.0955209
  entropy:            46.8168832
  heat_capacity:      44.1244747
  energy:             55.4442352

- temperature:      1000.0000000
  free_energy:         8.6251292
  entropy:            47.2608776
  heat_capacity:      44.2293769
  energy:             55.8860068
