 vasp.5.3.5 31Mar14 (build Nov 02 2014 15:17:37) complex                        
  
 executed on        ion-Intel-MKL date 2016.08.26  16:07:53
 running on    6 total cores
 distrk:  each k-point on    6 cores,    1 groups
 distr:  one band on NCORES_PER_BAND=   1 cores,    6 groups


--------------------------------------------------------------------------------------------------------


 INCAR:
 POTCAR:   PAW_PBE C 08Apr2002                    

 ----------------------------------------------------------------------------- 
|                                                                             |
|           W    W    AA    RRRRR   N    N  II  N    N   GGGG   !!!           |
|           W    W   A  A   R    R  NN   N  II  NN   N  G    G  !!!           |
|           W    W  A    A  R    R  N N  N  II  N N  N  G       !!!           |
|           W WW W  AAAAAA  RRRRR   N  N N  II  N  N N  G  GGG   !            |
|           WW  WW  A    A  R   R   N   NN  II  N   NN  G    G                |
|           W    W  A    A  R    R  N    N  II  N    N   GGGG   !!!           |
|                                                                             |
|      For optimal performance we recommend to set                            |
|        NCORE= 4 - approx SQRT( number of cores)                             |
|      NCORE specifies how many cores store one orbital (NPAR=cpu/NCORE).     |
|      This setting can  greatly improve the performance of VASP for DFT.     |
|      The default, NPAR=number of cores might be grossly inefficient         |
|      on modern multi-core architectures or massively parallel machines.     |
|      Do your own testing !!!!                                               |
|      Unfortunately you need to use the default for GW and RPA calculations. |
|      (for HF NCORE is supported but not extensively tested yet)             |
|                                                                             |
 ----------------------------------------------------------------------------- 

 POTCAR:   PAW_PBE C 08Apr2002                    
   VRHFIN =C: s2p2                                                              
   LEXCH  = PE                                                                  
   EATOM  =   147.1560 eV,   10.8157 Ry                                         
                                                                                
   TITEL  = PAW_PBE C 08Apr2002                                                 
   LULTRA =        F    use ultrasoft PP ?                                      
   IUNSCR =        0    unscreen: 0-lin 1-nonlin 2-no                           
   RPACOR =     .000    partial core radius                                     
   POMASS =   12.011; ZVAL   =    4.000    mass and valenz                      
   RCORE  =    1.500    outmost cutoff radius                                   
   RWIGS  =    1.630; RWIGS  =     .863    wigner-seitz radius (au A)           
   ENMAX  =  400.000; ENMIN  =  300.000 eV                                      
   ICORE  =        2    local potential                                         
   LCOR   =        T    correct aug charges                                     
   LPAW   =        T    paw PP                                                  
   EAUG   =  644.873                                                            
   DEXC   =     .000                                                            
   RMAX   =    2.266    core radius for proj-oper                               
   RAUG   =    1.300    factor for augmentation sphere                          
   RDEP   =    1.501    radius for radial grids                                 
   RDEPT  =    1.300    core radius for aug-charge                              
   QCUT   =   -5.516; QGAM   =   11.032    optimization parameters              
                                                                                
   Description                                                                  
     l     E      TYP  RCUT    TYP  RCUT                                        
     0   .000     23  1.200                                                     
     0   .000     23  1.200                                                     
     1   .000     23  1.500                                                     
     1  2.500     23  1.500                                                     
     2   .000      7  1.500                                                     
  local pseudopotential read in
  atomic valenz-charges read in
  non local Contribution for L=           0  read in
    real space projection operators read in
  non local Contribution for L=           0  read in
    real space projection operators read in
  non local Contribution for L=           1  read in
    real space projection operators read in
  non local Contribution for L=           1  read in
    real space projection operators read in
    PAW grid and wavefunctions read in
 
   number of l-projection  operators is LMAX  =           4
   number of lm-projection operators is LMMAX =           8
 

 ----------------------------------------------------------------------------- 
|                                                                             |
|  ADVICE TO THIS USER RUNNING 'VASP/VAMP'   (HEAR YOUR MASTER'S VOICE ...):  |
|                                                                             |
|      You have a (more or less) 'large supercell' and for larger cells       |
|      it might be more efficient to use real space projection operators      |
|      So try LREAL= Auto  in the INCAR   file.                               |
|      Mind: If you want to do a very accurate calculations keep the          |
|      reciprocal projection scheme          (i.e. LREAL=.FALSE.)             |
|                                                                             |
 ----------------------------------------------------------------------------- 

 PAW_PBE C 08Apr2002                    :
 energy of atom  1       EATOM= -147.1560
 kinetic energy error for atom=    0.0057 (will be added to EATOM!!)
 
 
 POSCAR: C                                       
  positions in direct lattice
  No initial velocities read in
 exchange correlation table for  LEXCH =        8
   RHO(1)=    0.500       N(1)  =     2000
   RHO(2)=  100.500       N(2)  =     4000
 


--------------------------------------------------------------------------------------------------------


 ion  position               nearest neighbor table
   1  0.500  0.000  0.125-  20 1.42  18 1.42  19 1.42
   2  1.000  0.000  0.125-  19 1.42  20 1.42  17 1.42
   3  0.500  0.500  0.125-  17 1.42  18 1.42  20 1.42
   4  1.000  0.500  0.125-  19 1.42  18 1.42  17 1.43
   5  0.500  0.000  0.625-  24 1.42  22 1.42  23 1.42
   6  1.000  0.000  0.625-  23 1.42  21 1.42  24 1.42
   7  0.500  0.500  0.625-  22 1.42  24 1.42  21 1.42
   8  1.000  0.500  0.625-  21 1.42  23 1.42  22 1.42
   9  0.000  0.500  0.375-  28 1.42  27 1.42  26 1.42
  10  0.500  0.500  0.375-  27 1.42  28 1.42  25 1.42
  11  0.000  1.000  0.375-  26 1.42  25 1.42  28 1.42
  12  0.500  1.000  0.375-  25 1.42  26 1.42  27 1.42
  13  0.000  0.500  0.875-  32 1.42  31 1.42  30 1.42
  14  0.500  0.500  0.875-  31 1.42  32 1.42  29 1.42
  15  0.000  1.000  0.875-  30 1.42  29 1.42  32 1.42
  16  0.500  1.000  0.875-  29 1.42  30 1.42  31 1.42
  17  0.167  0.333  0.126-   3 1.42   2 1.42   4 1.43
  18  0.667  0.333  0.125-   3 1.42   1 1.42   4 1.42
  19  0.167  0.833  0.125-   2 1.42   4 1.42   1 1.42
  20  0.667  0.833  0.125-   1 1.42   3 1.42   2 1.42
  21  0.167  0.333  0.625-   8 1.42   6 1.42   7 1.42
  22  0.667  0.333  0.625-   7 1.42   5 1.42   8 1.42
  23  0.167  0.833  0.625-   6 1.42   8 1.42   5 1.42
  24  0.667  0.833  0.625-   5 1.42   7 1.42   6 1.42
  25  0.333  0.167  0.375-  12 1.42  11 1.42  10 1.42
  26  0.833  0.167  0.375-  11 1.42  12 1.42   9 1.42
  27  0.333  0.667  0.375-  10 1.42   9 1.42  12 1.42
  28  0.833  0.667  0.375-   9 1.42  10 1.42  11 1.42
  29  0.333  0.167  0.875-  16 1.42  15 1.42  14 1.42
  30  0.833  0.167  0.875-  15 1.42  16 1.42  13 1.42
  31  0.333  0.667  0.875-  14 1.42  13 1.42  16 1.42
  32  0.833  0.667  0.875-  13 1.42  14 1.42  15 1.42
 
  LATTYP: Found a base centered orthorhombic cell.
 ALAT       =     4.9339256766
 B/A-ratio  =     1.7322311103
 C/A-ratio  =     3.1352736810
  
  Lattice vectors:
  
 A1 = (   4.9343108848,  -0.0002224000,   0.0000000000)
 A2 = (  -2.4673480464,   4.2731273763,   0.0000000000)
 A3 = (   0.0000000000,   0.0000000000,  15.4692073180)


Analysis of symmetry for initial positions (statically):
=====================================================================
 Subroutine PRICEL returns:
 Original cell was already a primitive cell.
 

 Routine SETGRP: Setting up the symmetry group for a 
 base centered orthorhombic supercell.


 Subroutine GETGRP returns: Found  1 space group operations
 (whereof  1 operations were pure point group operations)
 out of a pool of  8 trial point group operations.


The static configuration has the point symmetry C_1 .


Analysis of symmetry for dynamics (positions and initial velocities):
=====================================================================
 Subroutine PRICEL returns:
 Original cell was already a primitive cell.
 

 Routine SETGRP: Setting up the symmetry group for a 
 base centered orthorhombic supercell.


 Subroutine GETGRP returns: Found  1 space group operations
 (whereof  1 operations were pure point group operations)
 out of a pool of  8 trial point group operations.


The dynamic configuration has the point symmetry C_1 .
 
 
 KPOINTS: B4C B11C-CBC                            

Automatic generation of k-mesh.
Space group operators:
 irot       det(A)        alpha          n_x          n_y          n_z        tau_x        tau_y        tau_z
    1     1.000000     0.000001     1.000000     0.000000     0.000000     0.000000     0.000000     0.000000
 
 Subroutine IBZKPT returns following result:
 ===========================================
 
 Found    163 irreducible k-points:
 
 Following reciprocal coordinates:
            Coordinates               Weight
  0.000000  0.000000  0.000000      1.000000
  0.111111  0.000000  0.000000      2.000000
  0.222222  0.000000  0.000000      2.000000
  0.333333  0.000000  0.000000      2.000000
  0.444444  0.000000  0.000000      2.000000
 -0.000000  0.111111  0.000000      2.000000
  0.111111  0.111111  0.000000      2.000000
  0.222222  0.111111  0.000000      2.000000
  0.333333  0.111111  0.000000      2.000000
  0.444444  0.111111  0.000000      2.000000
 -0.444444  0.111111  0.000000      2.000000
 -0.333333  0.111111  0.000000      2.000000
 -0.222222  0.111111  0.000000      2.000000
 -0.111111  0.111111  0.000000      2.000000
 -0.000000  0.222222  0.000000      2.000000
  0.111111  0.222222  0.000000      2.000000
  0.222222  0.222222  0.000000      2.000000
  0.333333  0.222222  0.000000      2.000000
  0.444444  0.222222  0.000000      2.000000
 -0.444444  0.222222  0.000000      2.000000
 -0.333333  0.222222  0.000000      2.000000
 -0.222222  0.222222  0.000000      2.000000
 -0.111111  0.222222  0.000000      2.000000
 -0.000000  0.333333  0.000000      2.000000
  0.111111  0.333333  0.000000      2.000000
  0.222222  0.333333  0.000000      2.000000
  0.333333  0.333333  0.000000      2.000000
  0.444444  0.333333  0.000000      2.000000
 -0.444444  0.333333  0.000000      2.000000
 -0.333333  0.333333  0.000000      2.000000
 -0.222222  0.333333  0.000000      2.000000
 -0.111111  0.333333  0.000000      2.000000
 -0.000000  0.444444  0.000000      2.000000
  0.111111  0.444444  0.000000      2.000000
  0.222222  0.444444  0.000000      2.000000
  0.333333  0.444444  0.000000      2.000000
  0.444444  0.444444  0.000000      2.000000
 -0.444444  0.444444  0.000000      2.000000
 -0.333333  0.444444  0.000000      2.000000
 -0.222222  0.444444  0.000000      2.000000
 -0.111111  0.444444  0.000000      2.000000
  0.000000  0.000000  0.250000      2.000000
  0.111111  0.000000  0.250000      2.000000
  0.222222  0.000000  0.250000      2.000000
  0.333333  0.000000  0.250000      2.000000
  0.444444  0.000000  0.250000      2.000000
 -0.444444  0.000000  0.250000      2.000000
 -0.333333 -0.000000  0.250000      2.000000
 -0.222222  0.000000  0.250000      2.000000
 -0.111111 -0.000000  0.250000      2.000000
 -0.000000  0.111111  0.250000      2.000000
  0.111111  0.111111  0.250000      2.000000
  0.222222  0.111111  0.250000      2.000000
  0.333333  0.111111  0.250000      2.000000
  0.444444  0.111111  0.250000      2.000000
 -0.444444  0.111111  0.250000      2.000000
 -0.333333  0.111111  0.250000      2.000000
 -0.222222  0.111111  0.250000      2.000000
 -0.111111  0.111111  0.250000      2.000000
 -0.000000  0.222222  0.250000      2.000000
  0.111111  0.222222  0.250000      2.000000
  0.222222  0.222222  0.250000      2.000000
  0.333333  0.222222  0.250000      2.000000
  0.444444  0.222222  0.250000      2.000000
 -0.444444  0.222222  0.250000      2.000000
 -0.333333  0.222222  0.250000      2.000000
 -0.222222  0.222222  0.250000      2.000000
 -0.111111  0.222222  0.250000      2.000000
 -0.000000  0.333333  0.250000      2.000000
  0.111111  0.333333  0.250000      2.000000
  0.222222  0.333333  0.250000      2.000000
  0.333333  0.333333  0.250000      2.000000
  0.444444  0.333333  0.250000      2.000000
 -0.444444  0.333333  0.250000      2.000000
 -0.333333  0.333333  0.250000      2.000000
 -0.222222  0.333333  0.250000      2.000000
 -0.111111  0.333333  0.250000      2.000000
 -0.000000  0.444444  0.250000      2.000000
  0.111111  0.444444  0.250000      2.000000
  0.222222  0.444444  0.250000      2.000000
  0.333333  0.444444  0.250000      2.000000
  0.444444  0.444444  0.250000      2.000000
 -0.444444  0.444444  0.250000      2.000000
 -0.333333  0.444444  0.250000      2.000000
 -0.222222  0.444444  0.250000      2.000000
 -0.111111  0.444444  0.250000      2.000000
  0.000000 -0.444444  0.250000      2.000000
  0.111111 -0.444444  0.250000      2.000000
  0.222222 -0.444444  0.250000      2.000000
  0.333333 -0.444444  0.250000      2.000000
  0.444444 -0.444444  0.250000      2.000000
 -0.444444 -0.444444  0.250000      2.000000
 -0.333333 -0.444444  0.250000      2.000000
 -0.222222 -0.444444  0.250000      2.000000
 -0.111111 -0.444444  0.250000      2.000000
  0.000000 -0.333333  0.250000      2.000000
  0.111111 -0.333333  0.250000      2.000000
  0.222222 -0.333333  0.250000      2.000000
  0.333333 -0.333333  0.250000      2.000000
  0.444444 -0.333333  0.250000      2.000000
 -0.444444 -0.333333  0.250000      2.000000
 -0.333333 -0.333333  0.250000      2.000000
 -0.222222 -0.333333  0.250000      2.000000
 -0.111111 -0.333333  0.250000      2.000000
  0.000000 -0.222222  0.250000      2.000000
  0.111111 -0.222222  0.250000      2.000000
  0.222222 -0.222222  0.250000      2.000000
  0.333333 -0.222222  0.250000      2.000000
  0.444444 -0.222222  0.250000      2.000000
 -0.444444 -0.222222  0.250000      2.000000
 -0.333333 -0.222222  0.250000      2.000000
 -0.222222 -0.222222  0.250000      2.000000
 -0.111111 -0.222222  0.250000      2.000000
  0.000000 -0.111111  0.250000      2.000000
  0.111111 -0.111111  0.250000      2.000000
  0.222222 -0.111111  0.250000      2.000000
  0.333333 -0.111111  0.250000      2.000000
  0.444444 -0.111111  0.250000      2.000000
 -0.444444 -0.111111  0.250000      2.000000
 -0.333333 -0.111111  0.250000      2.000000
 -0.222222 -0.111111  0.250000      2.000000
 -0.111111 -0.111111  0.250000      2.000000
  0.000000  0.000000  0.500000      1.000000
  0.111111  0.000000  0.500000      2.000000
  0.222222  0.000000  0.500000      2.000000
  0.333333  0.000000  0.500000      2.000000
  0.444444  0.000000  0.500000      2.000000
 -0.000000  0.111111  0.500000      2.000000
  0.111111  0.111111  0.500000      2.000000
  0.222222  0.111111  0.500000      2.000000
  0.333333  0.111111  0.500000      2.000000
  0.444444  0.111111  0.500000      2.000000
 -0.444444  0.111111  0.500000      2.000000
 -0.333333  0.111111  0.500000      2.000000
 -0.222222  0.111111  0.500000      2.000000
 -0.111111  0.111111  0.500000      2.000000
 -0.000000  0.222222  0.500000      2.000000
  0.111111  0.222222  0.500000      2.000000
  0.222222  0.222222  0.500000      2.000000
  0.333333  0.222222  0.500000      2.000000
  0.444444  0.222222  0.500000      2.000000
 -0.444444  0.222222  0.500000      2.000000
 -0.333333  0.222222  0.500000      2.000000
 -0.222222  0.222222  0.500000      2.000000
 -0.111111  0.222222  0.500000      2.000000
 -0.000000  0.333333  0.500000      2.000000
  0.111111  0.333333  0.500000      2.000000
  0.222222  0.333333  0.500000      2.000000
  0.333333  0.333333  0.500000      2.000000
  0.444444  0.333333  0.500000      2.000000
 -0.444444  0.333333  0.500000      2.000000
 -0.333333  0.333333  0.500000      2.000000
 -0.222222  0.333333  0.500000      2.000000
 -0.111111  0.333333  0.500000      2.000000
 -0.000000  0.444444  0.500000      2.000000
  0.111111  0.444444  0.500000      2.000000
  0.222222  0.444444  0.500000      2.000000
  0.333333  0.444444  0.500000      2.000000
  0.444444  0.444444  0.500000      2.000000
 -0.444444  0.444444  0.500000      2.000000
 -0.333333  0.444444  0.500000      2.000000
 -0.222222  0.444444  0.500000      2.000000
 -0.111111  0.444444  0.500000      2.000000
 
 Following cartesian coordinates:
            Coordinates               Weight
  0.000000  0.000000  0.000000      1.000000
  0.022519  0.013002  0.000000      2.000000
  0.045037  0.026005  0.000000      2.000000
  0.067556  0.039007  0.000000      2.000000
  0.090075  0.052010  0.000000      2.000000
  0.000001  0.026003  0.000000      2.000000
  0.022520  0.039005  0.000000      2.000000
  0.045038  0.052008  0.000000      2.000000
  0.067557  0.065010  0.000000      2.000000
  0.090076  0.078013  0.000000      2.000000
 -0.090073 -0.026007  0.000000      2.000000
 -0.067555 -0.013005  0.000000      2.000000
 -0.045036 -0.000002  0.000000      2.000000
 -0.022517  0.013000  0.000000      2.000000
  0.000002  0.052006  0.000000      2.000000
  0.022521  0.065008  0.000000      2.000000
  0.045040  0.078011  0.000000      2.000000
  0.067558  0.091013  0.000000      2.000000
  0.090077  0.104016  0.000000      2.000000
 -0.090072 -0.000004  0.000000      2.000000
 -0.067554  0.012998  0.000000      2.000000
 -0.045035  0.026001  0.000000      2.000000
 -0.022516  0.039003  0.000000      2.000000
  0.000004  0.078009  0.000000      2.000000
  0.022522  0.091011  0.000000      2.000000
  0.045041  0.104014  0.000000      2.000000
  0.067559  0.117016  0.000000      2.000000
  0.090078  0.130019  0.000000      2.000000
 -0.090071  0.025999  0.000000      2.000000
 -0.067552  0.039001  0.000000      2.000000
 -0.045034  0.052004  0.000000      2.000000
 -0.022515  0.065006  0.000000      2.000000
  0.000005  0.104012  0.000000      2.000000
  0.022523  0.117014  0.000000      2.000000
  0.045042  0.130017  0.000000      2.000000
  0.067561  0.143019  0.000000      2.000000
  0.090079  0.156022  0.000000      2.000000
 -0.090070  0.052002  0.000000      2.000000
 -0.067551  0.065004  0.000000      2.000000
 -0.045033  0.078007  0.000000      2.000000
 -0.022514  0.091009  0.000000      2.000000
  0.000000  0.000000  0.016161      2.000000
  0.022519  0.013002  0.016161      2.000000
  0.045037  0.026005  0.016161      2.000000
  0.067556  0.039007  0.016161      2.000000
  0.090075  0.052010  0.016161      2.000000
 -0.090075 -0.052010  0.016161      2.000000
 -0.067556 -0.039007  0.016161      2.000000
 -0.045037 -0.026005  0.016161      2.000000
 -0.022519 -0.013002  0.016161      2.000000
  0.000001  0.026003  0.016161      2.000000
  0.022520  0.039005  0.016161      2.000000
  0.045038  0.052008  0.016161      2.000000
  0.067557  0.065010  0.016161      2.000000
  0.090076  0.078013  0.016161      2.000000
 -0.090073 -0.026007  0.016161      2.000000
 -0.067555 -0.013005  0.016161      2.000000
 -0.045036 -0.000002  0.016161      2.000000
 -0.022517  0.013000  0.016161      2.000000
  0.000002  0.052006  0.016161      2.000000
  0.022521  0.065008  0.016161      2.000000
  0.045040  0.078011  0.016161      2.000000
  0.067558  0.091013  0.016161      2.000000
  0.090077  0.104016  0.016161      2.000000
 -0.090072 -0.000004  0.016161      2.000000
 -0.067554  0.012998  0.016161      2.000000
 -0.045035  0.026001  0.016161      2.000000
 -0.022516  0.039003  0.016161      2.000000
  0.000004  0.078009  0.016161      2.000000
  0.022522  0.091011  0.016161      2.000000
  0.045041  0.104014  0.016161      2.000000
  0.067559  0.117016  0.016161      2.000000
  0.090078  0.130019  0.016161      2.000000
 -0.090071  0.025999  0.016161      2.000000
 -0.067552  0.039001  0.016161      2.000000
 -0.045034  0.052004  0.016161      2.000000
 -0.022515  0.065006  0.016161      2.000000
  0.000005  0.104012  0.016161      2.000000
  0.022523  0.117014  0.016161      2.000000
  0.045042  0.130017  0.016161      2.000000
  0.067561  0.143019  0.016161      2.000000
  0.090079  0.156022  0.016161      2.000000
 -0.090070  0.052002  0.016161      2.000000
 -0.067551  0.065004  0.016161      2.000000
 -0.045033  0.078007  0.016161      2.000000
 -0.022514  0.091009  0.016161      2.000000
 -0.000005 -0.104012  0.016161      2.000000
  0.022514 -0.091009  0.016161      2.000000
  0.045033 -0.078007  0.016161      2.000000
  0.067551 -0.065004  0.016161      2.000000
  0.090070 -0.052002  0.016161      2.000000
 -0.090079 -0.156022  0.016161      2.000000
 -0.067561 -0.143019  0.016161      2.000000
 -0.045042 -0.130017  0.016161      2.000000
 -0.022523 -0.117014  0.016161      2.000000
 -0.000004 -0.078009  0.016161      2.000000
  0.022515 -0.065006  0.016161      2.000000
  0.045034 -0.052004  0.016161      2.000000
  0.067552 -0.039001  0.016161      2.000000
  0.090071 -0.025999  0.016161      2.000000
 -0.090078 -0.130019  0.016161      2.000000
 -0.067559 -0.117016  0.016161      2.000000
 -0.045041 -0.104014  0.016161      2.000000
 -0.022522 -0.091011  0.016161      2.000000
 -0.000002 -0.052006  0.016161      2.000000
  0.022516 -0.039003  0.016161      2.000000
  0.045035 -0.026001  0.016161      2.000000
  0.067554 -0.012998  0.016161      2.000000
  0.090072  0.000004  0.016161      2.000000
 -0.090077 -0.104016  0.016161      2.000000
 -0.067558 -0.091013  0.016161      2.000000
 -0.045040 -0.078011  0.016161      2.000000
 -0.022521 -0.065008  0.016161      2.000000
 -0.000001 -0.026003  0.016161      2.000000
  0.022517 -0.013000  0.016161      2.000000
  0.045036  0.000002  0.016161      2.000000
  0.067555  0.013005  0.016161      2.000000
  0.090073  0.026007  0.016161      2.000000
 -0.090076 -0.078013  0.016161      2.000000
 -0.067557 -0.065010  0.016161      2.000000
 -0.045038 -0.052008  0.016161      2.000000
 -0.022520 -0.039005  0.016161      2.000000
  0.000000  0.000000  0.032322      1.000000
  0.022519  0.013002  0.032322      2.000000
  0.045037  0.026005  0.032322      2.000000
  0.067556  0.039007  0.032322      2.000000
  0.090075  0.052010  0.032322      2.000000
  0.000001  0.026003  0.032322      2.000000
  0.022520  0.039005  0.032322      2.000000
  0.045038  0.052008  0.032322      2.000000
  0.067557  0.065010  0.032322      2.000000
  0.090076  0.078013  0.032322      2.000000
 -0.090073 -0.026007  0.032322      2.000000
 -0.067555 -0.013005  0.032322      2.000000
 -0.045036 -0.000002  0.032322      2.000000
 -0.022517  0.013000  0.032322      2.000000
  0.000002  0.052006  0.032322      2.000000
  0.022521  0.065008  0.032322      2.000000
  0.045040  0.078011  0.032322      2.000000
  0.067558  0.091013  0.032322      2.000000
  0.090077  0.104016  0.032322      2.000000
 -0.090072 -0.000004  0.032322      2.000000
 -0.067554  0.012998  0.032322      2.000000
 -0.045035  0.026001  0.032322      2.000000
 -0.022516  0.039003  0.032322      2.000000
  0.000004  0.078009  0.032322      2.000000
  0.022522  0.091011  0.032322      2.000000
  0.045041  0.104014  0.032322      2.000000
  0.067559  0.117016  0.032322      2.000000
  0.090078  0.130019  0.032322      2.000000
 -0.090071  0.025999  0.032322      2.000000
 -0.067552  0.039001  0.032322      2.000000
 -0.045034  0.052004  0.032322      2.000000
 -0.022515  0.065006  0.032322      2.000000
  0.000005  0.104012  0.032322      2.000000
  0.022523  0.117014  0.032322      2.000000
  0.045042  0.130017  0.032322      2.000000
  0.067561  0.143019  0.032322      2.000000
  0.090079  0.156022  0.032322      2.000000
 -0.090070  0.052002  0.032322      2.000000
 -0.067551  0.065004  0.032322      2.000000
 -0.045033  0.078007  0.032322      2.000000
 -0.022514  0.091009  0.032322      2.000000
 
 TETIRR: Found    970 inequivalent tetrahedra from     1944


--------------------------------------------------------------------------------------------------------




 Dimension of arrays:
   k-points           NKPTS =    163   k-points in BZ     NKDIM =    163   number of bands    NBANDS=     84
   number of dos      NEDOS =    301   number of ions     NIONS =     32
   non local maximal  LDIM  =      4   non local SUM 2l+1 LMDIM =      8
   total plane-waves  NPLWV = 201600
   max r-space proj   IRMAX =      1   max aug-charges    IRDMAX=   7493
   dimension x,y,z NGX =    40 NGY =   40 NGZ =  126
   dimension x,y,z NGXF=    80 NGYF=   80 NGZF=  252
   support grid    NGXF=    80 NGYF=   80 NGZF=  252
   ions per type =              32
 NGX,Y,Z   is equivalent  to a cutoff of  13.48, 13.48, 13.54 a.u.
 NGXF,Y,Z  is equivalent  to a cutoff of  26.95, 26.95, 27.08 a.u.


 I would recommend the setting:
   dimension x,y,z NGX =    39 NGY =   39 NGZ =  124
 SYSTEM =  graphite                                
 POSCAR =  C                                       

 Startparameter for this run:
   NWRITE =      2    write-flag & timer
   PREC   = accura    normal or accurate (medium, high low for compatibility)
   ISTART =      0    job   : 0-new  1-cont  2-samecut
   ICHARG =      2    charge: 1-file 2-atom 10-const
   ISPIN  =      1    spin polarized calculation?
   LNONCOLLINEAR =      F non collinear calculations
   LSORBIT =      F    spin-orbit coupling
   INIWAV =      1    electr: 0-lowe 1-rand  2-diag
   LASPH  =      F    aspherical Exc in radial PAW
   METAGGA=      F    non-selfconsistent MetaGGA calc.

 Electronic Relaxation 1
   ENCUT  =  600.0 eV  44.10 Ry    6.64 a.u.   9.86  9.86 30.90*2*pi/ulx,y,z
   ENINI  =  600.0     initial cutoff
   ENAUG  =  644.9 eV  augmentation charge cutoff
   NELM   =    200;   NELMIN=  2; NELMDL=  0     # of ELM steps 
   EDIFF  = 0.1E-05   stopping-criterion for ELM
   LREAL  =      F    real-space projection
   NLSPLINE    = F    spline interpolate recip. space projectors
   LCOMPAT=      F    compatible to vasp.4.4
   GGA_COMPAT  = T    GGA compatible to vasp.4.4-vasp.4.6
   LMAXPAW     = -100 max onsite density
   LMAXMIX     =    2 max onsite mixed and CHGCAR
   VOSKOWN=      0    Vosko Wilk Nusair interpolation
   ROPT   =    0.00000
 Ionic relaxation
   EDIFFG = 0.1E-02   stopping-criterion for IOM
   NSW    =      0    number of steps for IOM
   NBLOCK =      1;   KBLOCK =      1    inner block; outer block 
   IBRION =     -1    ionic relax: 0-MD 1-quasi-New 2-CG
   NFREE  =      0    steps in history (QN), initial steepest desc. (CG)
   ISIF   =      2    stress and relaxation
   IWAVPR =     10    prediction:  0-non 1-charg 2-wave 3-comb
   ISYM   =      2    0-nonsym 1-usesym 2-fastsym
   LCORR  =      T    Harris-Foulkes like correction to forces

   POTIM  = 0.5000    time-step for ionic-motion
   TEIN   =    0.0    initial temperature
   TEBEG  =    0.0;   TEEND  =   0.0 temperature during run
   SMASS  =  -3.00    Nose mass-parameter (am)
   estimated Nose-frequenzy (Omega)   =  0.10E-29 period in steps =****** mass=  -0.556E-27a.u.
   SCALEE = 1.0000    scale energy and forces
   NPACO  =    256;   APACO  = 16.0  distance and # of slots for P.C.
   PSTRESS=    0.0 pullay stress

  Mass of Ions in am
   POMASS =  12.01
  Ionic Valenz
   ZVAL   =   4.00
  Atomic Wigner-Seitz radii
   RWIGS  =  -1.00
  virtual crystal weights 
   VCA    =   1.00
   NELECT =     128.0000    total number of electrons
   NUPDOWN=      -1.0000    fix difference up-down

 DOS related values:
   EMIN   =  10.00;   EMAX   =-10.00  energy-range for DOS
   EFERMI =   0.00
   ISMEAR =    -5;   SIGMA  =   0.20  broadening in eV -4-tet -1-fermi 0-gaus

 Electronic relaxation 2 (details)
   IALGO  =     38    algorithm
   LDIAG  =      T    sub-space diagonalisation (order eigenvalues)
   LSUBROT=      F    optimize rotation matrix (better conditioning)
   TURBO    =      0    0=normal 1=particle mesh
   IRESTART =      0    0=no restart 2=restart with 2 vectors
   NREBOOT  =      0    no. of reboots
   NMIN     =      0    reboot dimension
   EREF     =   0.00    reference energy to select bands
   IMIX   =      4    mixing-type and parameters
     AMIX     =   0.40;   BMIX     =  1.00
     AMIX_MAG =   1.60;   BMIX_MAG =  1.00
     AMIN     =   0.10
     WC   =   100.;   INIMIX=   1;  MIXPRE=   1;  MAXMIX= -45

 Intra band minimization:
   WEIMIN = 0.0000     energy-eigenvalue tresh-hold
   EBREAK =  0.30E-08  absolut break condition
   DEPER  =   0.30     relativ break condition  

   TIME   =   0.40     timestep for ELM

  volume/ion in A,a.u.               =      10.19        68.78
  Fermi-wavevector in a.u.,A,eV,Ry     =   1.198584  2.264995 19.546177  1.436603
  Thomas-Fermi vector in A             =   2.334469
 
 Write flags
   LWAVE  =      F    write WAVECAR
   LCHARG =      F    write CHGCAR
   LVTOT  =      F    write LOCPOT, total local potential
   LVHAR  =      F    write LOCPOT, Hartree potential only
   LELF   =      F    write electronic localiz. function (ELF)
   LORBIT =      0    0 simple, 1 ext, 2 COOP (PROOUT)


 Dipole corrections
   LMONO  =      F    monopole corrections only (constant potential shift)
   LDIPOL =      F    correct potential (dipole corrections)
   IDIPOL =      0    1-x, 2-y, 3-z, 4-all directions 
   EPSILON=  1.0000000 bulk dielectric constant

 Exchange correlation treatment:
   GGA     =    PE    GGA type
   LEXCH   =     8    internal setting for exchange type
   VOSKOWN=      0    Vosko Wilk Nusair interpolation
   LHFCALC =     F    Hartree Fock is set to
   LHFONE  =     F    Hartree Fock one center treatment
   AEXX    =    0.0000 exact exchange contribution

 Linear response parameters
   LEPSILON=     F    determine dielectric tensor
   LRPA    =     F    only Hartree local field effects (RPA)
   LNABLA  =     F    use nabla operator in PAW spheres
   LVEL    =     F    velocity operator in full k-point grid
   LINTERFAST=   F  fast interpolation
   KINTER  =     0    interpolate to denser k-point grid
   CSHIFT  =0.1000    complex shift for real part using Kramers Kronig
   OMEGAMAX=  -1.0    maximum frequency
   DEG_THRESHOLD= 0.2000000E-02 threshold for treating states as degnerate
   RTIME   =    0.100 relaxation time in fs

 Orbital magnetization related:
   ORBITALMAG=     F  switch on orbital magnetization
   LCHIMAG   =     F  perturbation theory with respect to B field
   DQ        =  0.001000  dq finite difference perturbation B field



--------------------------------------------------------------------------------------------------------


 Static calculation
 charge density and potential will be updated during run
 non-spin polarized calculation
 Variant of blocked Davidson
 Davidson routine will perform the subspace rotation
 perform sub-space diagonalisation
    after iterative eigenvector-optimisation
 modified Broyden-mixing scheme, WC =      100.0
 initial mixing is a Kerker type mixing with AMIX =  0.4000 and BMIX =      1.0000
 Hartree-type preconditioning will be used
 using additional bands           20
 reciprocal scheme for non local part
 calculate Harris-corrections to forces 
   (improved forces if not selfconsistent)
 use gradient corrections 
 use of overlap-Matrix (Vanderbilt PP)
 Fermi weights with tetrahedron method with Bloechl corrections


--------------------------------------------------------------------------------------------------------


  energy-cutoff  :      600.00
  volume of cell :      326.16
      direct lattice vectors                 reciprocal lattice vectors
     4.934310885 -0.000222400  0.000000000     0.202667819  0.117022500  0.000000000
    -2.467348046  4.273127376  0.000000000     0.000010548  0.234026730  0.000000000
     0.000000000  0.000000000 15.469207318     0.000000000  0.000000000  0.064644553

  length of vectors
     4.934310890  4.934310890 15.469207318     0.234026730  0.234026730  0.064644553


 
 k-points in units of 2pi/SCALE and weight: B4C B11C-CBC                            
   0.00000000  0.00000000  0.00000000       0.003
   0.02251865  0.01300250  0.00000000       0.006
   0.04503729  0.02600500  0.00000000       0.006
   0.06755594  0.03900750  0.00000000       0.006
   0.09007459  0.05201000  0.00000000       0.006
   0.00000117  0.02600297  0.00000000       0.006
   0.02251982  0.03900547  0.00000000       0.006
   0.04503847  0.05200797  0.00000000       0.006
   0.06755711  0.06501047  0.00000000       0.006
   0.09007576  0.07801297  0.00000000       0.006
  -0.09007341 -0.02600703  0.00000000       0.006
  -0.06755477 -0.01300453  0.00000000       0.006
  -0.04503612 -0.00000203  0.00000000       0.006
  -0.02251747  0.01300047  0.00000000       0.006
   0.00000234  0.05200594  0.00000000       0.006
   0.02252099  0.06500844  0.00000000       0.006
   0.04503964  0.07801094  0.00000000       0.006
   0.06755828  0.09101344  0.00000000       0.006
   0.09007693  0.10401594  0.00000000       0.006
  -0.09007224 -0.00000406  0.00000000       0.006
  -0.06755360  0.01299844  0.00000000       0.006
  -0.04503495  0.02600094  0.00000000       0.006
  -0.02251630  0.03900344  0.00000000       0.006
   0.00000352  0.07800891  0.00000000       0.006
   0.02252216  0.09101141  0.00000000       0.006
   0.04504081  0.10401391  0.00000000       0.006
   0.06755946  0.11701641  0.00000000       0.006
   0.09007810  0.13001891  0.00000000       0.006
  -0.09007107  0.02599891  0.00000000       0.006
  -0.06755242  0.03900141  0.00000000       0.006
  -0.04503378  0.05200391  0.00000000       0.006
  -0.02251513  0.06500641  0.00000000       0.006
   0.00000469  0.10401188  0.00000000       0.006
   0.02252333  0.11701438  0.00000000       0.006
   0.04504198  0.13001688  0.00000000       0.006
   0.06756063  0.14301938  0.00000000       0.006
   0.09007927  0.15602188  0.00000000       0.006
  -0.09006990  0.05200188  0.00000000       0.006
  -0.06755125  0.06500438  0.00000000       0.006
  -0.04503261  0.07800688  0.00000000       0.006
  -0.02251396  0.09100938  0.00000000       0.006
   0.00000000  0.00000000  0.01616114       0.006
   0.02251865  0.01300250  0.01616114       0.006
   0.04503729  0.02600500  0.01616114       0.006
   0.06755594  0.03900750  0.01616114       0.006
   0.09007459  0.05201000  0.01616114       0.006
  -0.09007459 -0.05201000  0.01616114       0.006
  -0.06755594 -0.03900750  0.01616114       0.006
  -0.04503729 -0.02600500  0.01616114       0.006
  -0.02251865 -0.01300250  0.01616114       0.006
   0.00000117  0.02600297  0.01616114       0.006
   0.02251982  0.03900547  0.01616114       0.006
   0.04503847  0.05200797  0.01616114       0.006
   0.06755711  0.06501047  0.01616114       0.006
   0.09007576  0.07801297  0.01616114       0.006
  -0.09007341 -0.02600703  0.01616114       0.006
  -0.06755477 -0.01300453  0.01616114       0.006
  -0.04503612 -0.00000203  0.01616114       0.006
  -0.02251747  0.01300047  0.01616114       0.006
   0.00000234  0.05200594  0.01616114       0.006
   0.02252099  0.06500844  0.01616114       0.006
   0.04503964  0.07801094  0.01616114       0.006
   0.06755828  0.09101344  0.01616114       0.006
   0.09007693  0.10401594  0.01616114       0.006
  -0.09007224 -0.00000406  0.01616114       0.006
  -0.06755360  0.01299844  0.01616114       0.006
  -0.04503495  0.02600094  0.01616114       0.006
  -0.02251630  0.03900344  0.01616114       0.006
   0.00000352  0.07800891  0.01616114       0.006
   0.02252216  0.09101141  0.01616114       0.006
   0.04504081  0.10401391  0.01616114       0.006
   0.06755946  0.11701641  0.01616114       0.006
   0.09007810  0.13001891  0.01616114       0.006
  -0.09007107  0.02599891  0.01616114       0.006
  -0.06755242  0.03900141  0.01616114       0.006
  -0.04503378  0.05200391  0.01616114       0.006
  -0.02251513  0.06500641  0.01616114       0.006
   0.00000469  0.10401188  0.01616114       0.006
   0.02252333  0.11701438  0.01616114       0.006
   0.04504198  0.13001688  0.01616114       0.006
   0.06756063  0.14301938  0.01616114       0.006
   0.09007927  0.15602188  0.01616114       0.006
  -0.09006990  0.05200188  0.01616114       0.006
  -0.06755125  0.06500438  0.01616114       0.006
  -0.04503261  0.07800688  0.01616114       0.006
  -0.02251396  0.09100938  0.01616114       0.006
  -0.00000469 -0.10401188  0.01616114       0.006
   0.02251396 -0.09100938  0.01616114       0.006
   0.04503261 -0.07800688  0.01616114       0.006
   0.06755125 -0.06500438  0.01616114       0.006
   0.09006990 -0.05200188  0.01616114       0.006
  -0.09007927 -0.15602188  0.01616114       0.006
  -0.06756063 -0.14301938  0.01616114       0.006
  -0.04504198 -0.13001688  0.01616114       0.006
  -0.02252333 -0.11701438  0.01616114       0.006
  -0.00000352 -0.07800891  0.01616114       0.006
   0.02251513 -0.06500641  0.01616114       0.006
   0.04503378 -0.05200391  0.01616114       0.006
   0.06755242 -0.03900141  0.01616114       0.006
   0.09007107 -0.02599891  0.01616114       0.006
  -0.09007810 -0.13001891  0.01616114       0.006
  -0.06755946 -0.11701641  0.01616114       0.006
  -0.04504081 -0.10401391  0.01616114       0.006
  -0.02252216 -0.09101141  0.01616114       0.006
  -0.00000234 -0.05200594  0.01616114       0.006
   0.02251630 -0.03900344  0.01616114       0.006
   0.04503495 -0.02600094  0.01616114       0.006
   0.06755360 -0.01299844  0.01616114       0.006
   0.09007224  0.00000406  0.01616114       0.006
  -0.09007693 -0.10401594  0.01616114       0.006
  -0.06755828 -0.09101344  0.01616114       0.006
  -0.04503964 -0.07801094  0.01616114       0.006
  -0.02252099 -0.06500844  0.01616114       0.006
  -0.00000117 -0.02600297  0.01616114       0.006
   0.02251747 -0.01300047  0.01616114       0.006
   0.04503612  0.00000203  0.01616114       0.006
   0.06755477  0.01300453  0.01616114       0.006
   0.09007341  0.02600703  0.01616114       0.006
  -0.09007576 -0.07801297  0.01616114       0.006
  -0.06755711 -0.06501047  0.01616114       0.006
  -0.04503847 -0.05200797  0.01616114       0.006
  -0.02251982 -0.03900547  0.01616114       0.006
   0.00000000  0.00000000  0.03232228       0.003
   0.02251865  0.01300250  0.03232228       0.006
   0.04503729  0.02600500  0.03232228       0.006
   0.06755594  0.03900750  0.03232228       0.006
   0.09007459  0.05201000  0.03232228       0.006
   0.00000117  0.02600297  0.03232228       0.006
   0.02251982  0.03900547  0.03232228       0.006
   0.04503847  0.05200797  0.03232228       0.006
   0.06755711  0.06501047  0.03232228       0.006
   0.09007576  0.07801297  0.03232228       0.006
  -0.09007341 -0.02600703  0.03232228       0.006
  -0.06755477 -0.01300453  0.03232228       0.006
  -0.04503612 -0.00000203  0.03232228       0.006
  -0.02251747  0.01300047  0.03232228       0.006
   0.00000234  0.05200594  0.03232228       0.006
   0.02252099  0.06500844  0.03232228       0.006
   0.04503964  0.07801094  0.03232228       0.006
   0.06755828  0.09101344  0.03232228       0.006
   0.09007693  0.10401594  0.03232228       0.006
  -0.09007224 -0.00000406  0.03232228       0.006
  -0.06755360  0.01299844  0.03232228       0.006
  -0.04503495  0.02600094  0.03232228       0.006
  -0.02251630  0.03900344  0.03232228       0.006
   0.00000352  0.07800891  0.03232228       0.006
   0.02252216  0.09101141  0.03232228       0.006
   0.04504081  0.10401391  0.03232228       0.006
   0.06755946  0.11701641  0.03232228       0.006
   0.09007810  0.13001891  0.03232228       0.006
  -0.09007107  0.02599891  0.03232228       0.006
  -0.06755242  0.03900141  0.03232228       0.006
  -0.04503378  0.05200391  0.03232228       0.006
  -0.02251513  0.06500641  0.03232228       0.006
   0.00000469  0.10401188  0.03232228       0.006
   0.02252333  0.11701438  0.03232228       0.006
   0.04504198  0.13001688  0.03232228       0.006
   0.06756063  0.14301938  0.03232228       0.006
   0.09007927  0.15602188  0.03232228       0.006
  -0.09006990  0.05200188  0.03232228       0.006
  -0.06755125  0.06500438  0.03232228       0.006
  -0.04503261  0.07800688  0.03232228       0.006
  -0.02251396  0.09100938  0.03232228       0.006
 
 k-points in reciprocal lattice and weights: B4C B11C-CBC                            
   0.00000000  0.00000000  0.00000000       0.003
   0.11111111  0.00000000  0.00000000       0.006
   0.22222222  0.00000000  0.00000000       0.006
   0.33333333  0.00000000  0.00000000       0.006
   0.44444444  0.00000000  0.00000000       0.006
  -0.00000000  0.11111111  0.00000000       0.006
   0.11111111  0.11111111  0.00000000       0.006
   0.22222222  0.11111111  0.00000000       0.006
   0.33333333  0.11111111  0.00000000       0.006
   0.44444444  0.11111111  0.00000000       0.006
  -0.44444444  0.11111111  0.00000000       0.006
  -0.33333333  0.11111111  0.00000000       0.006
  -0.22222222  0.11111111  0.00000000       0.006
  -0.11111111  0.11111111  0.00000000       0.006
  -0.00000000  0.22222222  0.00000000       0.006
   0.11111111  0.22222222  0.00000000       0.006
   0.22222222  0.22222222  0.00000000       0.006
   0.33333333  0.22222222  0.00000000       0.006
   0.44444444  0.22222222  0.00000000       0.006
  -0.44444444  0.22222222  0.00000000       0.006
  -0.33333333  0.22222222  0.00000000       0.006
  -0.22222222  0.22222222  0.00000000       0.006
  -0.11111111  0.22222222  0.00000000       0.006
  -0.00000000  0.33333333  0.00000000       0.006
   0.11111111  0.33333333  0.00000000       0.006
   0.22222222  0.33333333  0.00000000       0.006
   0.33333333  0.33333333  0.00000000       0.006
   0.44444444  0.33333333  0.00000000       0.006
  -0.44444444  0.33333333  0.00000000       0.006
  -0.33333333  0.33333333  0.00000000       0.006
  -0.22222222  0.33333333  0.00000000       0.006
  -0.11111111  0.33333333  0.00000000       0.006
  -0.00000000  0.44444444  0.00000000       0.006
   0.11111111  0.44444444  0.00000000       0.006
   0.22222222  0.44444444  0.00000000       0.006
   0.33333333  0.44444444  0.00000000       0.006
   0.44444444  0.44444444  0.00000000       0.006
  -0.44444444  0.44444444  0.00000000       0.006
  -0.33333333  0.44444444  0.00000000       0.006
  -0.22222222  0.44444444  0.00000000       0.006
  -0.11111111  0.44444444  0.00000000       0.006
   0.00000000  0.00000000  0.25000000       0.006
   0.11111111  0.00000000  0.25000000       0.006
   0.22222222  0.00000000  0.25000000       0.006
   0.33333333  0.00000000  0.25000000       0.006
   0.44444444  0.00000000  0.25000000       0.006
  -0.44444444  0.00000000  0.25000000       0.006
  -0.33333333 -0.00000000  0.25000000       0.006
  -0.22222222  0.00000000  0.25000000       0.006
  -0.11111111 -0.00000000  0.25000000       0.006
  -0.00000000  0.11111111  0.25000000       0.006
   0.11111111  0.11111111  0.25000000       0.006
   0.22222222  0.11111111  0.25000000       0.006
   0.33333333  0.11111111  0.25000000       0.006
   0.44444444  0.11111111  0.25000000       0.006
  -0.44444444  0.11111111  0.25000000       0.006
  -0.33333333  0.11111111  0.25000000       0.006
  -0.22222222  0.11111111  0.25000000       0.006
  -0.11111111  0.11111111  0.25000000       0.006
  -0.00000000  0.22222222  0.25000000       0.006
   0.11111111  0.22222222  0.25000000       0.006
   0.22222222  0.22222222  0.25000000       0.006
   0.33333333  0.22222222  0.25000000       0.006
   0.44444444  0.22222222  0.25000000       0.006
  -0.44444444  0.22222222  0.25000000       0.006
  -0.33333333  0.22222222  0.25000000       0.006
  -0.22222222  0.22222222  0.25000000       0.006
  -0.11111111  0.22222222  0.25000000       0.006
  -0.00000000  0.33333333  0.25000000       0.006
   0.11111111  0.33333333  0.25000000       0.006
   0.22222222  0.33333333  0.25000000       0.006
   0.33333333  0.33333333  0.25000000       0.006
   0.44444444  0.33333333  0.25000000       0.006
  -0.44444444  0.33333333  0.25000000       0.006
  -0.33333333  0.33333333  0.25000000       0.006
  -0.22222222  0.33333333  0.25000000       0.006
  -0.11111111  0.33333333  0.25000000       0.006
  -0.00000000  0.44444444  0.25000000       0.006
   0.11111111  0.44444444  0.25000000       0.006
   0.22222222  0.44444444  0.25000000       0.006
   0.33333333  0.44444444  0.25000000       0.006
   0.44444444  0.44444444  0.25000000       0.006
  -0.44444444  0.44444444  0.25000000       0.006
  -0.33333333  0.44444444  0.25000000       0.006
  -0.22222222  0.44444444  0.25000000       0.006
  -0.11111111  0.44444444  0.25000000       0.006
   0.00000000 -0.44444444  0.25000000       0.006
   0.11111111 -0.44444444  0.25000000       0.006
   0.22222222 -0.44444444  0.25000000       0.006
   0.33333333 -0.44444444  0.25000000       0.006
   0.44444444 -0.44444444  0.25000000       0.006
  -0.44444444 -0.44444444  0.25000000       0.006
  -0.33333333 -0.44444444  0.25000000       0.006
  -0.22222222 -0.44444444  0.25000000       0.006
  -0.11111111 -0.44444444  0.25000000       0.006
   0.00000000 -0.33333333  0.25000000       0.006
   0.11111111 -0.33333333  0.25000000       0.006
   0.22222222 -0.33333333  0.25000000       0.006
   0.33333333 -0.33333333  0.25000000       0.006
   0.44444444 -0.33333333  0.25000000       0.006
  -0.44444444 -0.33333333  0.25000000       0.006
  -0.33333333 -0.33333333  0.25000000       0.006
  -0.22222222 -0.33333333  0.25000000       0.006
  -0.11111111 -0.33333333  0.25000000       0.006
   0.00000000 -0.22222222  0.25000000       0.006
   0.11111111 -0.22222222  0.25000000       0.006
   0.22222222 -0.22222222  0.25000000       0.006
   0.33333333 -0.22222222  0.25000000       0.006
   0.44444444 -0.22222222  0.25000000       0.006
  -0.44444444 -0.22222222  0.25000000       0.006
  -0.33333333 -0.22222222  0.25000000       0.006
  -0.22222222 -0.22222222  0.25000000       0.006
  -0.11111111 -0.22222222  0.25000000       0.006
   0.00000000 -0.11111111  0.25000000       0.006
   0.11111111 -0.11111111  0.25000000       0.006
   0.22222222 -0.11111111  0.25000000       0.006
   0.33333333 -0.11111111  0.25000000       0.006
   0.44444444 -0.11111111  0.25000000       0.006
  -0.44444444 -0.11111111  0.25000000       0.006
  -0.33333333 -0.11111111  0.25000000       0.006
  -0.22222222 -0.11111111  0.25000000       0.006
  -0.11111111 -0.11111111  0.25000000       0.006
   0.00000000  0.00000000  0.50000000       0.003
   0.11111111  0.00000000  0.50000000       0.006
   0.22222222  0.00000000  0.50000000       0.006
   0.33333333  0.00000000  0.50000000       0.006
   0.44444444  0.00000000  0.50000000       0.006
  -0.00000000  0.11111111  0.50000000       0.006
   0.11111111  0.11111111  0.50000000       0.006
   0.22222222  0.11111111  0.50000000       0.006
   0.33333333  0.11111111  0.50000000       0.006
   0.44444444  0.11111111  0.50000000       0.006
  -0.44444444  0.11111111  0.50000000       0.006
  -0.33333333  0.11111111  0.50000000       0.006
  -0.22222222  0.11111111  0.50000000       0.006
  -0.11111111  0.11111111  0.50000000       0.006
  -0.00000000  0.22222222  0.50000000       0.006
   0.11111111  0.22222222  0.50000000       0.006
   0.22222222  0.22222222  0.50000000       0.006
   0.33333333  0.22222222  0.50000000       0.006
   0.44444444  0.22222222  0.50000000       0.006
  -0.44444444  0.22222222  0.50000000       0.006
  -0.33333333  0.22222222  0.50000000       0.006
  -0.22222222  0.22222222  0.50000000       0.006
  -0.11111111  0.22222222  0.50000000       0.006
  -0.00000000  0.33333333  0.50000000       0.006
   0.11111111  0.33333333  0.50000000       0.006
   0.22222222  0.33333333  0.50000000       0.006
   0.33333333  0.33333333  0.50000000       0.006
   0.44444444  0.33333333  0.50000000       0.006
  -0.44444444  0.33333333  0.50000000       0.006
  -0.33333333  0.33333333  0.50000000       0.006
  -0.22222222  0.33333333  0.50000000       0.006
  -0.11111111  0.33333333  0.50000000       0.006
  -0.00000000  0.44444444  0.50000000       0.006
   0.11111111  0.44444444  0.50000000       0.006
   0.22222222  0.44444444  0.50000000       0.006
   0.33333333  0.44444444  0.50000000       0.006
   0.44444444  0.44444444  0.50000000       0.006
  -0.44444444  0.44444444  0.50000000       0.006
  -0.33333333  0.44444444  0.50000000       0.006
  -0.22222222  0.44444444  0.50000000       0.006
  -0.11111111  0.44444444  0.50000000       0.006
 
 position of ions in fractional coordinates (direct lattice) 
   0.49999985  0.00000017  0.12500000
   0.99999985  0.00000017  0.12500000
   0.49999985  0.50000017  0.12500000
   0.99999985  0.50000017  0.12500000
   0.49999985  0.00000017  0.62500000
   0.99999985  0.00000017  0.62500000
   0.49999985  0.50000017  0.62500000
   0.99999985  0.50000017  0.62500000
   0.00000017  0.49999985  0.37500000
   0.50000017  0.49999985  0.37500000
   0.00000017  0.99999985  0.37500000
   0.50000017  0.99999985  0.37500000
   0.00000017  0.49999985  0.87500000
   0.50000017  0.49999985  0.87500000
   0.00000017  0.99999985  0.87500000
   0.50000017  0.99999985  0.87500000
   0.16726534  0.33335053  0.12561587
   0.66664946  0.33335053  0.12500000
   0.16664946  0.83335053  0.12500000
   0.66664946  0.83335053  0.12500000
   0.16664946  0.33335053  0.62500000
   0.66664946  0.33335053  0.62500000
   0.16664946  0.83335053  0.62500000
   0.66664946  0.83335053  0.62500000
   0.33335053  0.16664946  0.37500000
   0.83335053  0.16664946  0.37500000
   0.33335053  0.66664946  0.37500000
   0.83335053  0.66664946  0.37500000
   0.33335053  0.16664946  0.87500000
   0.83335053  0.16664946  0.87500000
   0.33335053  0.66664946  0.87500000
   0.83335053  0.66664946  0.87500000
 
 position of ions in cartesian coordinates  (Angst):
   2.46715426 -0.00011045  1.93365091
   4.93430971 -0.00022165  1.93365091
   1.23348024  2.13645323  1.93365091
   3.70063568  2.13634203  1.93365091
   2.46715426 -0.00011045  9.66825457
   4.93430971 -0.00022165  9.66825457
   1.23348024  2.13645323  9.66825457
   3.70063568  2.13634203  9.66825457
  -1.23367279  2.13656304  5.80095274
   1.23348265  2.13645184  5.80095274
  -2.46734681  4.27312673  5.80095274
  -0.00019137  4.27301553  5.80095274
  -1.23367279  2.13656304 13.53555640
   1.23348265  2.13645184 13.53555640
  -2.46734681  4.27312673 13.53555640
  -0.00019137  4.27301553 13.53555640
   0.00284741  1.42441206  1.94317798
   2.46696394  1.42430100  1.93365091
  -1.23386552  3.56097589  1.93365091
   1.23328992  3.56086469  1.93365091
  -0.00019150  1.42441220  9.66825457
   2.46696394  1.42430100  9.66825457
  -1.23386552  3.56097589  9.66825457
   1.23328992  3.56086469  9.66825457
   1.23367290  0.71204025  5.80095274
   3.70082834  0.71192905  5.80095274
  -0.00000112  2.84860394  5.80095274
   2.46715432  2.84849274  5.80095274
   1.23367290  0.71204025 13.53555640
   3.70082834  0.71192905 13.53555640
  -0.00000112  2.84860394 13.53555640
   2.46715432  2.84849274 13.53555640
 


--------------------------------------------------------------------------------------------------------


 k-point  1 :   0.0000 0.0000 0.0000  plane waves:   10849
 k-point  2 :   0.1111 0.0000 0.0000  plane waves:   10869
 k-point  3 :   0.2222 0.0000 0.0000  plane waves:   10869
 k-point  4 :   0.3333 0.0000 0.0000  plane waves:   10901
 k-point  5 :   0.4444 0.0000 0.0000  plane waves:   10901
 k-point  6 :  -0.0000 0.1111 0.0000  plane waves:   10869
 k-point  7 :   0.1111 0.1111 0.0000  plane waves:   10860
 k-point  8 :   0.2222 0.1111 0.0000  plane waves:   10878
 k-point  9 :   0.3333 0.1111 0.0000  plane waves:   10892
 k-point 10 :   0.4444 0.1111 0.0000  plane waves:   10908
 k-point 11 :  -0.4444 0.1111 0.0000  plane waves:   10892
 k-point 12 :  -0.3333 0.1111 0.0000  plane waves:   10880
 k-point 13 :  -0.2222 0.1111 0.0000  plane waves:   10860
 k-point 14 :  -0.1111 0.1111 0.0000  plane waves:   10869
 k-point 15 :  -0.0000 0.2222 0.0000  plane waves:   10869
 k-point 16 :   0.1111 0.2222 0.0000  plane waves:   10878
 k-point 17 :   0.2222 0.2222 0.0000  plane waves:   10888
 k-point 18 :   0.3333 0.2222 0.0000  plane waves:   10884
 k-point 19 :   0.4444 0.2222 0.0000  plane waves:   10884
 k-point 20 :  -0.4444 0.2222 0.0000  plane waves:   10878
 k-point 21 :  -0.3333 0.2222 0.0000  plane waves:   10880
 k-point 22 :  -0.2222 0.2222 0.0000  plane waves:   10869
 k-point 23 :  -0.1111 0.2222 0.0000  plane waves:   10860
 k-point 24 :  -0.0000 0.3333 0.0000  plane waves:   10901
 k-point 25 :   0.1111 0.3333 0.0000  plane waves:   10892
 k-point 26 :   0.2222 0.3333 0.0000  plane waves:   10884
 k-point 27 :   0.3333 0.3333 0.0000  plane waves:   10860
 k-point 28 :   0.4444 0.3333 0.0000  plane waves:   10884
 k-point 29 :  -0.4444 0.3333 0.0000  plane waves:   10892
 k-point 30 :  -0.3333 0.3333 0.0000  plane waves:   10897
 k-point 31 :  -0.2222 0.3333 0.0000  plane waves:   10880
 k-point 32 :  -0.1111 0.3333 0.0000  plane waves:   10880
 k-point 33 :  -0.0000 0.4444 0.0000  plane waves:   10901
 k-point 34 :   0.1111 0.4444 0.0000  plane waves:   10908
 k-point 35 :   0.2222 0.4444 0.0000  plane waves:   10884
 k-point 36 :   0.3333 0.4444 0.0000  plane waves:   10884
 k-point 37 :   0.4444 0.4444 0.0000  plane waves:   10908
 k-point 38 :  -0.4444 0.4444 0.0000  plane waves:   10897
 k-point 39 :  -0.3333 0.4444 0.0000  plane waves:   10892
 k-point 40 :  -0.2222 0.4444 0.0000  plane waves:   10878
 k-point 41 :  -0.1111 0.4444 0.0000  plane waves:   10892
 k-point 42 :   0.0000 0.0000 0.2500  plane waves:   10812
 k-point 43 :   0.1111 0.0000 0.2500  plane waves:   10849
 k-point 44 :   0.2222 0.0000 0.2500  plane waves:   10872
 k-point 45 :   0.3333 0.0000 0.2500  plane waves:   10892
 k-point 46 :   0.4444 0.0000 0.2500  plane waves:   10893
 k-point 47 :  -0.4444 0.0000 0.2500  plane waves:   10893
 k-point 48 :  -0.3333-0.0000 0.2500  plane waves:   10892
 k-point 49 :  -0.2222 0.0000 0.2500  plane waves:   10872
 k-point 50 :  -0.1111-0.0000 0.2500  plane waves:   10849
 k-point 51 :  -0.0000 0.1111 0.2500  plane waves:   10849
 k-point 52 :   0.1111 0.1111 0.2500  plane waves:   10864
 k-point 53 :   0.2222 0.1111 0.2500  plane waves:   10882
 k-point 54 :   0.3333 0.1111 0.2500  plane waves:   10894
 k-point 55 :   0.4444 0.1111 0.2500  plane waves:   10896
 k-point 56 :  -0.4444 0.1111 0.2500  plane waves:   10896
 k-point 57 :  -0.3333 0.1111 0.2500  plane waves:   10883
 k-point 58 :  -0.2222 0.1111 0.2500  plane waves:   10864
 k-point 59 :  -0.1111 0.1111 0.2500  plane waves:   10850
 k-point 60 :  -0.0000 0.2222 0.2500  plane waves:   10872
 k-point 61 :   0.1111 0.2222 0.2500  plane waves:   10882
 k-point 62 :   0.2222 0.2222 0.2500  plane waves:   10885
 k-point 63 :   0.3333 0.2222 0.2500  plane waves:   10899
 k-point 64 :   0.4444 0.2222 0.2500  plane waves:   10897
 k-point 65 :  -0.4444 0.2222 0.2500  plane waves:   10885
 k-point 66 :  -0.3333 0.2222 0.2500  plane waves:   10883
 k-point 67 :  -0.2222 0.2222 0.2500  plane waves:   10871
 k-point 68 :  -0.1111 0.2222 0.2500  plane waves:   10864
 k-point 69 :  -0.0000 0.3333 0.2500  plane waves:   10892
 k-point 70 :   0.1111 0.3333 0.2500  plane waves:   10894
 k-point 71 :   0.2222 0.3333 0.2500  plane waves:   10899
 k-point 72 :   0.3333 0.3333 0.2500  plane waves:   10884
 k-point 73 :   0.4444 0.3333 0.2500  plane waves:   10898
 k-point 74 :  -0.4444 0.3333 0.2500  plane waves:   10895
 k-point 75 :  -0.3333 0.3333 0.2500  plane waves:   10892
 k-point 76 :  -0.2222 0.3333 0.2500  plane waves:   10883
 k-point 77 :  -0.1111 0.3333 0.2500  plane waves:   10883
 k-point 78 :  -0.0000 0.4444 0.2500  plane waves:   10893
 k-point 79 :   0.1111 0.4444 0.2500  plane waves:   10896
 k-point 80 :   0.2222 0.4444 0.2500  plane waves:   10897
 k-point 81 :   0.3333 0.4444 0.2500  plane waves:   10898
 k-point 82 :   0.4444 0.4444 0.2500  plane waves:   10898
 k-point 83 :  -0.4444 0.4444 0.2500  plane waves:   10892
 k-point 84 :  -0.3333 0.4444 0.2500  plane waves:   10895
 k-point 85 :  -0.2222 0.4444 0.2500  plane waves:   10885
 k-point 86 :  -0.1111 0.4444 0.2500  plane waves:   10896
 k-point 87 :   0.0000-0.4444 0.2500  plane waves:   10893
 k-point 88 :   0.1111-0.4444 0.2500  plane waves:   10896
 k-point 89 :   0.2222-0.4444 0.2500  plane waves:   10885
 k-point 90 :   0.3333-0.4444 0.2500  plane waves:   10895
 k-point 91 :   0.4444-0.4444 0.2500  plane waves:   10892
 k-point 92 :  -0.4444-0.4444 0.2500  plane waves:   10898
 k-point 93 :  -0.3333-0.4444 0.2500  plane waves:   10898
 k-point 94 :  -0.2222-0.4444 0.2500  plane waves:   10897
 k-point 95 :  -0.1111-0.4444 0.2500  plane waves:   10896
 k-point 96 :   0.0000-0.3333 0.2500  plane waves:   10892
 k-point 97 :   0.1111-0.3333 0.2500  plane waves:   10883
 k-point 98 :   0.2222-0.3333 0.2500  plane waves:   10883
 k-point 99 :   0.3333-0.3333 0.2500  plane waves:   10892
 k-point ** :   0.4444-0.3333 0.2500  plane waves:   10895
 k-point ** :  -0.4444-0.3333 0.2500  plane waves:   10898
 k-point ** :  -0.3333-0.3333 0.2500  plane waves:   10884
 k-point ** :  -0.2222-0.3333 0.2500  plane waves:   10899
 k-point ** :  -0.1111-0.3333 0.2500  plane waves:   10894
 k-point ** :   0.0000-0.2222 0.2500  plane waves:   10872
 k-point ** :   0.1111-0.2222 0.2500  plane waves:   10864
 k-point ** :   0.2222-0.2222 0.2500  plane waves:   10871
 k-point ** :   0.3333-0.2222 0.2500  plane waves:   10883
 k-point ** :   0.4444-0.2222 0.2500  plane waves:   10885
 k-point ** :  -0.4444-0.2222 0.2500  plane waves:   10897
 k-point ** :  -0.3333-0.2222 0.2500  plane waves:   10899
 k-point ** :  -0.2222-0.2222 0.2500  plane waves:   10885
 k-point ** :  -0.1111-0.2222 0.2500  plane waves:   10882
 k-point ** :   0.0000-0.1111 0.2500  plane waves:   10849
 k-point ** :   0.1111-0.1111 0.2500  plane waves:   10850
 k-point ** :   0.2222-0.1111 0.2500  plane waves:   10864
 k-point ** :   0.3333-0.1111 0.2500  plane waves:   10883
 k-point ** :   0.4444-0.1111 0.2500  plane waves:   10896
 k-point ** :  -0.4444-0.1111 0.2500  plane waves:   10896
 k-point ** :  -0.3333-0.1111 0.2500  plane waves:   10894
 k-point ** :  -0.2222-0.1111 0.2500  plane waves:   10882
 k-point ** :  -0.1111-0.1111 0.2500  plane waves:   10864
 k-point ** :   0.0000 0.0000 0.5000  plane waves:   10814
 k-point ** :   0.1111 0.0000 0.5000  plane waves:   10848
 k-point ** :   0.2222 0.0000 0.5000  plane waves:   10896
 k-point ** :   0.3333 0.0000 0.5000  plane waves:   10898
 k-point ** :   0.4444 0.0000 0.5000  plane waves:   10898
 k-point ** :  -0.0000 0.1111 0.5000  plane waves:   10848
 k-point ** :   0.1111 0.1111 0.5000  plane waves:   10870
 k-point ** :   0.2222 0.1111 0.5000  plane waves:   10898
 k-point ** :   0.3333 0.1111 0.5000  plane waves:   10884
 k-point ** :   0.4444 0.1111 0.5000  plane waves:   10916
 k-point ** :  -0.4444 0.1111 0.5000  plane waves:   10884
 k-point ** :  -0.3333 0.1111 0.5000  plane waves:   10898
 k-point ** :  -0.2222 0.1111 0.5000  plane waves:   10870
 k-point ** :  -0.1111 0.1111 0.5000  plane waves:   10846
 k-point ** :  -0.0000 0.2222 0.5000  plane waves:   10896
 k-point ** :   0.1111 0.2222 0.5000  plane waves:   10898
 k-point ** :   0.2222 0.2222 0.5000  plane waves:   10896
 k-point ** :   0.3333 0.2222 0.5000  plane waves:   10882
 k-point ** :   0.4444 0.2222 0.5000  plane waves:   10882
 k-point ** :  -0.4444 0.2222 0.5000  plane waves:   10896
 k-point ** :  -0.3333 0.2222 0.5000  plane waves:   10898
 k-point ** :  -0.2222 0.2222 0.5000  plane waves:   10896
 k-point ** :  -0.1111 0.2222 0.5000  plane waves:   10870
 k-point ** :  -0.0000 0.3333 0.5000  plane waves:   10898
 k-point ** :   0.1111 0.3333 0.5000  plane waves:   10884
 k-point ** :   0.2222 0.3333 0.5000  plane waves:   10882
 k-point ** :   0.3333 0.3333 0.5000  plane waves:   10950
 k-point ** :   0.4444 0.3333 0.5000  plane waves:   10880
 k-point ** :  -0.4444 0.3333 0.5000  plane waves:   10884
 k-point ** :  -0.3333 0.3333 0.5000  plane waves:   10898
 k-point ** :  -0.2222 0.3333 0.5000  plane waves:   10898
 k-point ** :  -0.1111 0.3333 0.5000  plane waves:   10898
 k-point ** :  -0.0000 0.4444 0.5000  plane waves:   10898
 k-point ** :   0.1111 0.4444 0.5000  plane waves:   10916
 k-point ** :   0.2222 0.4444 0.5000  plane waves:   10882
 k-point ** :   0.3333 0.4444 0.5000  plane waves:   10880
 k-point ** :   0.4444 0.4444 0.5000  plane waves:   10916
 k-point ** :  -0.4444 0.4444 0.5000  plane waves:   10898
 k-point ** :  -0.3333 0.4444 0.5000  plane waves:   10884
 k-point ** :  -0.2222 0.4444 0.5000  plane waves:   10896
 k-point ** :  -0.1111 0.4444 0.5000  plane waves:   10884

 maximum and minimum number of plane-waves per node :     10950    10812

 maximum number of plane-waves:     10950
 maximum index in each direction: 
   IXMAX=   10   IYMAX=   10   IZMAX=   30
   IXMIN=  -10   IYMIN=  -10   IZMIN=  -31

 WARNING: aliasing errors must be expected set NGX to  42 to avoid them
 WARNING: aliasing errors must be expected set NGY to  42 to avoid them
 NGZ is ok and might be reduce to 124
 aliasing errors are usually negligible using standard VASP settings
 and one can safely disregard these warnings

 serial   3D FFT for wavefunctions
 parallel 3D FFT for charge:
    minimum data exchange during FFTs selected (reduces bandwidth)


 total amount of memory used by VASP on root node   591105. kBytes
========================================================================

   base      :      30000. kBytes
   nonl-proj :     119836. kBytes
   fftplans  :      10237. kBytes
   grid      :      21708. kBytes
   one-center:         98. kBytes
   wavefun   :     409226. kBytes
 
     INWAV:  cpu time    0.00: real time    0.00
 Broyden mixing: mesh for mixing (old mesh)
   NGX = 19   NGY = 19   NGZ = 61
  (NGX  = 80   NGY  = 80   NGZ  =252)
  gives a total of  22021 points

 initial charge density was supplied:
 charge density of overlapping atoms calculated
 number of electron     128.0000000 magnetization 
 keeping initial charge density in first step


--------------------------------------------------------------------------------------------------------


 Maximum index for augmentation-charges         1440 (set IRDMAX)


--------------------------------------------------------------------------------------------------------


 First call to EWALD:  gamma=   0.257
 Maximum number of real-space cells 4x 4x 1
 Maximum number of reciprocal cells 2x 2x 6

 FEWALD executed in parallel
    FEWALD:  cpu time    0.00: real time    0.00


----------------------------------------- Iteration    1(   1)  ---------------------------------------


    POTLOK:  cpu time    0.21: real time    0.22
    SETDIJ:  cpu time    0.02: real time    0.02
     EDDAV:  cpu time  114.11: real time  114.18
 BZINTS: Fermi energy: 14.758373;128.000000 electrons
         Band energy: -65.965202;  BLOECHL correction: -0.110251
       DOS:  cpu time    0.12: real time    0.12
    --------------------------------------------
      LOOP:  cpu time  114.47: real time  114.54

 eigenvalue-minimisations  : 27384
 total energy-change (2. order) : 0.6608362E+03  (-0.7009745E+04)
 number of electron     128.0000000 magnetization 
 augmentation part      128.0000000 magnetization 

 Free energy of the ion-electron system (eV)
  ---------------------------------------------------
  alpha Z        PSCENC =       255.81307994
  Ewald energy   TEWEN  =     -2935.68245225
  -Hartree energ DENC   =     -1706.93021456
  -exchange      EXHF   =         0.00000000
  -V(xc)+E(xc)   XCENC  =       441.60708479
  PAW double counting   =      1210.60617908    -1247.42152856
  entropy T*S    EENTRO =         0.00000000
  eigenvalues    EBANDS =       -65.96520164
  atomic energy  EATOM  =      4708.80920826
  ---------------------------------------------------
  free energy    TOTEN  =       660.83615506 eV

  energy without entropy =      660.83615506  energy(sigma->0) =      660.83615506


--------------------------------------------------------------------------------------------------------




----------------------------------------- Iteration    1(   2)  ---------------------------------------


     EDDAV:  cpu time  144.38: real time  144.46
 BZINTS: Fermi energy:  2.452904;128.000000 electrons
         Band energy:-981.101938;  BLOECHL correction: -0.000000
       DOS:  cpu time    0.05: real time    0.05
    --------------------------------------------
      LOOP:  cpu time  144.44: real time  144.52

 eigenvalue-minimisations  : 34500
 total energy-change (2. order) :-0.9151367E+03  (-0.8835183E+03)
 number of electron     128.0000000 magnetization 
 augmentation part      128.0000000 magnetization 

 Free energy of the ion-electron system (eV)
  ---------------------------------------------------
  alpha Z        PSCENC =       255.81307994
  Ewald energy   TEWEN  =     -2935.68245225
  -Hartree energ DENC   =     -1706.93021456
  -exchange      EXHF   =         0.00000000
  -V(xc)+E(xc)   XCENC  =       441.60708479
  PAW double counting   =      1210.60617908    -1247.42152856
  entropy T*S    EENTRO =         0.00000000
  eigenvalues    EBANDS =      -981.10193826
  atomic energy  EATOM  =      4708.80920826
  ---------------------------------------------------
  free energy    TOTEN  =      -254.30058157 eV

  energy without entropy =     -254.30058157  energy(sigma->0) =     -254.30058157


--------------------------------------------------------------------------------------------------------




----------------------------------------- Iteration    1(   3)  ---------------------------------------


     EDDAV:  cpu time  132.46: real time  132.52
 BZINTS: Fermi energy:  1.723873;128.000000 electrons
         Band energy:***********;  BLOECHL correction: -0.000152
       DOS:  cpu time    0.09: real time    0.09
    --------------------------------------------
      LOOP:  cpu time  132.57: real time  132.64

 eigenvalue-minimisations  : 33312
 total energy-change (2. order) :-0.5923023E+02  (-0.5871133E+02)
 number of electron     128.0000000 magnetization 
 augmentation part      128.0000000 magnetization 

 Free energy of the ion-electron system (eV)
  ---------------------------------------------------
  alpha Z        PSCENC =       255.81307994
  Ewald energy   TEWEN  =     -2935.68245225
  -Hartree energ DENC   =     -1706.93021456
  -exchange      EXHF   =         0.00000000
  -V(xc)+E(xc)   XCENC  =       441.60708479
  PAW double counting   =      1210.60617908    -1247.42152856
  entropy T*S    EENTRO =         0.00000000
  eigenvalues    EBANDS =     -1040.33216333
  atomic energy  EATOM  =      4708.80920826
  ---------------------------------------------------
  free energy    TOTEN  =      -313.53080663 eV

  energy without entropy =     -313.53080663  energy(sigma->0) =     -313.53080663


--------------------------------------------------------------------------------------------------------




----------------------------------------- Iteration    1(   4)  ---------------------------------------


     EDDAV:  cpu time  151.11: real time  151.21
 BZINTS: Fermi energy:  1.713474;128.000000 electrons
         Band energy:***********;  BLOECHL correction: -0.000000
       DOS:  cpu time    0.06: real time    0.06
    --------------------------------------------
      LOOP:  cpu time  151.17: real time  151.27

 eigenvalue-minimisations  : 35532
 total energy-change (2. order) :-0.1215129E+01  (-0.1213020E+01)
 number of electron     128.0000000 magnetization 
 augmentation part      128.0000000 magnetization 

 Free energy of the ion-electron system (eV)
  ---------------------------------------------------
  alpha Z        PSCENC =       255.81307994
  Ewald energy   TEWEN  =     -2935.68245225
  -Hartree energ DENC   =     -1706.93021456
  -exchange      EXHF   =         0.00000000
  -V(xc)+E(xc)   XCENC  =       441.60708479
  PAW double counting   =      1210.60617908    -1247.42152856
  entropy T*S    EENTRO =         0.00000000
  eigenvalues    EBANDS =     -1041.54729192
  atomic energy  EATOM  =      4708.80920826
  ---------------------------------------------------
  free energy    TOTEN  =      -314.74593523 eV

  energy without entropy =     -314.74593523  energy(sigma->0) =     -314.74593523


--------------------------------------------------------------------------------------------------------




----------------------------------------- Iteration    1(   5)  ---------------------------------------


     EDDAV:  cpu time  156.42: real time  156.50
 BZINTS: Fermi energy:  1.713367;128.000000 electrons
         Band energy:***********;  BLOECHL correction: -0.000000
       DOS:  cpu time    0.08: real time    0.08
    CHARGE:  cpu time    6.79: real time    6.79
    MIXING:  cpu time    0.01: real time    0.01
    --------------------------------------------
      LOOP:  cpu time  163.34: real time  163.42

 eigenvalue-minimisations  : 35784
 total energy-change (2. order) :-0.3510369E-01  (-0.3508794E-01)
 number of electron     127.9999994 magnetization 
 augmentation part        3.4046793 magnetization 

 Broyden mixing:
  rms(total) = 0.22059E+01    rms(broyden)= 0.22057E+01
  rms(prec ) = 0.25224E+01
  weight for this iteration     100.00

 Free energy of the ion-electron system (eV)
  ---------------------------------------------------
  alpha Z        PSCENC =       255.81307994
  Ewald energy   TEWEN  =     -2935.68245225
  -Hartree energ DENC   =     -1706.93021456
  -exchange      EXHF   =         0.00000000
  -V(xc)+E(xc)   XCENC  =       441.60708479
  PAW double counting   =      1210.60617908    -1247.42152856
  entropy T*S    EENTRO =         0.00000000
  eigenvalues    EBANDS =     -1041.58239561
  atomic energy  EATOM  =      4708.80920826
  ---------------------------------------------------
  free energy    TOTEN  =      -314.78103891 eV

  energy without entropy =     -314.78103891  energy(sigma->0) =     -314.78103891


--------------------------------------------------------------------------------------------------------




----------------------------------------- Iteration    1(   6)  ---------------------------------------


    POTLOK:  cpu time    0.21: real time    0.21
    SETDIJ:  cpu time    0.01: real time    0.01
     EDDAV:  cpu time  138.35: real time  138.42
 BZINTS: Fermi energy:  2.591393;128.000000 electrons
         Band energy:-886.827823;  BLOECHL correction:  0.000000
       DOS:  cpu time    0.04: real time    0.04
    CHARGE:  cpu time    5.81: real time    5.81
    MIXING:  cpu time    0.01: real time    0.01
    --------------------------------------------
      LOOP:  cpu time  144.42: real time  144.49

 eigenvalue-minimisations  : 31296
 total energy-change (2. order) : 0.1483509E+02  (-0.1501443E+01)
 number of electron     127.9999995 magnetization 
 augmentation part        3.2486329 magnetization 

 Broyden mixing:
  rms(total) = 0.11595E+01    rms(broyden)= 0.11595E+01
  rms(prec ) = 0.13223E+01
  weight for this iteration     100.00

 eigenvalues of (default mixing * dielectric matrix)
  average eigenvalue GAMMA=   2.0342
  2.0342

 Free energy of the ion-electron system (eV)
  ---------------------------------------------------
  alpha Z        PSCENC =       255.81307994
  Ewald energy   TEWEN  =     -2935.68245225
  -Hartree energ DENC   =     -1852.38370286
  -exchange      EXHF   =         0.00000000
  -V(xc)+E(xc)   XCENC  =       450.08276405
  PAW double counting   =      1642.43317066    -1682.19019817
  entropy T*S    EENTRO =         0.00000000
  eigenvalues    EBANDS =      -886.82782324
  atomic energy  EATOM  =      4708.80920826
  ---------------------------------------------------
  free energy    TOTEN  =      -299.94595360 eV

  energy without entropy =     -299.94595360  energy(sigma->0) =     -299.94595360


--------------------------------------------------------------------------------------------------------




----------------------------------------- Iteration    1(   7)  ---------------------------------------


    POTLOK:  cpu time    0.19: real time    0.20
    SETDIJ:  cpu time    0.01: real time    0.01
     EDDAV:  cpu time  138.01: real time  138.08
 BZINTS: Fermi energy:  3.476510;128.000000 electrons
         Band energy:-724.129387;  BLOECHL correction:  0.000000
       DOS:  cpu time    0.04: real time    0.04
    CHARGE:  cpu time    6.20: real time    6.21
    MIXING:  cpu time    0.01: real time    0.01
    --------------------------------------------
      LOOP:  cpu time  144.47: real time  144.55

 eigenvalue-minimisations  : 30828
 total energy-change (2. order) : 0.4926213E+01  (-0.1680505E+01)
 number of electron     127.9999996 magnetization 
 augmentation part        3.0788459 magnetization 

 Broyden mixing:
  rms(total) = 0.20201E+00    rms(broyden)= 0.20187E+00
  rms(prec ) = 0.21819E+00
  weight for this iteration     100.00

 eigenvalues of (default mixing * dielectric matrix)
  average eigenvalue GAMMA=   2.0750
  2.0750  2.0750

 Free energy of the ion-electron system (eV)
  ---------------------------------------------------
  alpha Z        PSCENC =       255.81307994
  Ewald energy   TEWEN  =     -2935.68245225
  -Hartree energ DENC   =     -2017.60397258
  -exchange      EXHF   =         0.00000000
  -V(xc)+E(xc)   XCENC  =       459.94005734
  PAW double counting   =      2183.30366411    -2225.46993843
  entropy T*S    EENTRO =         0.00000000
  eigenvalues    EBANDS =      -724.12938699
  atomic energy  EATOM  =      4708.80920826
  ---------------------------------------------------
  free energy    TOTEN  =      -295.01974058 eV

  energy without entropy =     -295.01974058  energy(sigma->0) =     -295.01974058


--------------------------------------------------------------------------------------------------------




----------------------------------------- Iteration    1(   8)  ---------------------------------------


    POTLOK:  cpu time    0.22: real time    0.22
    SETDIJ:  cpu time    0.02: real time    0.02
     EDDAV:  cpu time  156.30: real time  156.38
 BZINTS: Fermi energy:  3.478531;128.000000 electrons
         Band energy:-724.022869;  BLOECHL correction:  0.000000
       DOS:  cpu time    0.07: real time    0.07
    CHARGE:  cpu time    6.88: real time    6.89
    MIXING:  cpu time    0.01: real time    0.01
    --------------------------------------------
      LOOP:  cpu time  163.49: real time  163.58

 eigenvalue-minimisations  : 31512
 total energy-change (2. order) :-0.7192893E-01  (-0.4911048E-01)
 number of electron     127.9999996 magnetization 
 augmentation part        3.0671429 magnetization 

 Broyden mixing:
  rms(total) = 0.71834E-01    rms(broyden)= 0.71814E-01
  rms(prec ) = 0.84376E-01
  weight for this iteration     100.00

 eigenvalues of (default mixing * dielectric matrix)
  average eigenvalue GAMMA=   1.7186
  2.3970  2.0662  0.6927

 Free energy of the ion-electron system (eV)
  ---------------------------------------------------
  alpha Z        PSCENC =       255.81307994
  Ewald energy   TEWEN  =     -2935.68245225
  -Hartree energ DENC   =     -2018.41388284
  -exchange      EXHF   =         0.00000000
  -V(xc)+E(xc)   XCENC  =       459.94931378
  PAW double counting   =      2202.13370888    -2243.67777668
  entropy T*S    EENTRO =         0.00000000
  eigenvalues    EBANDS =      -724.02286860
  atomic energy  EATOM  =      4708.80920826
  ---------------------------------------------------
  free energy    TOTEN  =      -295.09166951 eV

  energy without entropy =     -295.09166951  energy(sigma->0) =     -295.09166951


--------------------------------------------------------------------------------------------------------




----------------------------------------- Iteration    1(   9)  ---------------------------------------


    POTLOK:  cpu time    0.41: real time    0.41
    SETDIJ:  cpu time    0.01: real time    0.01
     EDDAV:  cpu time  133.43: real time  133.50
 BZINTS: Fermi energy:  3.489851;128.000000 electrons
         Band energy:-721.434930;  BLOECHL correction:  0.000000
       DOS:  cpu time    0.06: real time    0.06
    CHARGE:  cpu time    6.70: real time    6.70
    MIXING:  cpu time    0.01: real time    0.01
    --------------------------------------------
      LOOP:  cpu time  140.62: real time  140.69

 eigenvalue-minimisations  : 32244
 total energy-change (2. order) :-0.1170797E-01  (-0.3632125E-02)
 number of electron     127.9999996 magnetization 
 augmentation part        3.0657279 magnetization 

 Broyden mixing:
  rms(total) = 0.22664E-01    rms(broyden)= 0.22661E-01
  rms(prec ) = 0.36872E-01
  weight for this iteration     100.00

 eigenvalues of (default mixing * dielectric matrix)
  average eigenvalue GAMMA=   1.5720
  2.4563  2.0451  0.8933  0.8933

 Free energy of the ion-electron system (eV)
  ---------------------------------------------------
  alpha Z        PSCENC =       255.81307994
  Ewald energy   TEWEN  =     -2935.68245225
  -Hartree energ DENC   =     -2021.43567892
  -exchange      EXHF   =         0.00000000
  -V(xc)+E(xc)   XCENC  =       460.13258588
  PAW double counting   =      2216.63685874    -2257.94204864
  entropy T*S    EENTRO =         0.00000000
  eigenvalues    EBANDS =      -721.43493049
  atomic energy  EATOM  =      4708.80920826
  ---------------------------------------------------
  free energy    TOTEN  =      -295.10337748 eV

  energy without entropy =     -295.10337748  energy(sigma->0) =     -295.10337748


--------------------------------------------------------------------------------------------------------




----------------------------------------- Iteration    1(  10)  ---------------------------------------


    POTLOK:  cpu time    0.19: real time    0.19
    SETDIJ:  cpu time    0.01: real time    0.01
     EDDAV:  cpu time  193.35: real time  193.45
 BZINTS: Fermi energy:  3.495906;128.000000 electrons
         Band energy:-720.291865;  BLOECHL correction:  0.000000
       DOS:  cpu time    0.03: real time    0.03
    CHARGE:  cpu time    8.18: real time    8.18
    MIXING:  cpu time    0.01: real time    0.01
    --------------------------------------------
      LOOP:  cpu time  201.77: real time  201.88

 eigenvalue-minimisations  : 42480
 total energy-change (2. order) :-0.2023748E-02  (-0.4563761E-02)
 number of electron     127.9999996 magnetization 
 augmentation part        3.0650960 magnetization 

 Broyden mixing:
  rms(total) = 0.18414E-01    rms(broyden)= 0.18392E-01
  rms(prec ) = 0.34112E-01
  weight for this iteration     100.00

 eigenvalues of (default mixing * dielectric matrix)
  average eigenvalue GAMMA=   1.5311
  2.6372  1.8337  1.8337  0.6755  0.6755

 Free energy of the ion-electron system (eV)
  ---------------------------------------------------
[...]
     80      10.2637      0.00000
     81      11.3107      0.00000
     82      11.3137      0.00000
     83      11.5924      0.00000
     84      11.5935      0.00000

 k-point   162 :      -0.2222    0.4444    0.5000
  band No.  band energies     occupation 
      1     -15.1442      2.00000
      2     -15.1439      2.00000
      3     -15.0839      2.00000
      4     -15.0836      2.00000
      5     -13.2208      2.00000
      6     -13.2186      2.00000
      7     -13.2180      2.00000
      8     -13.2156      2.00000
      9     -13.1687      2.00000
     10     -13.1668      2.00000
     11     -13.1662      2.00000
     12     -13.1635      2.00000
     13     -10.0102      2.00000
     14     -10.0088      2.00000
     15      -9.9899      2.00000
     16      -9.9883      2.00000
     17      -9.0496      2.00000
     18      -9.0465      2.00000
     19      -9.0361      2.00000
     20      -9.0341      2.00000
     21      -6.0286      2.00000
     22      -6.0269      2.00000
     23      -6.0251      2.00000
     24      -6.0229      2.00000
     25      -6.0046      2.00000
     26      -6.0035      2.00000
     27      -6.0017      2.00000
     28      -5.9983      2.00000
     29      -5.7260      2.00000
     30      -5.7242      2.00000
     31      -5.7061      2.00000
     32      -5.7040      2.00000
     33      -3.3570      2.00000
     34      -3.3565      2.00000
     35      -3.1222      2.00000
     36      -3.1198      2.00000
     37      -3.1171      2.00000
     38      -3.1169      2.00000
     39      -3.1086      2.00000
     40      -3.1080      2.00000
     41      -3.1053      2.00000
     42      -3.1043      2.00000
     43      -2.7539      2.00000
     44      -2.7533      2.00000
     45      -2.1867      2.00000
     46      -2.1845      2.00000
     47      -2.1802      2.00000
     48      -2.1748      2.00000
     49      -1.2312      2.00000
     50      -1.2250      2.00000
     51      -1.2220      2.00000
     52      -1.2205      2.00000
     53      -1.1195      2.00000
     54      -1.1181      2.00000
     55      -1.1178      2.00000
     56      -1.1156      2.00000
     57      -0.5965      2.00000
     58      -0.5946      2.00000
     59      -0.5944      2.00000
     60      -0.5921      2.00000
     61       2.1044      2.00000
     62       2.1069      2.00000
     63       2.3040      2.00000
     64       2.3063      2.00000
     65       4.6584      0.00000
     66       4.6616      0.00000
     67       4.6993      0.00000
     68       4.7021      0.00000
     69       8.1142      0.00000
     70       8.1155      0.00000
     71       8.1169      0.00000
     72       8.1184      0.00000
     73       8.3341      0.00000
     74       8.3358      0.00000
     75       8.3370      0.00000
     76       8.3383      0.00000
     77       8.5115      0.00000
     78       8.5132      0.00000
     79      10.9671      0.00000
     80      10.9690      0.00000
     81      10.9697      0.00000
     82      10.9709      0.00000
     83      11.2674      0.00000
     84      11.2695      0.00000

 k-point   163 :      -0.1111    0.4444    0.5000
  band No.  band energies     occupation 
      1     -15.0717      2.00000
      2     -15.0715      2.00000
      3     -15.0118      2.00000
      4     -15.0115      2.00000
      5     -13.7817      2.00000
      6     -13.7815      2.00000
      7     -13.7274      2.00000
      8     -13.7272      2.00000
      9     -12.5245      2.00000
     10     -12.5243      2.00000
     11     -12.4758      2.00000
     12     -12.4755      2.00000
     13     -10.7429      2.00000
     14     -10.7425      2.00000
     15     -10.7037      2.00000
     16     -10.7032      2.00000
     17      -8.2708      2.00000
     18      -8.2695      2.00000
     19      -8.2442      2.00000
     20      -8.2431      2.00000
     21      -6.6134      2.00000
     22      -6.6120      2.00000
     23      -6.5905      2.00000
     24      -6.5889      2.00000
     25      -5.6206      2.00000
     26      -5.6190      2.00000
     27      -5.6020      2.00000
     28      -5.6002      2.00000
     29      -5.3645      2.00000
     30      -5.3645      2.00000
     31      -5.3421      2.00000
     32      -5.3420      2.00000
     33      -4.1849      2.00000
     34      -4.1835      2.00000
     35      -4.1702      2.00000
     36      -4.1691      2.00000
     37      -3.2712      2.00000
     38      -3.2707      2.00000
     39      -2.6706      2.00000
     40      -2.6699      2.00000
     41      -2.5204      2.00000
     42      -2.5192      2.00000
     43      -2.5083      2.00000
     44      -2.5068      2.00000
     45      -2.2683      2.00000
     46      -2.2676      2.00000
     47      -2.2591      2.00000
     48      -2.2584      2.00000
     49      -1.7639      2.00000
     50      -1.7634      2.00000
     51      -1.2145      2.00000
     52      -1.2138      2.00000
     53      -1.1441      2.00000
     54      -1.1428      2.00000
     55      -1.1367      2.00000
     56      -1.1359      2.00000
     57      -0.3334      2.00000
     58      -0.3330      2.00000
     59       0.1548      2.00000
     60       0.1553      2.00000
     61       1.5394      2.00000
     62       1.5406      2.00000
     63       1.8869      2.00000
     64       1.8883      2.00000
     65       5.1313      0.00000
     66       5.1331      0.00000
     67       5.3083      0.00000
     68       5.3097      0.00000
     69       7.1739      0.00000
     70       7.1751      0.00000
     71       7.3729      0.00000
     72       7.3739      0.00000
     73       8.6011      0.00000
     74       8.6022      0.00000
     75       9.0122      0.00000
     76       9.0147      0.00000
     77       9.2390      0.00000
     78       9.2409      0.00000
     79      10.2608      0.00000
     80      10.2641      0.00000
     81      11.3109      0.00000
     82      11.3139      0.00000
     83      11.5890      0.00000
     84      11.5898      0.00000


--------------------------------------------------------------------------------------------------------


 soft charge-density along one line, spin component           1
         0         1         2         3         4         5         6         7         8         9
 total charge-density along one line
 
 pseudopotential strength for first ion, spin component:           1
  9.846   0.007  -0.000   0.000   0.000   0.000   0.000  -0.000
  0.007  -0.002  -0.000  -0.000  -0.000   0.000   0.000  -0.000
 -0.000  -0.000  -4.008  -0.000   0.000  -0.015  -0.000   0.000
  0.000  -0.000  -0.000  -4.002  -0.000  -0.000  -0.012   0.000
  0.000  -0.000   0.000  -0.000  -4.008   0.000   0.000  -0.015
  0.000   0.000  -0.015  -0.000   0.000  -0.765   0.000   0.000
  0.000   0.000  -0.000  -0.012   0.000   0.000  -0.765  -0.000
 -0.000  -0.000   0.000   0.000  -0.015   0.000  -0.000  -0.765
 total augmentation occupancy for first ion, spin component:           1
  1.468  -1.107  -0.000  -0.000   0.000  -0.000   0.000   0.000
 -1.107   1.038   0.000  -0.000  -0.000   0.000  -0.000  -0.000
 -0.000   0.000   1.223  -0.000  -0.000   0.225  -0.000  -0.000
 -0.000  -0.000  -0.000   0.931  -0.000   0.000   0.103  -0.000
  0.000  -0.000  -0.000  -0.000   1.223  -0.000  -0.000   0.225
 -0.000   0.000   0.225   0.000  -0.000   0.047  -0.000  -0.000
  0.000  -0.000  -0.000   0.103  -0.000  -0.000   0.013  -0.000
  0.000  -0.000  -0.000  -0.000   0.225  -0.000  -0.000   0.047


------------------------ aborting loop because EDIFF is reached ----------------------------------------


    CHARGE:  cpu time    6.12: real time    6.12
    FORLOC:  cpu time    0.05: real time    0.05
    FORNL :  cpu time   49.17: real time   49.19
    STRESS:  cpu time   84.95: real time   84.99
    FORHAR:  cpu time    0.09: real time    0.09
    MIXING:  cpu time    0.01: real time    0.02
    OFIELD:  cpu time    0.00: real time    0.00

 ---------------------------------------------------------------------------------------------

         DFTD3 V3.0 Rev 1        
 IVDW         = 11
 DF pbe       
 parameters
 VDW_S6       =    1.0000
 VDW_S8       =    0.7220
 VDW_SR       =    1.2170
 rs18     =    1.0000
 alpha6   =   14.0000
 alpha8   =   16.0000
 k1-k3    =   16.0000    1.3333   -4.0000
 VDW_RADIUS   =   50.2022 A
 VDW_CNRADIUS =   21.1671 A
 Edisp (eV)   -2.48649

 E6    (eV) :    -1.6870
 E8    (eV) :    -0.7995
 % E8        : 32.15
    FORVDW:  cpu time    0.33: real time    0.33

  FORCE on cell =-STRESS in cart. coord.  units (eV):
  Direction    XX          YY          ZZ          XY          YZ          ZX
  --------------------------------------------------------------------------------------
  Alpha Z   255.81308   255.81308   255.81308
  Ewald    1364.87874  1364.48062 -5665.06085     0.32066    -0.00004    -0.00725
  Hartree  1843.53509  1843.48670 -1662.47658     0.05274    -0.00007    -0.00162
  E(xc)    -466.86588  -466.86808  -485.20410     0.00090    -0.00001    -0.00003
  Local   -4792.89770 -4792.52359  5472.52676    -0.31289    -0.00004     0.00714
  n-local  -112.41771  -112.43250  -102.35550    -0.00893    -0.00013    -0.00001
  augment   -12.34809   -12.34742   -11.32189    -0.00042     0.00000     0.00002
  Kinetic  1920.27635  1920.43549  2198.49023     0.02400     0.00247     0.00255
  Fock        0.00000     0.00000     0.00000     0.00000     0.00000     0.00000
  vdW        -0.53376    -0.53333    -3.97614     0.00026    -0.00000    -0.00001
  -------------------------------------------------------------------------------------
  Total      -0.55989    -0.48902    -3.56499     0.07632     0.00219     0.00079
  in kB      -2.75031    -2.40221   -17.51215     0.37488     0.01074     0.00390
  external pressure =       -7.55 kB  Pullay stress =        0.00 kB


 VOLUME and BASIS-vectors are now :
 -----------------------------------------------------------------------------
  energy-cutoff  :      600.00
  volume of cell :      326.16
      direct lattice vectors                 reciprocal lattice vectors
     4.934310885 -0.000222400  0.000000000     0.202667819  0.117022500  0.000000000
    -2.467348046  4.273127376  0.000000000     0.000010548  0.234026730  0.000000000
     0.000000000  0.000000000 15.469207318     0.000000000  0.000000000  0.064644553

  length of vectors
     4.934310890  4.934310890 15.469207318     0.234026730  0.234026730  0.064644553


 FORCES acting on ions
    electron-ion (+dipol)            ewald-force                    non-local-force                 convergence-correction
 -----------------------------------------------------------------------------------------------
   -.776E-01 0.652E-03 0.267E+00   0.648E-01 0.136E-02 -.338E+00   -.402E-02 0.115E-02 0.102E-01   0.300E-03 -.417E-04 0.734E-01
   0.197E+00 -.673E-02 0.796E+00   -.207E+00 0.962E-02 -.902E+00   0.180E-01 0.841E-03 0.814E-01   0.321E-03 -.316E-04 0.735E-01
   -.294E+00 -.283E+00 0.800E+00   0.330E+00 0.312E+00 -.906E+00   0.112E-01 -.283E-02 0.817E-01   0.274E-03 -.649E-04 0.735E-01
   -.305E+00 0.289E+00 0.793E+00   0.342E+00 -.315E+00 -.898E+00   0.103E-01 0.559E-02 0.811E-01   0.282E-03 -.127E-04 0.735E-01
   0.653E-02 0.479E-03 -.972E-02   -.264E-02 0.151E-02 0.845E-01   -.131E-03 0.115E-02 0.284E-05   -.157E-02 -.341E-04 -.748E-01
   0.655E-02 0.485E-03 -.982E-02   -.266E-02 0.151E-02 0.846E-01   -.130E-03 0.115E-02 0.105E-04   -.157E-02 -.394E-04 -.748E-01
   0.654E-02 0.486E-03 -.982E-02   -.265E-02 0.152E-02 0.846E-01   -.129E-03 0.115E-02 0.795E-05   -.157E-02 -.474E-04 -.748E-01
   0.654E-02 0.495E-03 -.982E-02   -.265E-02 0.151E-02 0.846E-01   -.132E-03 0.115E-02 0.136E-04   -.157E-02 -.451E-04 -.748E-01
   0.959E-02 -.447E-02 -.219E-01   -.714E-02 0.319E-02 0.844E-01   0.173E-02 -.972E-03 0.286E-03   0.189E-03 -.187E-03 -.626E-01
   -.101E-01 -.634E-02 -.280E-01   0.126E-01 0.511E-02 0.908E-01   0.174E-02 -.993E-03 0.102E-03   0.169E-03 -.185E-03 -.626E-01
   0.137E-02 0.116E-01 -.249E-01   0.104E-02 -.129E-01 0.876E-01   0.176E-02 -.990E-03 0.194E-03   0.176E-03 -.164E-03 -.626E-01
   -.162E-02 0.266E-03 -.124E-01   0.414E-02 -.154E-02 0.752E-01   0.171E-02 -.988E-03 -.107E-03   0.180E-03 -.170E-03 -.626E-01
   -.966E-02 0.678E-02 -.155E+00   0.124E-01 -.808E-02 0.906E-01   0.180E-02 -.937E-03 -.381E-04   0.523E-04 -.667E-05 0.642E-01
   0.974E-02 0.493E-02 -.149E+00   -.702E-02 -.621E-02 0.845E-01   0.180E-02 -.957E-03 0.150E-03   0.673E-04 0.345E-05 0.642E-01
   0.165E-02 -.110E-01 -.152E+00   0.108E-02 0.968E-02 0.876E-01   0.182E-02 -.944E-03 0.549E-04   0.476E-04 -.337E-05 0.642E-01
   -.132E-02 0.236E-03 -.139E+00   0.411E-02 -.154E-02 0.753E-01   0.178E-02 -.944E-03 -.240E-03   0.684E-04 0.839E-05 0.642E-01
   0.671E+00 0.172E-02 -.220E+01   -.762E+00 -.408E-02 0.217E+01   -.784E-01 -.122E-02 -.181E+00   -.272E-03 0.159E-04 0.731E-01
   -.166E+00 -.217E-03 0.330E+00   0.195E+00 -.153E-02 -.386E+00   0.208E-01 -.117E-02 -.248E-01   -.363E-03 0.203E-04 0.734E-01
   -.124E-01 0.884E-01 0.330E+00   0.193E-01 -.103E+00 -.386E+00   0.113E-01 -.653E-02 -.247E-01   -.325E-03 0.387E-04 0.734E-01
   -.122E-01 -.891E-01 0.330E+00   0.192E-01 0.997E-01 -.386E+00   0.113E-01 0.438E-02 -.249E-01   -.328E-03 -.137E-05 0.734E-01
   -.667E-02 -.396E-03 -.994E-02   0.263E-02 -.152E-02 0.847E-01   0.719E-04 -.112E-02 0.134E-03   0.157E-02 0.348E-04 -.748E-01
   -.671E-02 -.399E-03 -.976E-02   0.268E-02 -.152E-02 0.845E-01   0.693E-04 -.112E-02 0.107E-03   0.157E-02 0.383E-04 -.748E-01
   -.668E-02 -.387E-03 -.976E-02   0.266E-02 -.153E-02 0.845E-01   0.700E-04 -.112E-02 0.107E-03   0.156E-02 0.376E-04 -.748E-01
   -.670E-02 -.414E-03 -.976E-02   0.266E-02 -.151E-02 0.845E-01   0.710E-04 -.112E-02 0.107E-03   0.157E-02 0.409E-04 -.748E-01
   -.983E-02 0.633E-02 -.280E-01   0.727E-02 -.511E-02 0.908E-01   -.168E-02 0.938E-03 -.136E-03   -.223E-03 0.190E-03 -.626E-01
   0.101E-01 0.448E-02 -.218E-01   -.124E-01 -.318E-02 0.845E-01   -.181E-02 0.892E-03 0.498E-04   -.211E-03 0.186E-03 -.626E-01
   0.176E-02 -.119E-01 -.249E-01   -.424E-02 0.129E-01 0.876E-01   -.171E-02 0.103E-02 -.476E-04   -.216E-03 0.163E-03 -.626E-01
   -.121E-02 -.355E-03 -.125E-01   -.113E-02 0.154E-02 0.752E-01   -.179E-02 0.955E-03 -.119E-05   -.221E-03 0.176E-03 -.626E-01
   0.947E-02 -.520E-02 -.149E+00   -.123E-01 0.621E-02 0.845E-01   -.190E-02 0.960E-03 -.707E-04   0.333E-06 0.215E-04 0.642E-01
   -.102E-01 -.700E-02 -.155E+00   0.714E-02 0.809E-02 0.907E-01   -.177E-02 0.911E-03 -.218E-03   -.707E-05 0.184E-04 0.642E-01
   0.118E-02 0.110E-01 -.152E+00   -.420E-02 -.968E-02 0.876E-01   -.179E-02 0.821E-03 -.156E-03   -.393E-05 0.210E-04 0.642E-01
   -.170E-02 -.407E-03 -.139E+00   -.117E-02 0.154E-02 0.753E-01   -.188E-02 0.897E-03 -.992E-04   -.500E-05 0.199E-04 0.642E-01
 -----------------------------------------------------------------------------------------------
   0.869E-04 -.493E-05 -.816E-03   -.122E-13 0.179E-14 -.568E-13   -.146E-05 0.107E-04 -.633E-03   -.506E-04 0.829E-06 0.132E-02
 
 
 POSITION                                       TOTAL-FORCE (eV/Angst)
 -----------------------------------------------------------------------------------
      2.46715     -0.00011      1.93365        -0.016535      0.003115      0.011990
      4.93431     -0.00022      1.93365         0.007492      0.003697      0.048896
      1.23348      2.13645      1.93365         0.047685      0.026331      0.048549
      3.70064      2.13634      1.93365         0.047746     -0.020114      0.049203
      2.46715     -0.00011      9.66825         0.002191      0.003109     -0.000045
      4.93431     -0.00022      9.66825         0.002192      0.003109     -0.000043
      1.23348      2.13645      9.66825         0.002192      0.003112     -0.000046
      3.70064      2.13634      9.66825         0.002190      0.003111     -0.000041
     -1.23367      2.13656      5.80095         0.004357     -0.002442      0.000227
      1.23348      2.13645      5.80095         0.004392     -0.002400      0.000250
     -2.46735      4.27313      5.80095         0.004339     -0.002446      0.000238
     -0.00019      4.27302      5.80095         0.004406     -0.002431      0.000046
     -1.23367      2.13656     13.53556         0.004620     -0.002254      0.000132
      1.23348      2.13645     13.53556         0.004577     -0.002237      0.000110
     -2.46735      4.27313     13.53556         0.004587     -0.002226      0.000121
     -0.00019      4.27302     13.53556         0.004631     -0.002242     -0.000069
      0.00285      1.42441      1.94318        -0.170282     -0.003569     -0.136832
      2.46696      1.42430      1.93365         0.049512     -0.002898     -0.007652
     -1.23387      3.56098      1.93365         0.017946     -0.021107     -0.007715
      1.23329      3.56086      1.93365         0.018039      0.015293     -0.007605
     -0.00019      1.42441      9.66825        -0.002399     -0.002998      0.000077
      2.46696      1.42430      9.66825        -0.002399     -0.002997      0.000054
     -1.23387      3.56098      9.66825        -0.002399     -0.002999      0.000054
      1.23329      3.56086      9.66825        -0.002399     -0.003000      0.000054
      1.23367      0.71204      5.80095        -0.004449      0.002344      0.000039
      3.70083      0.71193      5.80095        -0.004314      0.002371      0.000091
     -0.00000      2.84860      5.80095        -0.004404      0.002245      0.000061
      2.46715      2.84849      5.80095        -0.004358      0.002319      0.000009
      1.23367      0.71204     13.53556        -0.004728      0.002001     -0.000014
      3.70083      0.71193     13.53556        -0.004860      0.002023     -0.000029
     -0.00000      2.84860     13.53556        -0.004811      0.002125     -0.000034
      2.46715      2.84849     13.53556        -0.004758      0.002054     -0.000076
 -----------------------------------------------------------------------------------
    total drift:                                0.000035      0.000007     -0.000133


--------------------------------------------------------------------------------------------------------



  FREE ENERGIE OF THE ION-ELECTRON SYSTEM (eV)
  ---------------------------------------------------
  free  energy   TOTEN  =      -297.59127351 eV

  energy  without entropy=     -297.59127351  energy(sigma->0) =     -297.59127351
 


--------------------------------------------------------------------------------------------------------


    POTLOK:  cpu time    0.30: real time    0.30


--------------------------------------------------------------------------------------------------------


     LOOP+:  cpu time 4338.90: real time 4341.29
    4ORBIT:  cpu time    0.00: real time    0.00
 BZINTS: Fermi energy:  3.509217;128.000000 electrons
         Band energy:-718.526898;  BLOECHL correction: -0.000000

 total amount of memory used by VASP on root node   591105. kBytes
========================================================================

   base      :      30000. kBytes
   nonl-proj :     119836. kBytes
   fftplans  :      10237. kBytes
   grid      :      21708. kBytes
   one-center:         98. kBytes
   wavefun   :     409226. kBytes
 
  
  
 General timing and accounting informations for this job:
 ========================================================
  
                  Total CPU time used (sec):     4371.189
                            User time (sec):     3462.212
                          System time (sec):      908.978
                         Elapsed time (sec):     4373.848
  
                   Maximum memory used (kb):      704068.
                   Average memory used (kb):           0.
  
                          Minor page faults:    116266222
                          Major page faults:            7
                 Voluntary context switches:         1221
