       N       E                     dE             d eps       ncg     rms          rms(c)
DAV:   1     0.730864749221E+03    0.73086E+03   -0.83333E+04 12768   0.199E+03
DAV:   2    -0.251379120984E+03   -0.98224E+03   -0.94592E+03 15960   0.341E+02
DAV:   3    -0.313012326431E+03   -0.61633E+02   -0.61017E+02 15504   0.844E+01
DAV:   4    -0.314260515453E+03   -0.12482E+01   -0.12456E+01 16116   0.130E+01
DAV:   5    -0.314297410900E+03   -0.36895E-01   -0.36882E-01 16404   0.208E+00    0.221E+01
DAV:   6    -0.299684050985E+03    0.14613E+02   -0.15011E+01 14592   0.107E+01    0.116E+01
DAV:   7    -0.295011989199E+03    0.46721E+01   -0.16434E+01 14496   0.112E+01    0.203E+00
DAV:   8    -0.295041218853E+03   -0.29230E-01   -0.53376E-01 15288   0.211E+00    0.113E+00
DAV:   9    -0.295057901679E+03   -0.16683E-01   -0.91344E-02 14532   0.869E-01    0.233E-01
DAV:  10    -0.295058918205E+03   -0.10165E-02   -0.31088E-02 15204   0.347E-01    0.250E-01
DAV:  11    -0.295058665230E+03    0.25298E-03   -0.91607E-03 14940   0.179E-01    0.126E-01
DAV:  12    -0.295060052789E+03   -0.13876E-02   -0.20429E-02 17292   0.199E-01    0.237E-01
DAV:  13    -0.295060760414E+03   -0.70763E-03   -0.11565E-02 14652   0.154E-01    0.283E-01
DAV:  14    -0.295059600670E+03    0.11597E-02   -0.18032E-02 17508   0.210E-01    0.191E-01
DAV:  15    -0.295059405014E+03    0.19566E-03   -0.54647E-03 14688   0.992E-02    0.999E-02
DAV:  16    -0.295059371379E+03    0.33635E-04   -0.11708E-03 14664   0.586E-02    0.581E-02
DAV:  17    -0.295059393210E+03   -0.21831E-04   -0.10487E-03 14856   0.385E-02    0.741E-02
DAV:  18    -0.295059359995E+03    0.33215E-04   -0.91465E-05 15240   0.155E-02    0.453E-02
DAV:  19    -0.295059353003E+03    0.69913E-05   -0.40139E-05 16128   0.920E-03    0.296E-02
DAV:  20    -0.295059362962E+03   -0.99583E-05   -0.21851E-04 16368   0.148E-02    0.538E-02
DAV:  21    -0.295059354011E+03    0.89510E-05   -0.38623E-04 19740   0.204E-02    0.426E-02
DAV:  22    -0.295059347852E+03    0.61584E-05   -0.15573E-04 15984   0.111E-02    0.282E-02
DAV:  23    -0.295059346368E+03    0.14843E-05   -0.37247E-05 14664   0.461E-03    0.182E-02
DAV:  24    -0.295059346960E+03   -0.59250E-06   -0.21975E-05 16632   0.301E-03    0.169E-02
DAV:  25    -0.295059346155E+03    0.80525E-06   -0.26694E-06 14712   0.213E-03    0.143E-02
DAV:  26    -0.295059346486E+03   -0.33073E-06   -0.12995E-05 15612   0.228E-03    0.144E-02
DAV:  27    -0.295059346175E+03    0.31049E-06   -0.75667E-06 14424   0.140E-03    0.897E-03
DAV:  28    -0.295059345972E+03    0.20364E-06   -0.20119E-07 11688   0.676E-04    0.643E-03
DAV:  29    -0.295059345863E+03    0.10925E-06   -0.20122E-06  9828   0.898E-04    0.486E-03
DAV:  30    -0.295059346010E+03   -0.14761E-06   -0.18215E-06  9048   0.800E-04    0.580E-03
DAV:  31    -0.295059345891E+03    0.11949E-06   -0.45582E-07  8916   0.438E-04    0.477E-04
DAV:  32    -0.295059345881E+03    0.92841E-08   -0.92368E-09  8676   0.187E-04
   1 F= -.29978982E+03 E0= -.29978982E+03  d E =0.000000E+00
