   32   32    1    1
  0.7533559E+01  0.4934311E-09  0.4934311E-09  0.1143376E-08  0.5000000E-15
  1.000000000000000E-004
  CAR 
 graphite                                
    128    163     84
 
  0.0000000E+00  0.0000000E+00  0.0000000E+00  0.3086420E-02
    1      -13.719794
    2      -13.297871
    3      -13.296616
    4      -12.791804
    5       -8.268336
    6       -8.265423
    7       -8.262507
    8       -8.039243
    9       -8.034901
   10       -8.034453
   11       -8.034090
   12       -8.033868
   13       -8.029366
   14       -7.923235
   15       -7.921838
   16       -7.920689
   17       -7.009857
   18       -7.008325
   19       -7.007971
   20       -6.991949
   21       -6.989334
   22       -6.988087
   23       -6.987807
   24       -6.987781
   25       -6.984026
   26       -6.769580
   27       -6.767602
   28       -6.765245
   29       -3.155687
   30       -1.344075
   31       -1.341055
   32       -0.249687
   33       -0.247054
   34       -0.245951
   35       -0.137857
   36       -0.135055
   37       -0.135007
   38       -0.133631
   39       -0.131866
   40       -0.130252
   41       -0.019498
   42       -0.016853
   43       -0.015631
   44        0.954162
   45        2.806641
   46        2.808825
   47        2.811128
   48        3.199495
   49        3.203606
   50        3.240051
   51        3.242767
   52        3.247576
   53        3.250516
   54        3.286782
   55        3.290954
   56        3.855147
   57        3.858889
   58        3.859249
   59        3.859391
   60        3.859902
   61        3.863679
   62        4.185399
   63        4.186640
   64        4.187209
   65        7.827289
   66        7.834391
   67        7.836114
   68        7.836299
   69        7.836998
   70        7.844146
   71        8.081713
   72        8.082747
   73        8.082996
   74        8.995416
   75        8.998012
   76        9.000362
   77       12.469192
   78       13.027401
   79       13.031587
   80       13.034725
   81       13.572151
   82       13.575238
   83       13.576997
   84       13.578049
 
  0.1111111E+00  0.1387779E-16  0.0000000E+00  0.6172840E-02
    1      -13.645139
    2      -13.224542
    3      -13.223292
    4      -12.720548
    5       -9.116241
    6       -8.791705
    7       -8.790708
    8       -8.550449
    9       -8.547630
   10       -8.428469
   11       -8.259994
   12       -8.257233
   13       -8.256520
   14       -8.254450
   15       -7.970924
   16       -7.968248
   17       -6.846404
   18       -6.845054
   19       -6.646864
   20       -6.646165
   21       -6.645162
   22       -6.642555
   23       -6.379959
   24       -6.359446
   25       -6.357599
   26       -6.124453
   27       -6.122204
   28       -5.821809
   29       -3.065290
   30       -1.258063
   31       -1.255049
   32       -0.483655
   33       -0.480778
   34       -0.362643
   35       -0.360403
   36       -0.357946
   37       -0.357313
   38       -0.233514
   39       -0.230643
   40       -0.174133
   41       -0.062743
   42       -0.059693
   43        0.054793
   44        1.033857
   45        2.146748
   46        2.665145
   47        2.667716
   48        2.886902
   49        2.941261
   50        2.947256
   51        3.001697
   52        3.037110
   53        3.087425
   54        3.093698
   55        3.144308
   56        3.437658
   57        3.440463
   58        3.804146
   59        3.808098
   60        3.808501
   61        3.809784
   62        4.356815
   63        4.358375
   64        4.433143
   65        7.961793
   66        7.964687
   67        7.965995
   68        7.972290
   69        8.028450
   70        8.029436
   71        8.048132
   72        8.365477
   73        8.371677
   74        9.135821
   75        9.138587
   76        9.666337
   77       12.546344
   78       13.076643
   79       13.369446
   80       13.375144
   81       13.617502
   82       13.619392
   83       13.907141
   84       13.912925
 
  0.2222222E+00  0.1387779E-16  0.0000000E+00  0.6172840E-02
    1      -13.421447
    2      -13.005015
    3      -13.003777
    4      -12.507136
    5      -10.147030
    6       -9.794109
    7       -9.793054
    8       -9.386578
    9       -8.915842
   10       -8.913568
   11       -8.596680
   12       -8.594518
   13       -8.593966
   14       -8.591993
   15       -8.239051
   16       -8.236701
   17       -6.204824
   18       -6.203107
   19       -5.956348
   20       -5.955592
   21       -5.954442
   22       -5.952136
   23       -5.663284
   24       -5.661365
   25       -5.050736
   26       -4.801058
   27       -4.798909
   28       -4.519955
   29       -2.794885
   30       -1.108132
   31       -1.105498
   32       -1.001300
   33       -0.998309
   34       -0.966386
   35       -0.964215
   36       -0.962109
   37       -0.961317
   38       -0.811801
   39       -0.809149
   40        0.041963
   41        0.151429
   42        0.154569
   43        0.267424
   44        1.058749
   45        1.271429
   46        2.035672
   47        2.120881
   48        2.126104
   49        2.212727
   50        2.399464
   51        2.401684
   52        2.558354
   53        2.560941
   54        2.603419
   55        2.671572
   56        2.677258
   57        2.746450
   58        3.684245
   59        3.688390
   60        3.689028
   61        3.690250
   62        4.216603
   63        4.685257
   64        4.687205
   65        7.994036
   66        7.995410
   67        8.291858
   68        8.294309
   69        8.295467
   70        8.301615
   71        8.802510
   72        9.401964
   73        9.404838
   74        9.573352
   75        9.578465
   76       10.859546
   77       12.779590
   78       13.211780
   79       13.742930
   80       13.744836
   81       14.279897
   82       14.308492
   83       14.315833
   84       14.488771
 
  0.3333333E+00  0.8326673E-16  0.0000000E+00  0.6172840E-02
    1      -13.049964
    2      -12.640365
    3      -12.639147
    4      -12.152489
    5      -11.074132
    6      -10.701916
    7      -10.700804
    8      -10.267212
    9       -9.179987
   10       -9.177938
   11       -8.849996
   12       -8.848019
   13       -8.847633
   14       -8.845642
   15       -8.473213
   16       -8.471086
   17       -5.388967
   18       -5.386977
   19       -5.151422
   20       -5.150607
   21       -5.149461
   22       -5.146832
   23       -4.885411
   24       -4.883256
   25       -3.597549
   26       -3.374186
   27       -3.371791
   28       -3.126503
   29       -2.346581
   30       -1.937117
   31       -1.934842
   32       -1.780467
   33       -1.778058
   34       -1.776673
   35       -1.775523
   36       -1.601686
   37       -1.599327
   38       -0.577204
   39       -0.574211
   40        0.000694
   41        0.392991
   42        0.499434
   43        0.502766
   44        0.612301
   45        0.821677
   46        0.944073
   47        0.948280
   48        1.072577
   49        1.615563
   50        1.618108
   51        1.661448
   52        2.028743
   53        2.111997
   54        2.116266
   55        2.174695
   56        2.176932
   57        2.202769
   58        3.560954
   59        3.564601
   60        3.565817
   61        3.566544
   62        3.568488
   63        4.953835
   64        4.956189
   65        8.084916
   66        8.087183
   67        8.677072
   68        8.678783
   69        8.679703
   70        8.685225
   71        9.611151
   72        9.614035
   73       10.212527
   74       11.029100
   75       11.033464
   76       12.183634
   77       13.165747
   78       13.424249
   79       13.944835
   80       13.946897
   81       14.321327
   82       14.373713
   83       14.405824
   84       14.411124
 
  0.4444444E+00  0.2775558E-16  0.0000000E+00  0.6172840E-02
    1      -12.532498
    2      -12.132472
    3      -12.131282
    4      -11.872190
    5      -11.658584
    6      -11.484484
    7      -11.483327
    8      -11.028371
    9       -9.315884
   10       -9.313925
   11       -8.981168
   12       -8.979231
   13       -8.978968
   14       -8.976940
   15       -8.597845
   16       -8.595809
   17       -4.602225
   18       -4.599994
   19       -4.418840
   20       -4.417907
   21       -4.417508
   22       -4.413416
   23       -4.240824
   24       -4.238449
   25       -2.652121
   26       -2.650441
   27       -2.542673
   28       -2.539475
   29       -2.539030
   30       -2.537604
   31       -2.377956
   32       -2.376056
   33       -2.092777
   34       -1.901731
   35       -1.898878
   36       -1.724990
   37       -1.690515
   38       -0.937653
   39       -0.593562
   40       -0.442522
   41       -0.439158
   42       -0.265981
   43        0.018287
   44        0.020787
   45        0.750476
   46        0.753160
   47        0.862790
   48        0.964285
   49        0.967899
   50        1.072319
   51        1.423555
   52        1.517720
   53        1.521992
   54        1.618410
   55        2.052399
   56        2.054786
   57        2.192969
   58        2.844117
   59        3.487663
   60        3.491992
   61        3.492791
   62        3.494236
   63        5.086521
   64        5.089154
   65        8.218183
   66        8.221171
   67        8.939501
   68        8.940212
   69        8.940650
   70        8.945903
   71        9.695583
   72        9.698355
   73       11.851214
   74       12.527752
   75       12.531601
   76       13.501018
   77       13.533225
   78       13.655510
   79       13.681249
   80       13.823860
   81       13.828378
   82       14.094084
   83       14.220834
   84       14.223743
 
 -0.8470329E-21  0.1111111E+00  0.0000000E+00  0.6172840E-02
    1      -13.645137
    2      -13.224540
    3      -13.223290
    4      -12.720546
    5       -9.116340
    6       -8.791839
    7       -8.790873
    8       -8.550432
    9       -8.547332
   10       -8.428673
   11       -8.259690
   12       -8.257227
   13       -8.256534
   14       -8.253862
   15       -7.970647
   16       -7.967956
   17       -6.847765
   18       -6.845316
   19       -6.649305
   20       -6.646695
   21       -6.645129
   22       -6.642424
   23       -6.378864
   24       -6.360732
   25       -6.357453
   26       -6.122623
   27       -6.121809
   28       -5.820757
   29       -3.065294
   30       -1.258069
   31       -1.255055
   32       -0.482067
   33       -0.480973
   34       -0.360618
   35       -0.360351
   36       -0.357414
   37       -0.357139
   38       -0.231920
   39       -0.230856
   40       -0.175455
   41       -0.062840
   42       -0.062423
   43        0.053302
   44        1.033849
   45        2.145829
   46        2.665540
   47        2.668659
   48        2.890171
   49        2.946714
   50        2.947243
   51        3.003808
   52        3.035008
   53        3.087440
   54        3.088189
   55        3.140915
   56        3.437260
   57        3.438655
   58        3.805188
   59        3.808084
   60        3.808492
   61        3.811617
   62        4.356896
   63        4.359025
   64        4.432039
   65        7.958864
   66        7.964132
   67        7.966110
   68        7.970769
   69        8.027197
   70        8.029190
   71        8.050200
   72        8.368248
   73        8.372959
   74        9.133902
   75        9.138100
   76        9.668162
   77       12.546320
   78       13.075917
   79       13.370972
   80       13.374397
   81       13.617065
   82       13.618435
   83       13.910073
   84       13.913096
 
  0.1111111E+00  0.1111111E+00  0.0000000E+00  0.6172840E-02
    1      -13.495953
    2      -13.078093
    3      -13.076851
    4      -12.578188
    5       -9.591536
    6       -9.588173
    7       -9.252747
    8       -9.249348
    9       -9.249276
   10       -9.245778
   11       -8.863063
   12       -8.859618
   13       -8.074614
   14       -7.848149
   15       -7.846393
   16       -7.734748
   17       -6.823212
   18       -6.806019
   19       -6.802010
   20       -6.592145
   21       -5.698795
   22       -5.695181
   23       -5.443965
   24       -5.439357
   25       -5.439317
   26       -5.436544
   27       -5.150331
   28       -5.146612
   29       -2.884870
   30       -1.182501
   31       -1.086646
   32       -1.083644
   33       -1.039220
   34       -1.036557
   35       -0.883510
   36       -0.337059
   37       -0.334138
   38       -0.216805
   39       -0.215218
   40       -0.215168
   41       -0.210693
   42       -0.090004
   43       -0.086841
   44        1.192482
   45        1.672469
   46        1.675119
   47        2.351045
   48        2.409473
   49        2.415331
   50        2.458667
   51        2.739057
   52        2.772800
   53        2.778883
   54        2.829224
   55        3.070194
   56        3.082404
   57        3.083879
   58        3.084227
   59        3.088325
   60        4.119711
   61        4.122733
   62        4.433455
   63        4.471068
   64        4.473319
   65        7.760260
   66        7.766869
   67        8.112287
   68        8.295104
   69        8.297874
   70        8.678494
   71        8.899769
   72        8.906044
   73        8.906862
   74        8.909291
   75       10.166087
   76       10.169265
   77       12.702453
   78       13.460260
   79       13.464778
   80       13.989930
   81       13.994009
   82       13.994127
   83       13.999214
   84       14.265296
 
  0.2222222E+00  0.1111111E+00  0.0000000E+00  0.6172840E-02
    1      -13.198357
    2      -12.785994
    3      -12.784769
    4      -12.294147
    5      -10.572686
    6      -10.210606
    7      -10.209523
    8       -9.937563
    9       -9.790244
   10       -9.588888
   11       -9.587839
   12       -9.187386
   13       -8.157188
   14       -7.874831
   15       -7.873641
   16       -7.596679
   17       -6.490906
   18       -6.303712
   19       -6.300539
   20       -6.034948
   21       -4.901936
   22       -4.660763
   23       -4.659941
   24       -4.392475
   25       -4.300292
   26       -4.065170
   27       -4.063042
   28       -3.803377
   29       -2.525477
   30       -2.107431
   31       -1.942800
   32       -1.940196
   33       -1.758152
   34       -0.878543
   35       -0.746032
   36       -0.743186
   37       -0.740291
   38       -0.739831
   39       -0.591754
   40       -0.046069
   41        0.070192
   42        0.073246
   43        0.194462
   44        0.582179
   45        1.312696
   46        1.373756
   47        1.462511
   48        1.468201
   49        1.506376
   50        1.549327
   51        2.143392
   52        2.145869
   53        2.173413
   54        2.231417
   55        2.237720
   56        2.307217
   57        2.799642
   58        2.801660
   59        3.179363
   60        3.971971
   61        4.319892
   62        4.322863
   63        4.449117
   64        4.857401
   65        7.766553
   66        7.772348
   67        7.891641
   68        8.599125
   69        8.729716
   70        9.440656
   71        9.467402
   72        9.470872
   73       10.255204
   74       10.259598
   75       10.549027
   76       11.426007
   77       13.017664
   78       13.638434
   79       14.157529
   80       14.159313
   81       14.442690
   82       14.641110
   83       14.655363
   84       14.693336
 
  0.3333333E+00  0.1111111E+00  0.0000000E+00  0.6172840E-02
    1      -12.753857
    2      -12.349701
    3      -12.348499
    4      -11.869874
    5      -11.435756
    6      -11.056438
    7      -11.055306
    8      -10.612067
    9      -10.148964
   10       -9.795551
   11       -9.794486
   12       -9.387266
   13       -8.316417
   14       -8.010590
   15       -8.009636
   16       -7.672164
   17       -5.750977
   18       -5.534665
   19       -5.531690
   20       -5.290628
   21       -4.077052
   22       -3.870887
   23       -3.869522
   24       -3.651596
   25       -3.039784
   26       -2.881720
   27       -2.878872
   28       -2.827581
   29       -2.685918
   30       -2.623264
   31       -2.620911
   32       -2.398354
   33       -1.990243
   34       -1.579172
   35       -1.442124
   36       -1.440726
   37       -1.280061
   38       -0.420944
   39       -0.244624
   40       -0.241478
   41        0.095444
   42        0.231436
   43        0.235912
   44        0.362861
   45        0.374652
   46        0.485057
   47        0.488237
   48        0.603886
   49        1.089124
   50        1.230537
   51        1.233139
   52        1.526723
   53        1.611279
   54        1.616601
   55        1.707740
   56        1.968051
   57        2.618529
   58        2.620724
   59        3.139665
   60        3.256604
   61        4.406240
   62        4.410484
   63        4.411838
   64        5.428939
   65        7.454924
   66        7.881871
   67        7.886238
   68        8.727451
   69        9.181888
   70        9.915742
   71        9.918349
   72       10.735164
   73       10.983834
   74       11.735598
   75       11.739249
   76       12.747254
   77       13.483216
   78       13.874599
   79       14.171715
   80       14.312860
   81       14.318655
   82       14.387897
   83       14.389983
   84       14.489730
 
  0.4444444E+00  0.1111111E+00  0.0000000E+00  0.6172840E-02
    1      -12.166586
    2      -12.163451
    3      -11.774540
    4      -11.771326
    5      -11.771178
    6      -11.767937
    7      -11.309435
    8      -11.306181
    9      -10.219936
   10       -9.865062
   11       -9.863991
   12       -9.454543
   13       -8.375573
   14       -8.064786
   15       -8.063858
   16       -7.716349
   17       -5.205950
   18       -5.049034
   19       -5.046305
   20       -4.919108
   21       -3.550889
   22       -3.476192
   23       -3.422709
   24       -3.419918
   25       -3.415387
   26       -3.411918
   27       -3.302894
   28       -3.282013
   29       -1.939790
   30       -1.881711
   31       -1.878155
   32       -1.757574
   33       -1.340932
   34       -1.337276
   35       -1.286534
   36       -1.283936
   37       -1.174205
   38       -1.167982
   39       -1.167905
   40       -1.167456
   41       -0.987921
   42       -0.984598
   43        0.424256
   44        0.427438
   45        0.428190
   46        0.432254
   47        0.906563
   48        0.911415
   49        1.007854
   50        1.010332
   51        1.010398
   52        1.011264
   53        1.022742
   54        1.117395
   55        1.123576
   56        2.555743
   57        2.558398
   58        2.561088
   59        2.564019
   60        3.113072
   61        4.388480
   62        4.431716
   63        4.433653
   64        5.738271
   65        7.207068
   66        7.947124
   67        7.949847
   68        8.783528
   69        9.391660
   70       10.091046
   71       10.093468
   72       10.767220
   73       12.617201
   74       12.620910
   75       13.176109
   76       13.182821
   77       13.184948
   78       13.186053
   79       13.989374
   80       13.992153
   81       14.058920
   82       14.062300
   83       14.314787
   84       14.317497
 
 -0.4444444E+00  0.1111111E+00  0.0000000E+00  0.6172840E-02
    1      -12.753937
    2      -12.349786
    3      -12.348584
    4      -11.869942
    5      -11.435619
    6      -11.056300
    7      -11.055168
    8      -10.611925
    9      -10.149340
   10       -9.795761
   11       -9.794696
   12       -9.387477
   13       -8.316059
   14       -8.010170
   15       -8.009265
   16       -7.671694
   17       -5.750492
   18       -5.533191
   19       -5.532102
   20       -5.290117
   21       -4.078050
   22       -3.872642
   23       -3.869595
   24       -3.652427
   25       -3.040726
   26       -2.881820
   27       -2.880825
   28       -2.827816
   29       -2.686980
   30       -2.623803
   31       -2.621053
   32       -2.398699
   33       -1.990347
   34       -1.578013
   35       -1.441900
   36       -1.438441
   37       -1.278768
   38       -0.420784
   39       -0.244717
   40       -0.241582
   41        0.095914
   42        0.232543
   43        0.235437
   44        0.363010
   45        0.375121
   46        0.485155
   47        0.488888
   48        0.604283
   49        1.088878
   50        1.230659
   51        1.233289
   52        1.526426
   53        1.611771
   54        1.615287
   55        1.707269
   56        1.967951
   57        2.618157
   58        2.620520
   59        3.140089
   60        3.256743
   61        4.406191
   62        4.411049
   63        4.412021
   64        5.430063
   65        7.454072
   66        7.882569
   67        7.885276
   68        8.727441
   69        9.181628
   70        9.915026
   71        9.918573
   72       10.735256
   73       10.983641
   74       11.735218
   75       11.739278
   76       12.747163
   77       13.483029
   78       13.874380
   79       14.171774
   80       14.313337
   81       14.318260
   82       14.387325
   83       14.390115
   84       14.489767
 
 -0.3333333E+00  0.1111111E+00  0.0000000E+00  0.6172840E-02
    1      -13.198417
    2      -12.786054
    3      -12.784828
    4      -12.294206
    5      -10.572519
    6      -10.210432
    7      -10.209350
    8       -9.937979
    9       -9.790081
   10       -9.589326
   11       -9.588281
   12       -9.187822
   13       -8.156373
   14       -7.873714
   15       -7.872907
   16       -7.595532
   17       -6.490892
   18       -6.302259
   19       -6.301546
   20       -6.034624
   21       -4.902856
   22       -4.662502
   23       -4.659981
   24       -4.393284
   25       -4.300656
   26       -4.065614
   27       -4.063258
   28       -3.803702
   29       -2.525553
   30       -2.108739
   31       -1.943100
   32       -1.942553
   33       -1.759488
   34       -0.876992
   35       -0.746104
   36       -0.743170
   37       -0.740012
   38       -0.737052
   39       -0.590169
   40       -0.045816
   41        0.070319
   42        0.073616
   43        0.194701
   44        0.582360
   45        1.312164
   46        1.374133
   47        1.464305
   48        1.466758
   49        1.506311
   50        1.549263
   51        2.143549
   52        2.146031
   53        2.173512
   54        2.232897
   55        2.235754
   56        2.306687
   57        2.798871
   58        2.801263
   59        3.180248
   60        3.972087
   61        4.321958
   62        4.322872
   63        4.448284
   64        4.858684
   65        7.767310
   66        7.771183
   67        7.890906
   68        8.598871
   69        8.729479
   70        9.440586
   71        9.466396
   72        9.471108
   73       10.254848
   74       10.259568
   75       10.549070
   76       11.425856
   77       13.017520
   78       13.638252
   79       14.157153
   80       14.159392
   81       14.446456
   82       14.644069
   83       14.656619
   84       14.690830
 
 -0.2222222E+00  0.1111111E+00  0.0000000E+00  0.6172840E-02
    1      -13.495989
    2      -13.078129
    3      -13.076887
    4      -12.578223
    5       -9.590472
    6       -9.589656
    7       -9.250557
    8       -9.249548
    9       -9.249504
   10       -9.248490
   11       -8.862054
   12       -8.861169
   13       -8.073088
   14       -7.845945
   15       -7.845406
   16       -7.733342
   17       -6.823046
   18       -6.804676
   19       -6.804283
   20       -6.592515
   21       -5.697770
   22       -5.697116
   23       -5.441761
   24       -5.440985
   25       -5.439547
   26       -5.438630
   27       -5.149290
   28       -5.148673
   29       -2.884915
   30       -1.183987
   31       -1.086693
   32       -1.083692
   33       -1.039624
   34       -1.039148
   35       -0.885018
   36       -0.334699
   37       -0.334614
   38       -0.215133
   39       -0.214942
   40       -0.212111
   41       -0.211941
   42       -0.087564
   43       -0.087526
   44        1.192434
   45        1.672651
   46        1.674331
   47        2.351176
   48        2.412088
   49        2.412210
   50        2.458033
   51        2.739783
   52        2.775981
   53        2.776110
   54        2.828949
   55        3.071465
   56        3.081947
   57        3.084083
   58        3.084291
   59        3.087064
   60        4.122203
   61        4.122832
   62        4.434607
   63        4.470449
   64        4.472844
   65        7.760955
   66        7.765647
   67        8.112372
   68        8.295311
   69        8.297483
   70        8.677672
   71        8.900574
   72        8.904369
   73        8.906188
   74        8.909982
   75       10.166710
   76       10.168560
   77       12.702359
   78       13.462824
   79       13.465822
   80       13.993579
   81       13.995584
   82       13.996513
   83       13.998613
   84       14.260942
 
 -0.1111111E+00  0.1111111E+00  0.0000000E+00  0.6172840E-02
    1      -13.645149
    2      -13.224552
    3      -13.223302
    4      -12.720558
    5       -9.117222
    6       -8.792750
    7       -8.791752
    8       -8.549494
    9       -8.546873
   10       -8.429653
   11       -8.258575
   12       -8.256418
   13       -8.256265
   14       -8.253194
   15       -7.969745
   16       -7.967320
   17       -6.847698
   18       -6.845602
   19       -6.648854
   20       -6.645411
   21       -6.645266
   22       -6.644357
   23       -6.379131
   24       -6.360311
   25       -6.358139
   26       -6.123903
   27       -6.121401
   28       -5.821197
   29       -3.065310
   30       -1.258084
   31       -1.255070
   32       -0.483609
   33       -0.480992
   34       -0.361681
   35       -0.360421
   36       -0.360367
   37       -0.356123
   38       -0.233580
   39       -0.230673
   40       -0.173852
   41       -0.062403
   42       -0.059544
   43        0.054970
   44        1.033833
   45        2.144784
   46        2.666420
   47        2.669163
   48        2.889446
   49        2.943750
   50        2.949623
   51        3.004152
   52        3.034692
   53        3.085225
   54        3.090963
   55        3.141593
   56        3.435584
   57        3.438119
   58        3.807034
   59        3.808068
   60        3.808460
   61        3.812553
   62        4.358010
   63        4.359119
   64        4.430709
   65        7.958009
   66        7.965721
   67        7.966472
   68        7.969353
   69        8.027331
   70        8.029025
   71        8.050191
   72        8.367414
   73        8.373670
   74        9.133944
   75        9.137370
   76        9.668431
   77       12.546287
   78       13.079710
   79       13.368592
   80       13.372863
   81       13.620457
   82       13.622495
   83       13.907587
   84       13.914011
 
 -0.3388132E-20  0.2222222E+00  0.0000000E+00  0.6172840E-02
    1      -13.421439
    2      -13.005006
    3      -13.003768
    4      -12.507126
    5      -10.147007
    6       -9.794093
    7       -9.793039
    8       -9.386576
    9       -8.916265
   10       -8.913066
   11       -8.597389
   12       -8.594531
   13       -8.593986
   14       -8.590979
   15       -8.239345
   16       -8.236183
   17       -6.206296
   18       -6.203006
   19       -5.958982
   20       -5.956124
   21       -5.954425
   22       -5.951468
   23       -5.664731
   24       -5.661094
   25       -5.049672
   26       -4.799330
   27       -4.798559
   28       -4.518919
   29       -2.794905
   30       -1.106981
   31       -1.105185
   32       -1.001322
   33       -0.998327
   34       -0.964937
   35       -0.964214
   36       -0.961387
   37       -0.960572
   38       -0.810636
   39       -0.808838
   40        0.040539
   41        0.151310
   42        0.151694
   43        0.265850
   44        1.058258
   45        1.271381
   46        2.038402
   47        2.125893
   48        2.126158
   49        2.215094
   50        2.399424
   51        2.402807
   52        2.557973
   53        2.560053
   54        2.601042
   55        2.671561
   56        2.671950
   57        2.743446
   58        3.685004
   59        3.688331
   60        3.688862
   61        3.692321
   62        4.215608
   63        4.685595
   64        4.688030
   65        7.992465
   66        7.994812
   67        8.288921
   68        8.293795
   69        8.295487
   70        8.300309
   71        8.804500
   72        9.399807
   73        9.404827
   74        9.575396
   75        9.579480
   76       10.860850
   77       12.779515
   78       13.211012
   79       13.742466
   80       13.743735
   81       14.279212
   82       14.309118
   83       14.321081
   84       14.506364
 
  0.1111111E+00  0.2222222E+00  0.0000000E+00  0.6172840E-02
    1      -13.198351
    2      -12.785988
    3      -12.784762
    4      -12.294139
    5      -10.572642
    6      -10.210563
    7      -10.209481
    8       -9.937597
    9       -9.790203
   10       -9.588914
   11       -9.587870
   12       -9.187406
   13       -8.157176
   14       -7.874804
   15       -7.873638
   16       -7.596665
   17       -6.490970
   18       -6.303711
   19       -6.300736
   20       -6.035080
   21       -4.903090
   22       -4.662547
   23       -4.660446
   24       -4.393633
   25       -4.299151
   26       -4.063357
   27       -4.062573
   28       -3.802218
   29       -2.525493
   30       -2.107316
   31       -1.942617
   32       -1.940195
   33       -1.758079
   34       -0.877060
   35       -0.746031
   36       -0.743094
   37       -0.739997
   38       -0.737241
   39       -0.590211
   40       -0.047602
   41        0.069920
   42        0.070346
   43        0.192816
   44        0.581774
   45        1.313235
   46        1.375317
   47        1.464971
   48        1.468195
   49        1.506356