   32   32    1    1
  0.5760957E+01  0.4934311E-09  0.4934311E-09  0.8743465E-09  0.5000000E-15
  1.000000000000000E-004
  CAR 
 graphite                                
    128    163     84
 
  0.0000000E+00  0.0000000E+00  0.0000000E+00  0.3086420E-02
    1      -12.075797
    2      -10.668499
    3      -10.664118
    4       -8.154941
    5       -6.402589
    6       -6.399315
    7       -6.395886
    8       -5.578467
    9       -5.576747
   10       -5.574342
   11       -5.249847
   12       -5.244962
   13       -5.243431
   14       -5.243201
   15       -5.241668
   16       -5.236677
   17       -4.202971
   18       -4.198113
   19       -4.197049
   20       -4.196384
   21       -4.195999
   22       -4.190744
   23       -2.914180
   24       -2.911231
   25       -2.907819
   26       -2.645444
   27       -2.642929
   28       -2.640081
   29       -2.173074
   30        2.254786
   31        2.257582
   32        2.258829
   33        2.938690
   34        2.940608
   35        2.943037
   36        2.943823
   37        2.944772
   38        2.945524
   39        2.946970
   40        2.949776
   41        3.730779
   42        3.734229
   43        3.735344
   44        3.777266
   45        3.780203
   46        3.782534
   47        6.037879
   48        6.043499
   49        6.361547
   50        6.366170
   51        6.370998
   52        6.375819
   53        6.519783
   54        6.521083
   55        6.523373
   56        6.683848
   57        6.689109
   58        7.668563
   59        7.672112
   60        7.673615
   61        7.673923
   62        7.675529
   63        7.679177
   64        8.528799
   65       11.176311
   66       11.186683
   67       11.187985
   68       11.188869
   69       11.189723
   70       11.200036
   71       13.557013
   72       13.559479
   73       13.561974
   74       14.537662
   75       14.542565
   76       14.545915
   77       14.683121
   78       14.684199
   79       14.685475
   80       16.706111
   81       16.710684
   82       16.713709
   83       16.715096
   84       16.718922
 
  0.1111111E+00 -0.1387779E-16  0.0000000E+00  0.6172840E-02
    1      -11.998399
    2      -10.593057
    3      -10.588682
    4       -8.087443
    5       -7.279745
    6       -6.685419
    7       -6.682043
    8       -6.031129
    9       -6.027321
   10       -5.481155
   11       -5.477530
   12       -5.475989
   13       -5.472950
   14       -5.180355
   15       -5.178209
   16       -4.710594
   17       -3.841662
   18       -3.840080
   19       -3.838678
   20       -3.834631
   21       -3.702975
   22       -3.302908
   23       -3.298665
   24       -3.267518
   25       -3.265258
   26       -2.165446
   27       -2.163188
   28       -2.081752
   29       -1.619452
   30        1.990974
   31        1.993891
   32        2.333450
   33        2.696001
   34        2.699757
   35        2.702038
   36        2.703104
   37        3.016103
   38        3.016739
   39        3.020221
   40        3.022142
   41        3.172736
   42        3.541834
   43        3.544983
   44        3.659101
   45        3.662209
   46        3.804492
   47        5.660048
   48        5.832030
   49        6.055599
   50        6.062957
   51        6.207455
   52        6.215154
   53        6.456798
   54        6.592464
   55        6.781273
   56        6.783759
   57        7.211188
   58        7.301592
   59        7.305505
   60        7.625962
   61        7.630161
   62        7.631728
   63        7.633779
   64        8.589116
   65       11.310765
   66       11.314695
   67       11.316762
   68       11.325783
   69       11.620715
   70       11.628795
   71       13.154815
   72       13.225724
   73       13.228315
   74       14.601719
   75       14.829245
   76       14.831199
   77       14.931148
   78       14.937378
   79       15.191338
   80       16.797787
   81       16.800873
   82       17.031144
   83       17.038253
   84       17.058782
 
  0.2222222E+00 -0.1387779E-16  0.0000000E+00  0.6172840E-02
    1      -11.766435
    2      -10.367102
    3      -10.362749
    4       -8.359243
    5       -7.885512
    6       -7.069644
    7       -7.066696
    8       -7.062803
    9       -7.059211
   10       -5.830053
   11       -5.827105
   12       -5.825247
   13       -5.822690
   14       -4.974697
   15       -4.521358
   16       -4.519237
   17       -3.525960
   18       -3.524640
   19       -3.126013
   20       -3.124062
   21       -3.122483
   22       -3.119083
   23       -2.956419
   24       -1.941977
   25       -1.937910
   26       -1.809023
   27       -1.500612
   28       -1.498116
   29       -0.378214
   30        1.311485
   31        1.314064
   32        2.046859
   33        2.051184
   34        2.053026
   35        2.054466
   36        2.089323
   37        2.557756
   38        3.021180
   39        3.024186
   40        3.232254
   41        3.236305
   42        3.241454
   43        3.246587
   44        3.415493
   45        3.418649
   46        4.009532
   47        4.670984
   48        5.219897
   49        5.226342
   50        5.315452
   51        5.783596
   52        5.787206
   53        5.793051
   54        6.286453
   55        6.518024
   56        6.521445
   57        7.447502
   58        7.450065
   59        7.526727
   60        7.531234
   61        7.533748
   62        7.535280
   63        8.465672
   64        8.765985
   65       11.620781
   66       11.624206
   67       11.625962
   68       11.634085
   69       12.482571
   70       12.484751
   71       12.590924
   72       12.596614
   73       12.654782
   74       14.781358
   75       15.029883
   76       15.031870
   77       16.003806
   78       16.009624
   79       16.078111
   80       16.896188
   81       17.060632
   82       17.063433
   83       17.085314
   84       17.092813
 
  0.3333333E+00 -0.2775558E-16  0.0000000E+00  0.6172840E-02
    1      -11.380984
    2       -9.991816
    3       -9.987500
    4       -9.326454
    5       -7.997716
    6       -7.993602
    7       -7.550183
    8       -7.346194
    9       -7.343720
   10       -6.091124
   11       -6.088436
   12       -6.086437
   13       -6.084062
   14       -5.775384
   15       -4.214265
   16       -4.211880
   17       -3.191252
   18       -3.189594
   19       -2.290061
   20       -2.288050
   21       -2.286477
   22       -2.283042
   23       -1.452498
   24       -1.356748
   25       -0.908351
   26       -0.905609
   27       -0.477382
   28       -0.473353
   29        0.549396
   30        0.551372
   31        0.928972
   32        1.017275
   33        1.181322
   34        1.184849
   35        1.186119
   36        1.187958
   37        2.287379
   38        2.290133
   39        2.923610
   40        3.195616
   41        3.198524
   42        3.309728
   43        3.523477
   44        3.528370
   45        3.583391
   46        3.588053
   47        4.113906
   48        4.118245
   49        4.340498
   50        4.669398
   51        4.783399
   52        5.215088
   53        5.221319
   54        5.670373
   55        5.674101
   56        5.819333
   57        7.425886
   58        7.430851
   59        7.433913
   60        7.435280
   61        8.350188
   62        8.352951
   63        9.042794
   64        9.451297
   65       11.536433
   66       11.538628
   67       11.959377
   68       11.961829
   69       11.963124
   70       11.970344
   71       12.672476
   72       13.701717
   73       13.705466
   74       15.074526
   75       15.145583
   76       15.147339
   77       16.447734
   78       16.490009
   79       16.495747
   80       16.618572
   81       17.059556
   82       17.501561
   83       17.519200
   84       17.545070
 
  0.4444444E+00 -0.2775558E-16  0.0000000E+00  0.6172840E-02
    1      -10.843611
    2      -10.157237
    3       -9.469378
    4       -9.465112
    5       -8.802763
    6       -8.798563
    7       -7.488204
    8       -7.485823
    9       -7.083479
   10       -6.489291
   11       -6.226495
   12       -6.223928
   13       -6.221874
   14       -6.219540
   15       -4.245629
   16       -4.243199
   17       -2.405715
   18       -2.403065
   19       -1.519460
   20       -1.518018
   21       -1.516613
   22       -1.512157
   23       -1.082287
   24       -1.079916
   25       -0.728929
   26        0.067154
   27        0.145861
   28        0.368899
   29        0.372447
   30        0.374006
   31        0.375467
   32        0.569989
   33        0.572149
   34        1.031173
   35        1.035394
   36        1.500949
   37        1.503422
   38        1.760723
   39        2.262882
   40        2.516606
   41        2.521183
   42        3.072993
   43        3.075754
   44        3.416894
   45        3.572335
   46        4.012419
   47        4.052956
   48        4.058326
   49        4.238692
   50        4.242813
   51        4.612626
   52        4.618068
   53        4.778217
   54        4.890465
   55        4.894526
   56        5.289255
   57        7.365488
   58        7.370610
   59        7.373911
   60        7.375342
   61        9.374928
   62        9.376501
   63        9.379017
   64        9.641543
   65       10.488532
   66       10.490736
   67       12.177483
   68       12.178777
   69       12.179481
   70       12.186036
   71       13.636850
   72       14.768940
   73       14.772352
   74       15.118843
   75       15.189150
   76       15.190734
   77       15.469374
   78       15.708159
   79       15.712492
   80       15.942534
   81       18.085024
   82       18.088596
   83       18.097288
   84       18.739333
 
  0.1694066E-20  0.1111111E+00  0.0000000E+00  0.6172840E-02
    1      -11.998397
    2      -10.593055
    3      -10.588680
    4       -8.087437
    5       -7.279833
    6       -6.685448
    7       -6.681732
    8       -6.031286
    9       -6.027486
   10       -5.480800
   11       -5.477260
   12       -5.476055
   13       -5.472466
   14       -5.181250
   15       -5.177849
   16       -4.710849
   17       -3.844289
   18       -3.840332
   19       -3.838792
   20       -3.834785
   21       -3.701438
   22       -3.301145
   23       -3.297865
   24       -3.268907
   25       -3.264866
   26       -2.167258
   27       -2.162677
   28       -2.081759
   29       -1.618296
   30        1.992607
   31        1.993929
   32        2.331811
   33        2.698147
   34        2.699642
   35        2.702539
   36        2.703982
   37        3.014998
   38        3.016278
   39        3.018229
   40        3.022239
   41        3.171593
   42        3.543616
   43        3.545021
   44        3.659582
   45        3.663291
   46        3.802618
   47        5.663736
   48        5.828259
   49        6.062488
   50        6.063265
   51        6.207251
   52        6.208074
   53        6.460421
   54        6.588799
   55        6.780793
   56        6.783012
   57        7.211876
   58        7.301225
   59        7.303395
   60        7.626930
   61        7.630210
   62        7.632036
   63        7.635545
   64        8.589094
   65       11.307254
   66       11.314633
   67       11.316834
   68       11.323974
   69       11.623742
   70       11.630304
   71       13.156694
   72       13.224207
   73       13.228259
   74       14.600777
   75       14.828506
   76       14.831620
   77       14.933142
   78       14.936386
   79       15.191508
   80       16.797590
   81       16.800504
   82       17.034577
   83       17.038570
   84       17.124026
 
  0.1111111E+00  0.1111111E+00  0.0000000E+00  0.6172840E-02
    1      -11.843702
    2      -10.442316
    3      -10.437956
    4       -7.952744
    5       -7.778073
    6       -7.774005
    7       -6.506680
    8       -6.501784
    9       -6.501059
   10       -6.496584
   11       -6.198333
   12       -5.368566
   13       -5.053061
   14       -5.049585
   15       -4.578691
   16       -4.575540
   17       -4.005710
   18       -4.000822
   19       -3.535479
   20       -3.532120
   21       -2.740035
   22       -2.601841
   23       -2.595770
   24       -2.595462
   25       -2.591733
   26       -2.505317
   27       -1.899772
   28       -0.983782
   29       -0.979111
   30        1.226302
   31        1.974365
   32        1.978407
   33        2.145650
   34        2.149114
   35        2.703554
   36        2.707014
   37        2.843883
   38        2.845500
   39        2.846203
   40        2.851718
   41        2.953853
   42        3.167904
   43        3.173048
   44        3.679924
   45        3.683717
   46        4.018481
   47        5.050548
   48        5.362992
   49        5.514350
   50        5.521373
   51        5.884573
   52        5.892128
   53        6.101400
   54        6.329107
   55        6.762197
   56        6.987881
   57        6.989539
   58        6.991083
   59        6.995942
   60        7.885876
   61        7.888474
   62        7.909023
   63        7.913301
   64        8.707816
   65       11.178460
   66       11.187984
   67       12.079506
   68       12.087063
   69       12.088585
   70       12.090574
   71       12.677324
   72       12.743228
   73       12.746135
   74       14.759373
   75       15.050071
   76       15.055549
   77       15.520304
   78       15.523164
   79       15.949072
   80       17.173201
   81       17.202046
   82       17.203793
   83       17.222425
   84       17.266428
 
  0.2222222E+00  0.1111111E+00  0.0000000E+00  0.6172840E-02
    1      -11.534985
    2      -10.141700
    3      -10.137369
    4       -8.803548
    5       -8.139916
    6       -7.684111
    7       -7.492135
    8       -7.488084
    9       -6.852223
   10       -6.848261
   11       -6.271280
   12       -5.333671
   13       -5.084762
   14       -5.081174
   15       -4.789580
   16       -4.780041
   17       -3.478989
   18       -3.474401
   19       -2.944932
   20       -2.785739
   21       -2.184368
   22       -1.934342
   23       -1.792328
   24       -1.789169
   25       -1.537248
   26       -1.184738
   27       -1.180844
   28       -0.321393
   29        0.278665
   30        0.281019
   31        1.017077
   32        1.021108
   33        1.581144
   34        1.606285
   35        2.146330
   36        2.276189
   37        2.278529
   38        2.341001
   39        2.456928
   40        3.133564
   41        3.137736
   42        3.228779
   43        3.447583
   44        3.452720
   45        3.951913
   46        3.953323
   47        4.134120
   48        4.571822
   49        4.578718
   50        4.638445
   51        5.330102
   52        5.337640
   53        5.386108
   54        5.884141
   55        6.148571
   56        6.151977
   57        6.742499
   58        6.745189
   59        7.254769
   60        8.094473
   61        8.098762
   62        8.704933
   63        8.936044
   64        9.099513
   65       11.193427
   66       11.201918
   67       11.683044
   68       12.164198
   69       12.456492
   70       12.592081
   71       12.596688
   72       13.159796
   73       13.164143
   74       14.873018
   75       15.289373
   76       15.661972
   77       16.181446
   78       16.411162
   79       16.872183
   80       16.879307
   81       16.985059
   82       17.119583
   83       17.432953
   84       17.539261
 
  0.3333333E+00  0.1111111E+00  0.0000000E+00  0.6172840E-02
    1      -11.073556
    2       -9.703640
    3       -9.692546
    4       -9.688234
    5       -8.364156
    6       -8.360229
    7       -8.357011
    8       -7.283026
    9       -7.064847
   10       -7.060853
   11       -6.438265
   12       -6.097832
   13       -5.226589
   14       -5.222908
   15       -4.957595
   16       -3.955530
   17       -3.093883
   18       -2.673063
   19       -2.668615
   20       -1.902119
   21       -1.601734
   22       -0.997506
   23       -0.969734
   24       -0.966422
   25       -0.630301
   26       -0.286110
   27       -0.024385
   28        0.024643
   29        0.028814
   30        0.294802
   31        0.298711
   32        0.590082
   33        1.197950
   34        1.250834
   35        1.524399
   36        1.527190
   37        1.569999
   38        2.113475
   39        2.531643
   40        2.573819
   41        2.918297
   42        3.159306
   43        3.164780
   44        3.552210
   45        3.556503
   46        3.827107
   47        4.048673
   48        4.052474
   49        4.113528
   50        4.341265
   51        4.424370
   52        4.700749
   53        4.707407
   54        5.326875
   55        5.330699
   56        5.359327
   57        6.585990
   58        6.588912
   59        8.117863
   60        8.184786
   61        8.188172
   62        9.248035
   63        9.576654
   64        9.692708
   65       10.538832
   66       11.276634
   67       11.282817
   68       11.463986
   69       12.957661
   70       12.991353
   71       12.995136
   72       14.277139
   73       14.280206
   74       14.976295
   75       15.631875
   76       15.666990
   77       15.760155
   78       16.190998
   79       16.196432
   80       16.541432
   81       17.387284
   82       17.770996
   83       18.016390
   84       18.020030
 
  0.4444444E+00  0.1111111E+00  0.0000000E+00  0.6172840E-02
    1      -10.463636
    2      -10.459841
    3       -9.101143
    4       -9.096720
    5       -9.095902
    6       -9.091158
    7       -8.434790
    8       -7.136172
    9       -7.132168
   10       -6.754498
   11       -6.750598
   12       -6.500888
   13       -5.282809
   14       -5.279102
   15       -5.017142
   16       -3.537018
   17       -3.012344
   18       -2.153378
   19       -2.149611
   20       -1.927881
   21       -1.279720
   22       -0.555867
   23       -0.552166
   24       -0.486941
   25       -0.482686
   26       -0.394980
   27       -0.286276
   28       -0.282592
   29        0.056460
   30        0.574810
   31        0.965195
   32        0.969328
   33        1.051581
   34        1.056060
   35        1.505447
   36        1.775979
   37        1.783543
   38        1.784385
   39        1.784751
   40        2.036097
   41        2.041650
   42        2.804526
   43        2.808871
   44        3.548319
   45        3.554313
   46        4.077205
   47        4.079317
   48        4.079546
   49        4.084846
   50        4.098620
   51        4.605693
   52        4.609568
   53        4.612507
   54        4.617664
   55        4.820557
   56        4.827464
   57        6.532413
   58        6.535504
   59        8.209764
   60        8.212226
   61        8.902980
   62        9.573417
   63        9.576095
   64        9.664744
   65       10.201990
   66       10.901400
   67       11.321548
   68       11.325525
   69       13.143467
   70       13.147220
   71       14.256796
   72       14.261189
   73       15.013782
   74       15.304973
   75       15.309909
   76       15.312918
   77       15.315475
   78       15.650840
   79       16.060001
   80       16.064069
   81       18.429784
   82       18.444574
   83       18.573869
   84       18.576808
 
 -0.4444444E+00  0.1111111E+00  0.0000000E+00  0.6172840E-02
    1      -11.073641
    2       -9.703513
    3       -9.692627
    4       -9.688313
    5       -8.362711
    6       -8.360771
    7       -8.357852
    8       -7.283122
    9       -7.065126
   10       -7.061131
   11       -6.437943
   12       -6.097714
   13       -5.226164
   14       -5.222501
   15       -4.957865
   16       -3.953903
   17       -3.095057
   18       -2.671955
   19       -2.668938
   20       -1.902886
   21       -1.601621
   22       -0.997611
   23       -0.971311
   24       -0.966488
   25       -0.630679
   26       -0.286314
   27       -0.024257
   28        0.024585
   29        0.027219
   30        0.294236
   31        0.298493
   32        0.590255
   33        1.198241
   34        1.250003
   35        1.524474
   36        1.529270
   37        1.569451
   38        2.113172
   39        2.531912
   40        2.574969
   41        2.918941
   42        3.160555
   43        3.164425
   44        3.552318
   45        3.557177
   46        3.827505
   47        4.048604
   48        4.052372
   49        4.113967
   50        4.341650
   51        4.423755
   52        4.701128
   53        4.705895
   54        5.326958
   55        5.330828
   56        5.358884
   57        6.585552
   58        6.588760
   59        8.119201
   60        8.186135
   61        8.188072
   62        9.247912
   63        9.574730
   64        9.692701
   65       10.537093
   66       11.276999
   67       11.281419
   68       11.465976
   69       12.957672
   70       12.991030
   71       12.995877
   72       14.276550
   73       14.280396
   74       14.976470
   75       15.631560
   76       15.666951
   77       15.760292
   78       16.191661
   79       16.195812
   80       16.541624
   81       17.387256
   82       17.774430
   83       18.015948
   84       18.019785
 
 -0.3333333E+00  0.1111111E+00  0.0000000E+00  0.6172840E-02
    1      -11.535045
    2      -10.141760
    3      -10.137428
    4       -8.803384
    5       -8.140319
    6       -7.684159
    7       -7.491980
    8       -7.487927
    9       -6.852645
   10       -6.848682
   11       -6.270516
   12       -5.333548
   13       -5.083690
   14       -5.080252
   15       -4.790227
   16       -4.778966
   17       -3.478099
   18       -3.475190
   19       -2.945382
   20       -2.786249
   21       -2.184663
   22       -1.933977
   23       -1.793615
   24       -1.789431
   25       -1.537330
   26       -1.185146
   27       -1.181102
   28       -0.321982
   29        0.277833
   30        0.280405
   31        1.016698
   32        1.019278
   33        1.582451
   34        1.606515
   35        2.145339
   36        2.276549
   37        2.280852
   38        2.340387
   39        2.457344
   40        3.133740
   41        3.138252
   42        3.229829
   43        3.447530
   44        3.452634
   45        3.951106
   46        3.954818
   47        4.135165
   48        4.574179
   49        4.577445
   50        4.638255
   51        5.331485
   52        5.335103
   53        5.385953
   54        5.883661
   55        6.148632
   56        6.152199
   57        6.741550
   58        6.744862
   59        7.255750
   60        8.096802
   61        8.098828
   62        8.703144
   63        8.935949
   64        9.099307
   65       11.193509
   66       11.199946
   67       11.681092
   68       12.166081
   69       12.456670
   70       12.591854
   71       12.597962
   72       13.159293
   73       13.164222
   74       14.873325
   75       15.289130
   76       15.662002
   77       16.184938
   78       16.411024
   79       16.873153
   80       16.877613
   81       16.984538
   82       17.119215
   83       17.429232
   84       17.536672
 
 -0.2222222E+00  0.1111111E+00  0.0000000E+00  0.6172840E-02
    1      -11.843739
    2      -10.442352
    3      -10.437992
    4       -7.952795
    5       -7.776640
    6       -7.775850
    7       -6.505000
    8       -6.502444
    9       -6.501062
   10       -6.498566
   11       -6.196917
   12       -5.368156
   13       -5.051043
   14       -5.048186
   15       -4.578631
   16       -4.576740
   17       -4.004957
   18       -4.002787
   19       -3.534910
   20       -3.532706
   21       -2.739245
   22       -2.599973
   23       -2.597425
   24       -2.595871
   25       -2.593295
   26       -2.505890
   27       -1.899821
   28       -0.982423
   29       -0.981310
   30        1.225060
   31        1.973949
   32        1.976352
   33        2.147998
   34        2.148519
   35        2.703952
   36        2.705893
   37        2.844957
   38        2.846008
   39        2.849115
   40        2.850303
   41        2.952798
   42        3.167869
   43        3.172997
   44        3.682060
   45        3.682885
   46        4.019928
   47        5.050945
   48        5.362610
   49        5.518013
   50        5.518604
   51        5.887545
   52        5.888133
   53        6.101734
   54        6.328604
   55        6.762910
   56        6.987032
   57        6.990498
   58        6.990893
   59        6.994417
   60        7.885911
   61        7.886931
   62        7.911432
   63        7.913624
   64        8.707754
   65       11.178230
   66       11.185821
   67       12.080743
   68       12.085649
   69       12.087875
   70       12.092599
   71       12.675365
   72       12.744056
   73       12.747325
   74       14.759717
   75       15.053171
   76       15.055819
   77       15.521390
   78       15.521976
   79       15.945252
   80       17.175670
   81       17.203081
   82       17.205874
   83       17.223006
   84       17.260507
 
 -0.1111111E+00  0.1111111E+00  0.0000000E+00  0.6172840E-02
    1      -11.998409
    2      -10.593066
    3      -10.588692
    4       -8.087450
    5       -7.280685
    6       -6.684526
    7       -6.681294
    8       -6.032230
    9       -6.028419
   10       -5.479786
   11       -5.476812
   12       -5.475267
   13       -5.471726
   14       -5.180226
   15       -5.178258
   16       -4.712284
   17       -3.844144
   18       -3.839592
   19       -3.838454
   20       -3.836802
   21       -3.700997
   22       -3.301872
   23       -3.297773
   24       -3.267892
   25       -3.265416
   26       -2.166382
   27       -2.163841
   28       -2.081775
   29       -1.618579
   30        1.991164
   31        1.994092
   32        2.333260
   33        2.697755
   34        2.699180
   35        2.699930
   36        2.704991
   37        3.015478
   38        3.016941
   39        3.019908
   40        3.022025
   41        3.170418
   42        3.541965
   43        3.545559
   44        3.660571
   45        3.663882
   46        3.803806
   47        5.663846
   48        5.828113
   49        6.059416
   50        6.066894
   51        6.203667
   52        6.211039
   53        6.460731
   54        6.588491
   55        6.780895
   56        6.783574
   57        7.210673
   58        7.299313
   59        7.302957
   60        7.628613
   61        7.630528
   62        7.632103
   63        7.636479
   64        8.589073
   65       11.305942
   66       11.315607
   67       11.317278
   68       11.321310
   69       11.623978
   70       11.632121
   71       13.158241
   72       13.224196
   73       13.226698
   74       14.604412
   75       14.829090
   76       14.831028
   77       14.930305
   78       14.935436
   79       15.191626
   80       16.799988
   81       16.803478
   82       17.031632
   83       17.037204
   84       17.104006
 
  0.1694066E-20  0.2222222E+00  0.0000000E+00  0.6172840E-02
    1      -11.766427
    2      -10.367093
    3      -10.362740
    4       -8.359207
    5       -7.885508
    6       -7.070718
    7       -7.066538
    8       -7.062592
    9       -7.058427
   10       -5.830714
   11       -5.826826
   12       -5.825583
   13       -5.821631
   14       -4.974843
   15       -4.521745
   16       -4.518617
   17       -3.527789
   18       -3.524470
   19       -3.128739
   20       -3.124460
   21       -3.122809
   22       -3.118537
   23       -2.954895
   24       -1.940377
   25       -1.937160
   26       -1.809047
   27       -1.502567
   28       -1.497716
   29       -0.376940
   30        1.312702
   31        1.314842
   32        2.048586
   33        2.051163
   34        2.053711
   35        2.055487
   36        2.088841
   37        2.556048
   38        3.022436
   39        3.024723
   40        3.231350
   41        3.233415
   42        3.241489
   43        3.246587
   44        3.415626
   45        3.419863
   46        4.007554
   47        4.674079
   48        5.225433
   49        5.226799
   50        5.312550
   51        5.780921
   52        5.783780
   53        5.795743
   54        6.282983
   55        6.517661
   56        6.520501
   57        7.446545
   58        7.449882
   59        7.527576
   60        7.531106
   61        7.533590
   62        7.537520
   63        8.465333
   64        8.765889
   65       11.617328
   66       11.624116
   67       11.625974
   68       11.632606
   69       12.481357
   70       12.485066
   71       12.593131
   72       12.597605
   73       12.656838
   74       14.780363
   75       15.028748
   76       15.032363
   77       16.005292
   78       16.009355
   79       16.078257
   80       16.893172
   81       17.060314
   82       17.062985
   83       17.083933
   84       17.088218
 
  0.1111111E+00  0.2222222E+00  0.0000000E+00  0.6172840E-02
    1      -11.534979
    2      -10.141693
    3      -10.137361
    4       -8.803497
    5       -8.139966
    6       -7.684071
    7       -7.492110
    8       -7.488063
    9       -6.852244
   10       -6.848280
   11       -6.271278
   12       -5.333706
   13       -5.084725
   14       -5.081145
   15       -4.789200
   16       -4.780293
   17       -3.479020
   18       -3.474616
   19       -2.944741
   20       -2.787368
   21       -2.182932
   22       -1.934866
   23       -1.793980
   24       -1.790112
   25       -1.537266
   26       -1.183033
   27       -1.179922
   28       -0.322973
   29        0.280163
   30        0.281430
   31        1.017271
   32        1.021136
   33        1.583063
   34        1.605847
   35        2.146372
   36        2.277198
   37        2.281153
   38        2.341638
   39        2.454974
   40        3.132658
   41        3.134795
   42        3.230647
   43        3.447570
   44        3.452698
   45        3.949523
   46        3.955640
   47        4.134324
   48        4.574632
   49        4.578805