       N       E                     dE             d eps       ncg     rms          rms(c)
DAV:   1     0.462595640164E+03    0.46260E+03   -0.76266E+04 27384   0.168E+03
DAV:   2    -0.250165592770E+03   -0.71276E+03   -0.68291E+03 34236   0.304E+02
DAV:   3    -0.286250160857E+03   -0.36085E+02   -0.35580E+02 33612   0.641E+01
DAV:   4    -0.286812339538E+03   -0.56218E+00   -0.56050E+00 33132   0.869E+00
DAV:   5    -0.286824743843E+03   -0.12404E-01   -0.12398E-01 33360   0.119E+00    0.219E+01
DAV:   6    -0.275501445659E+03    0.11323E+02   -0.97248E+00 31092   0.983E+00    0.116E+01
DAV:   7    -0.271888468057E+03    0.36130E+01   -0.96646E+00 29520   0.100E+01    0.156E+00
DAV:   8    -0.271914703537E+03   -0.26235E-01   -0.23047E-01 32112   0.155E+00    0.485E-01
DAV:   9    -0.271916848585E+03   -0.21450E-02   -0.91619E-03 33348   0.325E-01    0.118E-01
DAV:  10    -0.271916859534E+03   -0.10949E-04   -0.10951E-03 33504   0.988E-02    0.487E-02
DAV:  11    -0.271916944986E+03   -0.85453E-04   -0.33129E-04 33072   0.535E-02    0.356E-02
DAV:  12    -0.271916953600E+03   -0.86139E-05   -0.11633E-04 33204   0.289E-02    0.134E-02
DAV:  13    -0.271916965503E+03   -0.11903E-04   -0.33894E-05 35184   0.196E-02    0.103E-02
DAV:  14    -0.271916965607E+03   -0.10393E-06   -0.17472E-05 28512   0.917E-03    0.453E-03
DAV:  15    -0.271916964772E+03    0.83583E-06   -0.33180E-06 19308   0.417E-03
   1 F= -.27554588E+03 E0= -.27554588E+03  d E =0.000000E+00
