<?xml version="1.0" encoding="ISO-8859-1"?>
<modeling>
 <generator>
  <i name="program" type="string">vasp </i>
  <i name="version" type="string">5.3.5  </i>
  <i name="subversion" type="string">31Mar14 (build Nov 02 2014 15:17:37) complex                          parallel </i>
  <i name="platform" type="string">ion-Intel-MKL </i>
  <i name="date" type="string">2016 08 14 </i>
  <i name="time" type="string">02:00:45 </i>
 </generator>
 <incar>
  <i type="string" name="SYSTEM">graphite</i>
  <i type="string" name="PREC">accurate</i>
  <i type="int" name="NELM">   200</i>
  <i type="int" name="IBRION">    -1</i>
  <i name="EDIFF">      0.00000100</i>
  <i name="EDIFFG">      0.00100000</i>
  <i type="int" name="NSW">     0</i>
  <i type="int" name="ISIF">     2</i>
  <i name="ENCUT">    600.00000000</i>
  <i type="int" name="ISMEAR">     0</i>
  <i name="SIGMA">      0.10000000</i>
  <i type="logical" name="LWAVE"> F  </i>
  <i type="logical" name="LCHARG"> F  </i>
  <i type="int" name="NELM">   200</i>
  <i type="string" name="GGA">PE</i>
 </incar>
 <kpoints>
  <generation param="Gamma">
   <v type="int" name="divisions">       9        9        4 </v>
   <v name="usershift">      0.00000000       0.00000000       0.00000000 </v>
   <v name="genvec1">      0.11111111       0.00000000       0.00000000 </v>
   <v name="genvec2">      0.00000000       0.11111111       0.00000000 </v>
   <v name="genvec3">      0.00000000       0.00000000       0.25000000 </v>
   <v name="shift">      0.00000000       0.00000000       0.00000000 </v>
  </generation>
  <varray name="kpointlist" >
   <v>       0.00000000       0.00000000       0.00000000 </v>
   <v>       0.11111111      -0.00000000       0.00000000 </v>
   <v>       0.22222222      -0.00000000       0.00000000 </v>
   <v>       0.33333333      -0.00000000       0.00000000 </v>
   <v>       0.44444444      -0.00000000       0.00000000 </v>
   <v>       0.00000000       0.11111111       0.00000000 </v>
   <v>       0.11111111       0.11111111       0.00000000 </v>
   <v>       0.22222222       0.11111111       0.00000000 </v>
   <v>       0.33333333       0.11111111       0.00000000 </v>
   <v>       0.44444444       0.11111111       0.00000000 </v>
   <v>      -0.44444444       0.11111111       0.00000000 </v>
   <v>      -0.33333333       0.11111111       0.00000000 </v>
   <v>      -0.22222222       0.11111111       0.00000000 </v>
   <v>      -0.11111111       0.11111111       0.00000000 </v>
   <v>       0.00000000       0.22222222       0.00000000 </v>
   <v>       0.11111111       0.22222222       0.00000000 </v>
   <v>       0.22222222       0.22222222       0.00000000 </v>
   <v>       0.33333333       0.22222222       0.00000000 </v>
   <v>       0.44444444       0.22222222       0.00000000 </v>
   <v>      -0.44444444       0.22222222       0.00000000 </v>
   <v>      -0.33333333       0.22222222       0.00000000 </v>
   <v>      -0.22222222       0.22222222       0.00000000 </v>
   <v>      -0.11111111       0.22222222       0.00000000 </v>
   <v>       0.00000000       0.33333333       0.00000000 </v>
   <v>       0.11111111       0.33333333       0.00000000 </v>
   <v>       0.22222222       0.33333333       0.00000000 </v>
   <v>       0.33333333       0.33333333       0.00000000 </v>
   <v>       0.44444444       0.33333333       0.00000000 </v>
   <v>      -0.44444444       0.33333333       0.00000000 </v>
   <v>      -0.33333333       0.33333333       0.00000000 </v>
   <v>      -0.22222222       0.33333333       0.00000000 </v>
   <v>      -0.11111111       0.33333333       0.00000000 </v>
   <v>       0.00000000       0.44444444       0.00000000 </v>
   <v>       0.11111111       0.44444444       0.00000000 </v>
   <v>       0.22222222       0.44444444       0.00000000 </v>
   <v>       0.33333333       0.44444444       0.00000000 </v>
   <v>       0.44444444       0.44444444       0.00000000 </v>
   <v>      -0.44444444       0.44444444       0.00000000 </v>
   <v>      -0.33333333       0.44444444       0.00000000 </v>
   <v>      -0.22222222       0.44444444       0.00000000 </v>
   <v>      -0.11111111       0.44444444       0.00000000 </v>
   <v>       0.00000000       0.00000000       0.25000000 </v>
   <v>       0.11111111      -0.00000000       0.25000000 </v>
   <v>       0.22222222      -0.00000000       0.25000000 </v>
   <v>       0.33333333      -0.00000000       0.25000000 </v>
   <v>       0.44444444      -0.00000000       0.25000000 </v>
   <v>      -0.44444444       0.00000000       0.25000000 </v>
   <v>      -0.33333333       0.00000000       0.25000000 </v>
   <v>      -0.22222222       0.00000000       0.25000000 </v>
   <v>      -0.11111111       0.00000000       0.25000000 </v>
   <v>       0.00000000       0.11111111       0.25000000 </v>
   <v>       0.11111111       0.11111111       0.25000000 </v>
   <v>       0.22222222       0.11111111       0.25000000 </v>
   <v>       0.33333333       0.11111111       0.25000000 </v>
   <v>       0.44444444       0.11111111       0.25000000 </v>
   <v>      -0.44444444       0.11111111       0.25000000 </v>
   <v>      -0.33333333       0.11111111       0.25000000 </v>
   <v>      -0.22222222       0.11111111       0.25000000 </v>
   <v>      -0.11111111       0.11111111       0.25000000 </v>
   <v>       0.00000000       0.22222222       0.25000000 </v>
   <v>       0.11111111       0.22222222       0.25000000 </v>
   <v>       0.22222222       0.22222222       0.25000000 </v>
   <v>       0.33333333       0.22222222       0.25000000 </v>
   <v>       0.44444444       0.22222222       0.25000000 </v>
   <v>      -0.44444444       0.22222222       0.25000000 </v>
   <v>      -0.33333333       0.22222222       0.25000000 </v>
   <v>      -0.22222222       0.22222222       0.25000000 </v>
   <v>      -0.11111111       0.22222222       0.25000000 </v>
   <v>       0.00000000       0.33333333       0.25000000 </v>
   <v>       0.11111111       0.33333333       0.25000000 </v>
   <v>       0.22222222       0.33333333       0.25000000 </v>
   <v>       0.33333333       0.33333333       0.25000000 </v>
   <v>       0.44444444       0.33333333       0.25000000 </v>
   <v>      -0.44444444       0.33333333       0.25000000 </v>
   <v>      -0.33333333       0.33333333       0.25000000 </v>
   <v>      -0.22222222       0.33333333       0.25000000 </v>
   <v>      -0.11111111       0.33333333       0.25000000 </v>
   <v>       0.00000000       0.44444444       0.25000000 </v>
   <v>       0.11111111       0.44444444       0.25000000 </v>
   <v>       0.22222222       0.44444444       0.25000000 </v>
   <v>       0.33333333       0.44444444       0.25000000 </v>
   <v>       0.44444444       0.44444444       0.25000000 </v>
   <v>      -0.44444444       0.44444444       0.25000000 </v>
   <v>      -0.33333333       0.44444444       0.25000000 </v>
   <v>      -0.22222222       0.44444444       0.25000000 </v>
   <v>      -0.11111111       0.44444444       0.25000000 </v>
   <v>      -0.00000000      -0.44444444       0.25000000 </v>
   <v>       0.11111111      -0.44444444       0.25000000 </v>
   <v>       0.22222222      -0.44444444       0.25000000 </v>
   <v>       0.33333333      -0.44444444       0.25000000 </v>
   <v>       0.44444444      -0.44444444       0.25000000 </v>
   <v>      -0.44444444      -0.44444444       0.25000000 </v>
   <v>      -0.33333333      -0.44444444       0.25000000 </v>
   <v>      -0.22222222      -0.44444444       0.25000000 </v>
   <v>      -0.11111111      -0.44444444       0.25000000 </v>
   <v>       0.00000000      -0.33333333       0.25000000 </v>
   <v>       0.11111111      -0.33333333       0.25000000 </v>
   <v>       0.22222222      -0.33333333       0.25000000 </v>
   <v>       0.33333333      -0.33333333       0.25000000 </v>
   <v>       0.44444444      -0.33333333       0.25000000 </v>
   <v>      -0.44444444      -0.33333333       0.25000000 </v>
   <v>      -0.33333333      -0.33333333       0.25000000 </v>
   <v>      -0.22222222      -0.33333333       0.25000000 </v>
   <v>      -0.11111111      -0.33333333       0.25000000 </v>
   <v>      -0.00000000      -0.22222222       0.25000000 </v>
   <v>       0.11111111      -0.22222222       0.25000000 </v>
   <v>       0.22222222      -0.22222222       0.25000000 </v>
   <v>       0.33333333      -0.22222222       0.25000000 </v>
   <v>       0.44444444      -0.22222222       0.25000000 </v>
   <v>      -0.44444444      -0.22222222       0.25000000 </v>
   <v>      -0.33333333      -0.22222222       0.25000000 </v>
   <v>      -0.22222222      -0.22222222       0.25000000 </v>
   <v>      -0.11111111      -0.22222222       0.25000000 </v>
   <v>      -0.00000000      -0.11111111       0.25000000 </v>
   <v>       0.11111111      -0.11111111       0.25000000 </v>
   <v>       0.22222222      -0.11111111       0.25000000 </v>
   <v>       0.33333333      -0.11111111       0.25000000 </v>
   <v>       0.44444444      -0.11111111       0.25000000 </v>
   <v>      -0.44444444      -0.11111111       0.25000000 </v>
   <v>      -0.33333333      -0.11111111       0.25000000 </v>
   <v>      -0.22222222      -0.11111111       0.25000000 </v>
   <v>      -0.11111111      -0.11111111       0.25000000 </v>
   <v>       0.00000000       0.00000000       0.50000000 </v>
   <v>       0.11111111      -0.00000000       0.50000000 </v>
   <v>       0.22222222      -0.00000000       0.50000000 </v>
   <v>       0.33333333      -0.00000000       0.50000000 </v>
   <v>       0.44444444      -0.00000000       0.50000000 </v>
   <v>       0.00000000       0.11111111       0.50000000 </v>
   <v>       0.11111111       0.11111111       0.50000000 </v>
   <v>       0.22222222       0.11111111       0.50000000 </v>
   <v>       0.33333333       0.11111111       0.50000000 </v>
   <v>       0.44444444       0.11111111       0.50000000 </v>
   <v>      -0.44444444       0.11111111       0.50000000 </v>
   <v>      -0.33333333       0.11111111       0.50000000 </v>
   <v>      -0.22222222       0.11111111       0.50000000 </v>
   <v>      -0.11111111       0.11111111       0.50000000 </v>
   <v>       0.00000000       0.22222222       0.50000000 </v>
   <v>       0.11111111       0.22222222       0.50000000 </v>
   <v>       0.22222222       0.22222222       0.50000000 </v>
   <v>       0.33333333       0.22222222       0.50000000 </v>
   <v>       0.44444444       0.22222222       0.50000000 </v>
   <v>      -0.44444444       0.22222222       0.50000000 </v>
   <v>      -0.33333333       0.22222222       0.50000000 </v>
   <v>      -0.22222222       0.22222222       0.50000000 </v>
   <v>      -0.11111111       0.22222222       0.50000000 </v>
   <v>       0.00000000       0.33333333       0.50000000 </v>
   <v>       0.11111111       0.33333333       0.50000000 </v>
   <v>       0.22222222       0.33333333       0.50000000 </v>
   <v>       0.33333333       0.33333333       0.50000000 </v>
   <v>       0.44444444       0.33333333       0.50000000 </v>
   <v>      -0.44444444       0.33333333       0.50000000 </v>
   <v>      -0.33333333       0.33333333       0.50000000 </v>
   <v>      -0.22222222       0.33333333       0.50000000 </v>
   <v>      -0.11111111       0.33333333       0.50000000 </v>
   <v>       0.00000000       0.44444444       0.50000000 </v>
   <v>       0.11111111       0.44444444       0.50000000 </v>
   <v>       0.22222222       0.44444444       0.50000000 </v>
   <v>       0.33333333       0.44444444       0.50000000 </v>
   <v>       0.44444444       0.44444444       0.50000000 </v>
   <v>      -0.44444444       0.44444444       0.50000000 </v>
   <v>      -0.33333333       0.44444444       0.50000000 </v>
   <v>      -0.22222222       0.44444444       0.50000000 </v>
   <v>      -0.11111111       0.44444444       0.50000000 </v>
  </varray>
  <varray name="weights" >
   <v>       0.00308642 </v>
   <v>       0.00617284 </v>
   <v>       0.00617284 </v>
   <v>       0.00617284 </v>
   <v>       0.00617284 </v>
   <v>       0.00617284 </v>
   <v>       0.00617284 </v>
   <v>       0.00617284 </v>
   <v>       0.00617284 </v>
   <v>       0.00617284 </v>
   <v>       0.00617284 </v>
   <v>       0.00617284 </v>
   <v>       0.00617284 </v>
   <v>       0.00617284 </v>
   <v>       0.00617284 </v>
   <v>       0.00617284 </v>
   <v>       0.00617284 </v>
   <v>       0.00617284 </v>
   <v>       0.00617284 </v>
   <v>       0.00617284 </v>
   <v>       0.00617284 </v>
   <v>       0.00617284 </v>
   <v>       0.00617284 </v>
   <v>       0.00617284 </v>
   <v>       0.00617284 </v>
   <v>       0.00617284 </v>
   <v>       0.00617284 </v>
   <v>       0.00617284 </v>
   <v>       0.00617284 </v>
   <v>       0.00617284 </v>
   <v>       0.00617284 </v>
   <v>       0.00617284 </v>
   <v>       0.00617284 </v>
   <v>       0.00617284 </v>
   <v>       0.00617284 </v>
   <v>       0.00617284 </v>
   <v>       0.00617284 </v>
   <v>       0.00617284 </v>
   <v>       0.00617284 </v>
   <v>       0.00617284 </v>
   <v>       0.00617284 </v>
   <v>       0.00617284 </v>
   <v>       0.00617284 </v>
   <v>       0.00617284 </v>
   <v>       0.00617284 </v>
   <v>       0.00617284 </v>
   <v>       0.00617284 </v>
   <v>       0.00617284 </v>
   <v>       0.00617284 </v>
   <v>       0.00617284 </v>
   <v>       0.00617284 </v>
   <v>       0.00617284 </v>
   <v>       0.00617284 </v>
   <v>       0.00617284 </v>
   <v>       0.00617284 </v>
   <v>       0.00617284 </v>
   <v>       0.00617284 </v>
   <v>       0.00617284 </v>
   <v>       0.00617284 </v>
   <v>       0.00617284 </v>
   <v>       0.00617284 </v>
   <v>       0.00617284 </v>
   <v>       0.00617284 </v>
   <v>       0.00617284 </v>
   <v>       0.00617284 </v>
   <v>       0.00617284 </v>
   <v>       0.00617284 </v>
   <v>       0.00617284 </v>
   <v>       0.00617284 </v>
   <v>       0.00617284 </v>
   <v>       0.00617284 </v>
   <v>       0.00617284 </v>
   <v>       0.00617284 </v>
   <v>       0.00617284 </v>
   <v>       0.00617284 </v>
   <v>       0.00617284 </v>
   <v>       0.00617284 </v>
   <v>       0.00617284 </v>
   <v>       0.00617284 </v>
   <v>       0.00617284 </v>
   <v>       0.00617284 </v>
   <v>       0.00617284 </v>
   <v>       0.00617284 </v>
   <v>       0.00617284 </v>
   <v>       0.00617284 </v>
   <v>       0.00617284 </v>
   <v>       0.00617284 </v>
   <v>       0.00617284 </v>
   <v>       0.00617284 </v>
   <v>       0.00617284 </v>
   <v>       0.00617284 </v>
   <v>       0.00617284 </v>
   <v>       0.00617284 </v>
   <v>       0.00617284 </v>
   <v>       0.00617284 </v>
   <v>       0.00617284 </v>
   <v>       0.00617284 </v>
   <v>       0.00617284 </v>
   <v>       0.00617284 </v>
   <v>       0.00617284 </v>
   <v>       0.00617284 </v>
   <v>       0.00617284 </v>
   <v>       0.00617284 </v>
   <v>       0.00617284 </v>
   <v>       0.00617284 </v>
   <v>       0.00617284 </v>
   <v>       0.00617284 </v>
   <v>       0.00617284 </v>
   <v>       0.00617284 </v>
   <v>       0.00617284 </v>
   <v>       0.00617284 </v>
   <v>       0.00617284 </v>
   <v>       0.00617284 </v>
   <v>       0.00617284 </v>
   <v>       0.00617284 </v>
   <v>       0.00617284 </v>
   <v>       0.00617284 </v>
   <v>       0.00617284 </v>
   <v>       0.00617284 </v>
   <v>       0.00617284 </v>
   <v>       0.00617284 </v>
   <v>       0.00617284 </v>
   <v>       0.00308642 </v>
   <v>       0.00617284 </v>
   <v>       0.00617284 </v>
   <v>       0.00617284 </v>
   <v>       0.00617284 </v>
   <v>       0.00617284 </v>
   <v>       0.00617284 </v>
   <v>       0.00617284 </v>
   <v>       0.00617284 </v>
   <v>       0.00617284 </v>
   <v>       0.00617284 </v>
   <v>       0.00617284 </v>
   <v>       0.00617284 </v>
   <v>       0.00617284 </v>
   <v>       0.00617284 </v>
   <v>       0.00617284 </v>
   <v>       0.00617284 </v>
   <v>       0.00617284 </v>
   <v>       0.00617284 </v>
   <v>       0.00617284 </v>
   <v>       0.00617284 </v>
   <v>       0.00617284 </v>
   <v>       0.00617284 </v>
   <v>       0.00617284 </v>
   <v>       0.00617284 </v>
   <v>       0.00617284 </v>
   <v>       0.00617284 </v>
   <v>       0.00617284 </v>
   <v>       0.00617284 </v>
   <v>       0.00617284 </v>
   <v>       0.00617284 </v>
   <v>       0.00617284 </v>
   <v>       0.00617284 </v>
   <v>       0.00617284 </v>
   <v>       0.00617284 </v>
   <v>       0.00617284 </v>
   <v>       0.00617284 </v>
   <v>       0.00617284 </v>
   <v>       0.00617284 </v>
   <v>       0.00617284 </v>
   <v>       0.00617284 </v>
  </varray>
 </kpoints>
 <parameters>
  <separator name="general" >
   <i type="string" name="SYSTEM">graphite</i>
   <i type="logical" name="LCOMPAT"> F  </i>
  </separator>
  <separator name="electronic" >
   <i type="string" name="PREC">accura</i>
   <i name="ENMAX">    600.00000000</i>
   <i name="ENAUG">    644.87300000</i>
   <i name="EDIFF">      0.00000100</i>
   <i type="int" name="IALGO">    38</i>
   <i type="int" name="IWAVPR">    10</i>
   <i type="int" name="NBANDS">    84</i>
   <i name="NELECT">    128.00000000</i>
   <i type="int" name="TURBO">     0</i>
   <i type="int" name="IRESTART">     0</i>
   <i type="int" name="NREBOOT">     0</i>
   <i type="int" name="NMIN">     0</i>
   <i name="EREF">      0.00000000</i>
   <separator name="electronic smearing" >
    <i type="int" name="ISMEAR">     0</i>
    <i name="SIGMA">      0.10000000</i>
    <i name="KSPACING">      0.50000000</i>
    <i type="logical" name="KGAMMA"> T  </i>
   </separator>
   <separator name="electronic projectors" >
    <i type="logical" name="LREAL"> F  </i>
    <v name="ROPT">      0.00000000</v>
    <i type="int" name="LMAXPAW">  -100</i>
    <i type="int" name="LMAXMIX">     2</i>
    <i type="logical" name="NLSPLINE"> F  </i>
   </separator>
   <separator name="electronic startup" >
    <i type="int" name="ISTART">     0</i>
    <i type="int" name="ICHARG">     2</i>
    <i type="int" name="INIWAV">     1</i>
   </separator>
   <separator name="electronic spin" >
    <i type="int" name="ISPIN">     1</i>
    <i type="logical" name="LNONCOLLINEAR"> F  </i>
    <v name="MAGMOM">      1.00000000      1.00000000      1.00000000      1.00000000      1.00000000      1.00000000      1.00000000      1.00000000      1.00000000      1.00000000      1.00000000      1.00000000      1.00000000      1.00000000      1.00000000      1.00000000      1.00000000      1.00000000      1.00000000      1.00000000
      1.00000000      1.00000000      1.00000000      1.00000000      1.00000000      1.00000000      1.00000000      1.00000000      1.00000000      1.00000000      1.00000000      1.00000000</v>
    <i name="NUPDOWN">     -1.00000000</i>
    <i type="logical" name="LSORBIT"> F  </i>
    <v name="SAXIS">      0.00000000      0.00000000      1.00000000</v>
    <i type="logical" name="LSPIRAL"> F  </i>
    <v name="QSPIRAL">      0.00000000      0.00000000      0.00000000</v>
    <i type="logical" name="LZEROZ"> F  </i>
   </separator>
   <separator name="electronic exchange-correlation" >
    <i type="logical" name="LASPH"> F  </i>
    <i type="logical" name="LMETAGGA"> F  </i>
   </separator>
   <separator name="electronic convergence" >
    <i type="int" name="NELM">   200</i>
    <i type="int" name="NELMDL">     0</i>
    <i type="int" name="NELMIN">     2</i>
    <i name="ENINI">    600.00000000</i>
    <separator name="electronic convergence detail" >
     <i type="logical" name="LDIAG"> T  </i>
     <i type="logical" name="LSUBROT"> F  </i>
     <i name="WEIMIN">      0.00000000</i>
     <i name="EBREAK">      0.00000000</i>
     <i name="DEPER">      0.30000000</i>
     <i type="int" name="NRMM">     4</i>
     <i name="TIME">      0.40000000</i>
    </separator>
   </separator>
   <separator name="electronic mixer" >
    <i name="AMIX">      0.40000000</i>
    <i name="BMIX">      1.00000000</i>
    <i name="AMIN">      0.10000000</i>
    <i name="AMIX_MAG">      1.60000000</i>
    <i name="BMIX_MAG">      1.00000000</i>
    <separator name="electronic mixer details" >
     <i type="int" name="IMIX">     4</i>
     <i type="int" name="MAXMIX">   -45</i>
     <i name="WC">    100.00000000</i>
     <i type="int" name="INIMIX">     1</i>
     <i type="int" name="MIXPRE">     1</i>
     <i type="int" name="MREMOVE">     5</i>
    </separator>
   </separator>
   <separator name="electronic dipolcorrection" >
    <i type="logical" name="LDIPOL"> F  </i>
    <i type="logical" name="LMONO"> F  </i>
    <i type="int" name="IDIPOL">     0</i>
    <i name="EPSILON">      1.00000000</i>
    <v name="DIPOL">   -100.00000000   -100.00000000   -100.00000000</v>
    <i name="EFIELD">      0.00000000</i>
   </separator>
  </separator>
  <separator name="grids" >
   <i type="int" name="NGX">    40</i>
   <i type="int" name="NGY">    40</i>
   <i type="int" name="NGZ">    70</i>
   <i type="int" name="NGXF">    80</i>
   <i type="int" name="NGYF">    80</i>
   <i type="int" name="NGZF">   140</i>
   <i type="logical" name="ADDGRID"> F  </i>
  </separator>
  <separator name="ionic" >
   <i type="int" name="NSW">     0</i>
   <i type="int" name="IBRION">    -1</i>
   <i type="int" name="ISIF">     2</i>
   <i name="PSTRESS">      0.00000000</i>
   <i name="EDIFFG">      0.00100000</i>
   <i type="int" name="NFREE">     0</i>
   <i name="POTIM">      0.50000000</i>
   <i name="SMASS">     -3.00000000</i>
   <i name="SCALEE">      1.00000000</i>
  </separator>
  <separator name="ionic md" >
   <i name="TEBEG">      0.00010000</i>
   <i name="TEEND">      0.00010000</i>
   <i type="int" name="NBLOCK">     1</i>
   <i type="int" name="KBLOCK">     1</i>
   <i type="int" name="NPACO">   256</i>
   <i name="APACO">     16.00000000</i>
  </separator>
  <separator name="symmetry" >
   <i type="int" name="ISYM">     2</i>
   <i name="SYMPREC">      0.00001000</i>
  </separator>
  <separator name="dos" >
   <i type="logical" name="LORBIT"> F  </i>
   <v name="RWIGS">     -1.00000000</v>
   <i type="int" name="NEDOS">   301</i>
   <i name="EMIN">     10.00000000</i>
   <i name="EMAX">    -10.00000000</i>
   <i name="EFERMI">      0.00000000</i>
  </separator>
  <separator name="writing" >
   <i type="int" name="NWRITE">     2</i>
   <i type="logical" name="LWAVE"> F  </i>
   <i type="logical" name="LCHARG"> F  </i>
   <i type="logical" name="LPARD"> F  </i>
   <i type="logical" name="LVTOT"> F  </i>
   <i type="logical" name="LVHAR"> F  </i>
   <i type="logical" name="LELF"> F  </i>
   <i type="logical" name="LOPTICS"> F  </i>
   <v name="STM">      0.00000000      0.00000000      0.00000000      0.00000000      0.00000000      0.00000000      0.00000000</v>
  </separator>
  <separator name="performance" >
   <i type="int" name="NPAR">     6</i>
   <i type="int" name="NSIM">     4</i>
   <i type="int" name="NBLK">    -1</i>
   <i type="logical" name="LPLANE"> T  </i>
   <i type="logical" name="LSCALAPACK"> T  </i>
   <i type="logical" name="LSCAAWARE"> F  </i>
   <i type="logical" name="LSCALU"> F  </i>
   <i type="logical" name="LASYNC"> F  </i>
   <i type="logical" name="LORBITALREAL"> F  </i>
  </separator>
  <separator name="miscellaneous" >
   <i type="int" name="IDIOT">     3</i>
   <i type="logical" name="LMUSIC"> F  </i>
   <v name="POMASS">     12.01100000</v>
   <v name="DARWINR">      0.00000000</v>
   <v name="DARWINV">      1.00000000</v>
   <i type="logical" name="LCORR"> T  </i>
  </separator>
  <i type="logical" name="GGA_COMPAT"> T  </i>
  <i type="logical" name="LBERRY"> F  </i>
  <i type="int" name="ICORELEVEL">     0</i>
  <i type="logical" name="LDAU"> F  </i>
  <i type="int" name="I_CONSTRAINED_M">     0</i>
  <separator name="electronic exchange-correlation" >
   <i type="string" name="GGA">PE</i>
   <i type="int" name="VOSKOWN">     0</i>
   <i type="logical" name="LHFCALC"> F  </i>
   <i type="string" name="PRECFOCK"></i>
   <i type="logical" name="LSYMGRAD"> F  </i>
   <i type="logical" name="LHFONE"> F  </i>
   <i type="logical" name="LRHFCALC"> F  </i>
   <i type="logical" name="LTHOMAS"> F  </i>
   <i type="logical" name="LMODELHF"> F  </i>
   <i name="ENCUT4O">     -1.00000000</i>
   <i type="int" name="EXXOEP">     0</i>
   <i type="int" name="FOURORBIT">     0</i>
   <i name="AEXX">      0.00000000</i>
   <i name="HFALPHA">      0.00000000</i>
   <i name="MCALPHA">      0.00000000</i>
   <i name="ALDAX">      1.00000000</i>
   <i name="AGGAX">      1.00000000</i>
   <i name="ALDAC">      1.00000000</i>
   <i name="AGGAC">      1.00000000</i>
   <i type="int" name="NKREDX">     1</i>
   <i type="int" name="NKREDY">     1</i>
   <i type="int" name="NKREDZ">     1</i>
   <i type="logical" name="SHIFTRED"> F  </i>
   <i type="logical" name="ODDONLY"> F  </i>
   <i type="logical" name="EVENONLY"> F  </i>
   <i type="int" name="LMAXFOCK">     0</i>
   <i type="int" name="NMAXFOCKAE">     0</i>
   <i type="logical" name="LFOCKAEDFT"> F  </i>
   <i name="HFSCREEN">      0.00000000</i>
   <i name="HFSCREENC">      0.00000000</i>
   <i type="int" name="NBANDSGWLOW">     0</i>
  </separator>
  <separator name="vdW DFT" >
   <i type="logical" name="LUSE_VDW"> F  </i>
   <i name="Zab_VDW">     -0.84910000</i>
   <i name="PARAM1">      0.12340000</i>
   <i name="PARAM2">      1.00000000</i>
   <i name="PARAM3">      0.00000000</i>
  </separator>
  <separator name="model GW" >
   <i type="int" name="MODEL_GW">     0</i>
   <i name="MODEL_EPS0">      3.45657427</i>
   <i name="MODEL_ALPHA">      1.00000000</i>
  </separator>
  <separator name="linear response parameters" >
   <i type="logical" name="LEPSILON"> F  </i>
   <i type="logical" name="LRPA"> F  </i>
   <i type="logical" name="LNABLA"> F  </i>
   <i type="logical" name="LVEL"> F  </i>
   <i type="int" name="KINTER">     0</i>
   <i name="CSHIFT">      0.10000000</i>
   <i name="OMEGAMAX">     -1.00000000</i>
   <i name="DEG_THRESHOLD">      0.00200000</i>
  </separator>
  <separator name="orbital magnetization" >
   <i type="logical" name="NUCIND"> F  </i>
   <v name="MAGPOS">      0.00000000      0.00000000      0.00000000</v>
   <i type="logical" name="LNICSALL"> T  </i>
   <i type="logical" name="ORBITALMAG"> F  </i>
   <i type="logical" name="LMAGBLOCH"> F  </i>
   <i type="logical" name="LCHIMAG"> F  </i>
   <i type="logical" name="LGAUGE"> T  </i>
   <i type="int" name="MAGATOM">     0</i>
   <v name="MAGDIPOL">      0.00000000      0.00000000      0.00000000</v>
   <v name="AVECCONST">      0.00000000      0.00000000      0.00000000</v>
  </separator>
  <separator name="response functions" >
   <i type="logical" name="LADDER"> F  </i>
   <i type="logical" name="LFXC"> F  </i>
   <i type="logical" name="LHARTREE"> T  </i>
   <i type="int" name="IBSE">     0</i>
   <i type="logical" name="LTCTE"> F  </i>
   <i type="logical" name="LTETE"> F  </i>
   <i type="logical" name="LTRIPLET"> F  </i>
   <i type="logical" name="LFXCEPS"> F  </i>
   <i type="logical" name="LFXHEG"> F  </i>
   <i type="logical" name="L2ORDER"> F  </i>
   <i type="logical" name="LUSEW"> F  </i>
   <i name="ENCUTGW">     -2.00000000</i>
   <i name="ENCUTGWSOFT">     -2.00000000</i>
   <i name="ENCUTLF">     -1.00000000</i>
   <i type="int" name="LMAXMP2">    -1</i>
   <i name="SCISSOR">      0.00000000</i>
   <i type="int" name="NOMEGA">     0</i>
   <i type="int" name="NOMEGAR">     0</i>
   <i type="int" name="NBANDSGW">    -1</i>
   <i type="int" name="NBANDSO">    -1</i>
   <i type="int" name="NBANDSV">    -1</i>
   <i type="int" name="NELM">   200</i>
   <i type="int" name="DIM">     3</i>
   <i type="int" name="ANTIRES">     0</i>
   <i name="OMEGAMAX">    -30.00000000</i>
   <i name="OMEGAMIN">    -30.00000000</i>
   <i name="OMEGATL">   -200.00000000</i>
   <i type="int" name="OMEGAGRID">     0</i>
   <i name="CSHIFT">     -0.10000000</i>
   <i type="logical" name="SELFENERGY"> F  </i>
   <i type="logical" name="LSPECTRAL"> F  </i>
   <i type="logical" name="ODDONLYGW"> F  </i>
   <i type="logical" name="EVENONLYGW"> F  </i>
   <i type="int" name="NKREDLFX">     1</i>
   <i type="int" name="NKREDLFY">     1</i>
   <i type="int" name="NKREDLFZ">     1</i>
   <i type="int" name="MAXMEM">  1800</i>
   <i type="int" name="TELESCOPE">     0</i>
   <i type="int" name="TAUPAR">     1</i>
  </separator>
  <separator name="External order field" >
   <i name="OFIELD_KAPPA">      0.00000000</i>
   <v name="OFIELD_K">      0.00000000      0.00000000      0.00000000</v>
   <i name="OFIELD_Q6_NEAR">      0.00000000</i>
   <i name="OFIELD_Q6_FAR">      0.00000000</i>
   <i name="OFIELD_A">      0.00000000</i>
  </separator>
 </parameters>
 <atominfo>
  <atoms>      32 </atoms>
  <types>       1 </types>
  <array name="atoms" >
   <dimension dim="1">ion</dimension>
   <field type="string">element</field>
   <field type="int">atomtype</field>
   <set>
    <rc><c>C </c><c>   1</c></rc>
    <rc><c>C </c><c>   1</c></rc>
    <rc><c>C </c><c>   1</c></rc>
    <rc><c>C </c><c>   1</c></rc>
    <rc><c>C </c><c>   1</c></rc>
    <rc><c>C </c><c>   1</c></rc>
    <rc><c>C </c><c>   1</c></rc>
    <rc><c>C </c><c>   1</c></rc>
    <rc><c>C </c><c>   1</c></rc>
    <rc><c>C </c><c>   1</c></rc>
    <rc><c>C </c><c>   1</c></rc>
    <rc><c>C </c><c>   1</c></rc>
    <rc><c>C </c><c>   1</c></rc>
    <rc><c>C </c><c>   1</c></rc>
    <rc><c>C </c><c>   1</c></rc>
    <rc><c>C </c><c>   1</c></rc>
    <rc><c>C </c><c>   1</c></rc>
    <rc><c>C </c><c>   1</c></rc>
    <rc><c>C </c><c>   1</c></rc>
    <rc><c>C </c><c>   1</c></rc>
    <rc><c>C </c><c>   1</c></rc>
    <rc><c>C </c><c>   1</c></rc>
    <rc><c>C </c><c>   1</c></rc>
    <rc><c>C </c><c>   1</c></rc>
    <rc><c>C </c><c>   1</c></rc>
    <rc><c>C </c><c>   1</c></rc>
    <rc><c>C </c><c>   1</c></rc>
    <rc><c>C </c><c>   1</c></rc>
    <rc><c>C </c><c>   1</c></rc>
    <rc><c>C </c><c>   1</c></rc>
    <rc><c>C </c><c>   1</c></rc>
    <rc><c>C </c><c>   1</c></rc>
   </set>
  </array>
  <array name="atomtypes" >
   <dimension dim="1">type</dimension>
   <field type="int">atomspertype</field>
   <field type="string">element</field>
   <field>mass</field>
   <field>valence</field>
   <field type="string">pseudopotential</field>
   <set>
    <rc><c>  32</c><c>C </c><c>     12.01100000</c><c>      4.00000000</c><c> PAW_PBE C 08Apr2002                    </c></rc>
   </set>
  </array>
 </atominfo>
 <structure name="initialpos" >
  <crystal>
   <varray name="basis" >
    <v>       4.93431088      -0.00022240       0.00000000 </v>
    <v>      -2.46734805       4.27312738       0.00000000 </v>
    <v>       0.00000000       0.00000000       8.74346501 </v>
   </varray>
   <i name="volume">    184.35062777 </i>
   <varray name="rec_basis" >
    <v>       0.20266782       0.11702250       0.00000000 </v>
    <v>       0.00001055       0.23402673       0.00000000 </v>
    <v>       0.00000000       0.00000000       0.11437113 </v>
   </varray>
  </crystal>
  <varray name="positions" >
   <v>       0.49999985       0.00000017       0.12500000 </v>
   <v>       0.99999985       0.00000017       0.12500000 </v>
   <v>       0.49999985       0.50000017       0.12500000 </v>
   <v>       0.99999985       0.50000017       0.12500000 </v>
   <v>       0.49999985       0.00000017       0.62500000 </v>
   <v>       0.99999985       0.00000017       0.62500000 </v>
   <v>       0.49999985       0.50000017       0.62500000 </v>
   <v>       0.99999985       0.50000017       0.62500000 </v>
   <v>       0.00000017       0.49999985       0.37500000 </v>
   <v>       0.50000017       0.49999985       0.37500000 </v>
   <v>       0.00000017       0.99999985       0.37500000 </v>
   <v>       0.50000017       0.99999985       0.37500000 </v>
   <v>       0.00000017       0.49999985       0.87500000 </v>
   <v>       0.50000017       0.49999985       0.87500000 </v>
   <v>       0.00000017       0.99999985       0.87500000 </v>
   <v>       0.50000017       0.99999985       0.87500000 </v>
   <v>       0.16764551       0.33335053       0.12599605 </v>
   <v>       0.66664946       0.33335053       0.12500000 </v>
   <v>       0.16664946       0.83335053       0.12500000 </v>
   <v>       0.66664946       0.83335053       0.12500000 </v>
   <v>       0.16664946       0.33335053       0.62500000 </v>
   <v>       0.66664946       0.33335053       0.62500000 </v>
   <v>       0.16664946       0.83335053       0.62500000 </v>
   <v>       0.66664946       0.83335053       0.62500000 </v>
   <v>       0.33335053       0.16664946       0.37500000 </v>
   <v>       0.83335053       0.16664946       0.37500000 </v>
   <v>       0.33335053       0.66664946       0.37500000 </v>
   <v>       0.83335053       0.66664946       0.37500000 </v>
   <v>       0.33335053       0.16664946       0.87500000 </v>
   <v>       0.83335053       0.16664946       0.87500000 </v>
   <v>       0.33335053       0.66664946       0.87500000 </v>
   <v>       0.83335053       0.66664946       0.87500000 </v>
  </varray>
 </structure>
 <calculation>
  <scstep>
   <time name="dav">  106.71  106.78</time>
   <time name="total">  106.88  107.02</time>
   <energy>
    <i name="alphaZ">    452.59237219 </i>
    <i name="ewald">  -5405.36782340 </i>
    <i name="hartreedc">   -330.41719719 </i>
    <i name="XCdc">    458.61364306 </i>
    <i name="pawpsdc">   1210.60617908 </i>
    <i name="pawaedc">  -1247.42152856 </i>
    <i name="eentropy">     -0.01564512 </i>
    <i name="bandstr">    615.18254188 </i>
    <i name="atom">   4708.80920826 </i>
    <i name="e_fr_energy">    462.58175020 </i>
    <i name="e_wo_entrp">    462.59739533 </i>
    <i name="e_0_energy">    462.58957276 </i>
   </energy>
  </scstep>
  <scstep>
   <time name="dav">  133.84  133.91</time>
   <time name="total">  133.85  133.93</time>
   <energy>
    <i name="e_fr_energy">   -250.17166075 </i>
    <i name="e_wo_entrp">   -250.16101903 </i>
    <i name="e_0_energy">   -250.16633989 </i>
   </energy>
  </scstep>
  <scstep>
   <time name="dav">  132.97  133.05</time>
   <time name="total">  132.99  133.06</time>
   <energy>
    <i name="e_fr_energy">   -286.25861231 </i>
    <i name="e_wo_entrp">   -286.24147678 </i>
    <i name="e_0_energy">   -286.25004454 </i>
   </energy>
  </scstep>
  <scstep>
   <time name="dav">  132.81  132.88</time>
   <time name="total">  132.83  132.90</time>
   <energy>
    <i name="e_fr_energy">   -286.82101852 </i>
    <i name="e_wo_entrp">   -286.80403099 </i>
    <i name="e_0_energy">   -286.81252475 </i>
   </energy>
  </scstep>
  <scstep>
   <time name="dav">  129.34  129.41</time>
   <time name="total">  133.69  133.76</time>
   <energy>
    <i name="e_fr_energy">   -286.83342303 </i>
    <i name="e_wo_entrp">   -286.81643751 </i>
    <i name="e_0_energy">   -286.82493027 </i>
   </energy>
  </scstep>
  <scstep>
   <time name="dav">  122.23  122.30</time>
   <time name="total">  127.77  127.85</time>
   <energy>
    <i name="e_fr_energy">   -275.51226941 </i>
    <i name="e_wo_entrp">   -275.49312763 </i>
    <i name="e_0_energy">   -275.50269852 </i>
   </energy>
  </scstep>
  <scstep>
   <time name="dav">  121.57  121.64</time>
   <time name="total">  127.01  127.08</time>
   <energy>
    <i name="e_fr_energy">   -271.89697428 </i>
    <i name="e_wo_entrp">   -271.87866680 </i>
    <i name="e_0_energy">   -271.88782054 </i>
   </energy>
  </scstep>
  <scstep>
   <time name="dav">  128.24  128.31</time>
   <time name="total">  133.55  133.62</time>
   <energy>
    <i name="e_fr_energy">   -271.92306693 </i>
    <i name="e_wo_entrp">   -271.90459967 </i>
    <i name="e_0_energy">   -271.91383330 </i>
   </energy>
  </scstep>
  <scstep>
   <time name="dav">  129.15  129.22</time>
   <time name="total">  134.80  134.88</time>
   <energy>
    <i name="e_fr_energy">   -271.92558370 </i>
    <i name="e_wo_entrp">   -271.90708434 </i>
    <i name="e_0_energy">   -271.91633402 </i>
   </energy>
  </scstep>
  <scstep>
   <time name="dav">  126.66  126.73</time>
   <time name="total">  132.21  132.29</time>
   <energy>
    <i name="e_fr_energy">   -271.92571924 </i>
    <i name="e_wo_entrp">   -271.90721679 </i>
    <i name="e_0_energy">   -271.91646802 </i>
   </energy>
  </scstep>
  <scstep>
   <time name="dav">  127.74  127.81</time>
   <time name="total">  133.39  133.47</time>
   <energy>
    <i name="e_fr_energy">   -271.92576330 </i>
    <i name="e_wo_entrp">   -271.90725665 </i>
    <i name="e_0_energy">   -271.91650998 </i>
   </energy>
  </scstep>
  <scstep>
   <time name="dav">   99.76   99.81</time>
   <time name="total">  105.34  105.40</time>
   <energy>
    <i name="e_fr_energy">   -271.92576199 </i>
    <i name="e_wo_entrp">   -271.90725644 </i>
    <i name="e_0_energy">   -271.91650922 </i>
   </energy>
  </scstep>
  <scstep>
   <time name="dav">   92.32   92.37</time>
   <time name="total">   92.50   92.55</time>
   <energy>
    <i name="alphaZ">    452.59237219 </i>
    <i name="ewald">  -5405.36782340 </i>
    <i name="hartreedc">   -490.99027701 </i>
    <i name="XCdc">    473.02973098 </i>
    <i name="pawpsdc">   2273.53389798 </i>
    <i name="pawaedc">  -2315.22182340 </i>
    <i name="eentropy">     -0.01850512 </i>
    <i name="bandstr">     31.70745756 </i>
    <i name="atom">   4708.80920826 </i>
    <i name="e_fr_energy">   -271.92576197 </i>
    <i name="e_wo_entrp">   -271.90725685 </i>
    <i name="e_0_energy">   -271.91650941 </i>
   </energy>
  </scstep>
  <structure>
   <crystal>
    <varray name="basis" >
     <v>       4.93431088      -0.00022240       0.00000000 </v>
     <v>      -2.46734805       4.27312738       0.00000000 </v>
     <v>       0.00000000       0.00000000       8.74346501 </v>
    </varray>
    <i name="volume">    184.35062777 </i>
    <varray name="rec_basis" >
     <v>       0.20266782       0.11702250       0.00000000 </v>
     <v>       0.00001055       0.23402673       0.00000000 </v>
     <v>       0.00000000       0.00000000       0.11437113 </v>
    </varray>
   </crystal>
   <varray name="positions" >
    <v>       0.49999985       0.00000017       0.12500000 </v>
    <v>       0.99999985       0.00000017       0.12500000 </v>
    <v>       0.49999985       0.50000017       0.12500000 </v>
    <v>       0.99999985       0.50000017       0.12500000 </v>
    <v>       0.49999985       0.00000017       0.62500000 </v>
    <v>       0.99999985       0.00000017       0.62500000 </v>
    <v>       0.49999985       0.50000017       0.62500000 </v>
    <v>       0.99999985       0.50000017       0.62500000 </v>
    <v>       0.00000017       0.49999985       0.37500000 </v>
    <v>       0.50000017       0.49999985       0.37500000 </v>
    <v>       0.00000017       0.99999985       0.37500000 </v>
    <v>       0.50000017       0.99999985       0.37500000 </v>
    <v>       0.00000017       0.49999985       0.87500000 </v>
    <v>       0.50000017       0.49999985       0.87500000 </v>
    <v>       0.00000017       0.99999985       0.87500000 </v>
    <v>       0.50000017       0.99999985       0.87500000 </v>
    <v>       0.16764551       0.33335053       0.12599605 </v>
    <v>       0.66664946       0.33335053       0.12500000 </v>
    <v>       0.16664946       0.83335053       0.12500000 </v>
    <v>       0.66664946       0.83335053       0.12500000 </v>
    <v>       0.16664946       0.33335053       0.62500000 </v>
    <v>       0.66664946       0.33335053       0.62500000 </v>
    <v>       0.16664946       0.83335053       0.62500000 </v>
    <v>       0.66664946       0.83335053       0.62500000 </v>
    <v>       0.33335053       0.16664946       0.37500000 </v>
    <v>       0.83335053       0.16664946       0.37500000 </v>
    <v>       0.33335053       0.66664946       0.37500000 </v>
    <v>       0.83335053       0.66664946       0.37500000 </v>
    <v>       0.33335053       0.16664946       0.87500000 </v>
    <v>       0.83335053       0.16664946       0.87500000 </v>
    <v>       0.33335053       0.66664946       0.87500000 </v>
    <v>       0.83335053       0.66664946       0.87500000 </v>
   </varray>
  </structure>
  <varray name="forces" >
   <v>      -0.00558747       0.00320119       0.01248976 </v>
   <v>       0.04272080       0.00344286       0.01732629 </v>
   <v>       0.10092258       0.03690395       0.01661997 </v>
   <v>       0.09877028      -0.02905873       0.01796348 </v>
   <v>      -0.00599510       0.00315814      -0.00181730 </v>
   <v>      -0.00754926       0.00311838      -0.00309439 </v>
   <v>      -0.00607830       0.00400390      -0.00310014 </v>
   <v>      -0.00615265       0.00234827      -0.00308847 </v>
   <v>       0.00516488      -0.00349461       0.00728198 </v>
   <v>       0.01243943       0.00137468       0.02270394 </v>
   <v>       0.00458676      -0.00735169       0.01495722 </v>
   <v>       0.00668682      -0.00315988      -0.00034089 </v>
   <v>       0.01225076      -0.00751343       0.02227443 </v>
   <v>       0.00517570      -0.00288142       0.00726908 </v>
   <v>       0.00470372       0.00091924       0.01479680 </v>
   <v>       0.00674322      -0.00316069      -0.00018490 </v>
   <v>      -0.28928414      -0.00507830      -0.19020491 </v>
   <v>       0.04149933      -0.00313114       0.00009343 </v>
   <v>       0.00239319      -0.02578748       0.00002757 </v>
   <v>       0.00267820       0.01921517       0.00014925 </v>
   <v>       0.00593375      -0.00323203       0.00142129 </v>
   <v>       0.00696012      -0.00325386       0.00097731 </v>
   <v>       0.00665455      -0.00340553       0.00097268 </v>
   <v>       0.00661842      -0.00303226       0.00098117 </v>
   <v>      -0.00112033       0.00081897       0.00984354 </v>
   <v>      -0.00769918       0.00185868       0.00604373 </v>
   <v>      -0.00530934       0.00704157       0.00793244 </v>
   <v>      -0.01201256       0.00320568      -0.00191428 </v>
   <v>      -0.00772504       0.00467488       0.00602782 </v>
   <v>      -0.00127243       0.00552920       0.00960089 </v>
   <v>      -0.00523796      -0.00048603       0.00783187 </v>
   <v>      -0.01187874       0.00321231      -0.00184068 </v>
  </varray>
  <varray name="stress" >
   <v>      -4.76524057       0.83442743      -0.02261054 </v>
   <v>       0.83442750      -4.30467593      -0.00042991 </v>
   <v>      -0.02261054      -0.00042987    1248.38789921 </v>
  </varray>
  <energy>
   <i name="e_fr_energy">   -275.55468111 </i>
   <i name="e_wo_entrp">   -275.54542855 </i>
   <i name="e_0_energy">     -0.01850512 </i>
  </energy>
  <time name="totalsc"> 1730.84 1731.93</time>
  <eigenvalues>
   <array>
    <dimension dim="1">band</dimension>
    <dimension dim="2">kpoint</dimension>
    <dimension dim="3">spin</dimension>
    <field>eigene</field>
    <field>occ</field>
    <set>
     <set comment="spin 1">
      <set comment="kpoint 1">
       <r>  -12.0758    1.0000 </r>
       <r>  -10.6685    1.0000 </r>
       <r>  -10.6641    1.0000 </r>
       <r>   -8.1549    1.0000 </r>
       <r>   -6.4026    1.0000 </r>
       <r>   -6.3993    1.0000 </r>
       <r>   -6.3959    1.0000 </r>
       <r>   -5.5785    1.0000 </r>
       <r>   -5.5767    1.0000 </r>
       <r>   -5.5743    1.0000 </r>
       <r>   -5.2498    1.0000 </r>
       <r>   -5.2450    1.0000 </r>
       <r>   -5.2434    1.0000 </r>
       <r>   -5.2432    1.0000 </r>
       <r>   -5.2417    1.0000 </r>
       <r>   -5.2367    1.0000 </r>
       <r>   -4.2030    1.0000 </r>
       <r>   -4.1981    1.0000 </r>
       <r>   -4.1970    1.0000 </r>
       <r>   -4.1964    1.0000 </r>
       <r>   -4.1960    1.0000 </r>
       <r>   -4.1907    1.0000 </r>
       <r>   -2.9142    1.0000 </r>
       <r>   -2.9112    1.0000 </r>
       <r>   -2.9078    1.0000 </r>
       <r>   -2.6454    1.0000 </r>
       <r>   -2.6429    1.0000 </r>
       <r>   -2.6401    1.0000 </r>
       <r>   -2.1731    1.0000 </r>
       <r>    2.2548    1.0000 </r>
       <r>    2.2576    1.0000 </r>
       <r>    2.2588    1.0000 </r>
       <r>    2.9387    1.0000 </r>
       <r>    2.9406    1.0000 </r>
       <r>    2.9430    1.0000 </r>
       <r>    2.9438    1.0000 </r>
       <r>    2.9448    1.0000 </r>
       <r>    2.9455    1.0000 </r>
       <r>    2.9470    1.0000 </r>
       <r>    2.9498    1.0000 </r>
       <r>    3.7308    1.0000 </r>
       <r>    3.7342    1.0000 </r>
       <r>    3.7353    1.0000 </r>
       <r>    3.7773    1.0000 </r>
       <r>    3.7802    1.0000 </r>
       <r>    3.7825    1.0000 </r>
       <r>    6.0379    1.0000 </r>
       <r>    6.0435    1.0000 </r>
       <r>    6.3615    1.0000 </r>
       <r>    6.3662    1.0000 </r>
       <r>    6.3710    1.0000 </r>
       <r>    6.3758    1.0000 </r>
       <r>    6.5198    1.0000 </r>
       <r>    6.5211    1.0000 </r>
       <r>    6.5234    1.0000 </r>
       <r>    6.6838    1.0000 </r>
       <r>    6.6891    1.0000 </r>
       <r>    7.6686    1.0000 </r>
       <r>    7.6721    1.0000 </r>
       <r>    7.6736    1.0000 </r>
       <r>    7.6739    1.0000 </r>
       <r>    7.6755    1.0000 </r>
       <r>    7.6792    1.0000 </r>
       <r>    8.5288    1.0000 </r>
       <r>   11.1763    0.0000 </r>
       <r>   11.1867    0.0000 </r>
       <r>   11.1880    0.0000 </r>
       <r>   11.1889    0.0000 </r>
       <r>   11.1897    0.0000 </r>
       <r>   11.2000    0.0000 </r>
       <r>   13.5570    0.0000 </r>
       <r>   13.5595    0.0000 </r>
       <r>   13.5620    0.0000 </r>
       <r>   14.5377    0.0000 </r>
       <r>   14.5426    0.0000 </r>
       <r>   14.5459    0.0000 </r>
       <r>   14.6831    0.0000 </r>
       <r>   14.6842    0.0000 </r>
       <r>   14.6855    0.0000 </r>
       <r>   16.7061    0.0000 </r>
       <r>   16.7107    0.0000 </r>
       <r>   16.7137    0.0000 </r>
       <r>   16.7151    0.0000 </r>
       <r>   16.7189    0.0000 </r>
      </set>
      <set comment="kpoint 2">
       <r>  -11.9984    1.0000 </r>
       <r>  -10.5931    1.0000 </r>
       <r>  -10.5887    1.0000 </r>
       <r>   -8.0874    1.0000 </r>
       <r>   -7.2797    1.0000 </r>
       <r>   -6.6854    1.0000 </r>
       <r>   -6.6820    1.0000 </r>
       <r>   -6.0311    1.0000 </r>
       <r>   -6.0273    1.0000 </r>
       <r>   -5.4812    1.0000 </r>
       <r>   -5.4775    1.0000 </r>
       <r>   -5.4760    1.0000 </r>
       <r>   -5.4729    1.0000 </r>
       <r>   -5.1804    1.0000 </r>
       <r>   -5.1782    1.0000 </r>
       <r>   -4.7106    1.0000 </r>
       <r>   -3.8417    1.0000 </r>
       <r>   -3.8401    1.0000 </r>
       <r>   -3.8387    1.0000 </r>
       <r>   -3.8346    1.0000 </r>
       <r>   -3.7030    1.0000 </r>
       <r>   -3.3029    1.0000 </r>
       <r>   -3.2987    1.0000 </r>
       <r>   -3.2675    1.0000 </r>
       <r>   -3.2653    1.0000 </r>
       <r>   -2.1654    1.0000 </r>
       <r>   -2.1632    1.0000 </r>
       <r>   -2.0818    1.0000 </r>
       <r>   -1.6195    1.0000 </r>
       <r>    1.9910    1.0000 </r>
       <r>    1.9939    1.0000 </r>
       <r>    2.3334    1.0000 </r>
       <r>    2.6960    1.0000 </r>
       <r>    2.6998    1.0000 </r>
       <r>    2.7020    1.0000 </r>
       <r>    2.7031    1.0000 </r>
       <r>    3.0161    1.0000 </r>
       <r>    3.0167    1.0000 </r>
       <r>    3.0202    1.0000 </r>
       <r>    3.0221    1.0000 </r>
       <r>    3.1727    1.0000 </r>
       <r>    3.5418    1.0000 </r>
       <r>    3.5450    1.0000 </r>
       <r>    3.6591    1.0000 </r>
       <r>    3.6622    1.0000 </r>
       <r>    3.8045    1.0000 </r>
       <r>    5.6600    1.0000 </r>
       <r>    5.8320    1.0000 </r>
       <r>    6.0556    1.0000 </r>
       <r>    6.0630    1.0000 </r>
       <r>    6.2075    1.0000 </r>
       <r>    6.2152    1.0000 </r>
       <r>    6.4568    1.0000 </r>
       <r>    6.5925    1.0000 </r>
       <r>    6.7813    1.0000 </r>
       <r>    6.7838    1.0000 </r>
       <r>    7.2112    1.0000 </r>
       <r>    7.3016    1.0000 </r>
       <r>    7.3055    1.0000 </r>
       <r>    7.6260    1.0000 </r>
       <r>    7.6302    1.0000 </r>
       <r>    7.6317    1.0000 </r>
       <r>    7.6338    1.0000 </r>
       <r>    8.5891    1.0000 </r>
       <r>   11.3108    0.0000 </r>
       <r>   11.3147    0.0000 </r>
       <r>   11.3168    0.0000 </r>
       <r>   11.3258    0.0000 </r>
       <r>   11.6207    0.0000 </r>
       <r>   11.6288    0.0000 </r>
       <r>   13.1548    0.0000 </r>
       <r>   13.2257    0.0000 </r>
       <r>   13.2283    0.0000 </r>
       <r>   14.6017    0.0000 </r>
       <r>   14.8292    0.0000 </r>
       <r>   14.8312    0.0000 </r>
       <r>   14.9311    0.0000 </r>
       <r>   14.9374    0.0000 </r>
       <r>   15.1913    0.0000 </r>
       <r>   16.7978    0.0000 </r>
       <r>   16.8009    0.0000 </r>
       <r>   17.0311    0.0000 </r>
       <r>   17.0383    0.0000 </r>
       <r>   17.0588    0.0000 </r>
      </set>
      <set comment="kpoint 3">
       <r>  -11.7664    1.0000 </r>
       <r>  -10.3671    1.0000 </r>
       <r>  -10.3627    1.0000 </r>
       <r>   -8.3592    1.0000 </r>
       <r>   -7.8855    1.0000 </r>
       <r>   -7.0696    1.0000 </r>
       <r>   -7.0667    1.0000 </r>
       <r>   -7.0628    1.0000 </r>
       <r>   -7.0592    1.0000 </r>
       <r>   -5.8301    1.0000 </r>
       <r>   -5.8271    1.0000 </r>
       <r>   -5.8252    1.0000 </r>
       <r>   -5.8227    1.0000 </r>
       <r>   -4.9747    1.0000 </r>
       <r>   -4.5214    1.0000 </r>
       <r>   -4.5192    1.0000 </r>
       <r>   -3.5260    1.0000 </r>
       <r>   -3.5246    1.0000 </r>
       <r>   -3.1260    1.0000 </r>
       <r>   -3.1241    1.0000 </r>
       <r>   -3.1225    1.0000 </r>
       <r>   -3.1191    1.0000 </r>
       <r>   -2.9564    1.0000 </r>
       <r>   -1.9420    1.0000 </r>
       <r>   -1.9379    1.0000 </r>
       <r>   -1.8090    1.0000 </r>
       <r>   -1.5006    1.0000 </r>
       <r>   -1.4981    1.0000 </r>
       <r>   -0.3782    1.0000 </r>
       <r>    1.3115    1.0000 </r>
       <r>    1.3141    1.0000 </r>
       <r>    2.0469    1.0000 </r>
       <r>    2.0512    1.0000 </r>
       <r>    2.0530    1.0000 </r>
       <r>    2.0545    1.0000 </r>
       <r>    2.0893    1.0000 </r>
       <r>    2.5578    1.0000 </r>
       <r>    3.0212    1.0000 </r>
       <r>    3.0242    1.0000 </r>
       <r>    3.2323    1.0000 </r>
       <r>    3.2363    1.0000 </r>
       <r>    3.2415    1.0000 </r>
       <r>    3.2466    1.0000 </r>
       <r>    3.4155    1.0000 </r>
       <r>    3.4186    1.0000 </r>
       <r>    4.0095    1.0000 </r>
       <r>    4.6710    1.0000 </r>
       <r>    5.2199    1.0000 </r>
       <r>    5.2263    1.0000 </r>
       <r>    5.3155    1.0000 </r>
       <r>    5.7836    1.0000 </r>
       <r>    5.7872    1.0000 </r>
       <r>    5.7931    1.0000 </r>
       <r>    6.2865    1.0000 </r>
       <r>    6.5180    1.0000 </r>
       <r>    6.5214    1.0000 </r>
       <r>    7.4475    1.0000 </r>
       <r>    7.4501    1.0000 </r>
       <r>    7.5267    1.0000 </r>
       <r>    7.5312    1.0000 </r>
       <r>    7.5337    1.0000 </r>
       <r>    7.5353    1.0000 </r>
       <r>    8.4657    1.0000 </r>
       <r>    8.7660    1.0000 </r>
       <r>   11.6208    0.0000 </r>
       <r>   11.6242    0.0000 </r>
       <r>   11.6260    0.0000 </r>
       <r>   11.6341    0.0000 </r>
       <r>   12.4826    0.0000 </r>
       <r>   12.4848    0.0000 </r>
       <r>   12.5909    0.0000 </r>
       <r>   12.5966    0.0000 </r>
       <r>   12.6548    0.0000 </r>
       <r>   14.7814    0.0000 </r>
       <r>   15.0299    0.0000 </r>
       <r>   15.0319    0.0000 </r>
       <r>   16.0038    0.0000 </r>
       <r>   16.0096    0.0000 </r>
       <r>   16.0781    0.0000 </r>
       <r>   16.8962    0.0000 </r>
       <r>   17.0606    0.0000 </r>
       <r>   17.0634    0.0000 </r>
       <r>   17.0853    0.0000 </r>
       <r>   17.0928    0.0000 </r>
      </set>
      <set comment="kpoint 4">
       <r>  -11.3810    1.0000 </r>
       <r>   -9.9918    1.0000 </r>
       <r>   -9.9875    1.0000 </r>
       <r>   -9.3265    1.0000 </r>
       <r>   -7.9977    1.0000 </r>
       <r>   -7.9936    1.0000 </r>
       <r>   -7.5502    1.0000 </r>
       <r>   -7.3462    1.0000 </r>
       <r>   -7.3437    1.0000 </r>
       <r>   -6.0911    1.0000 </r>
       <r>   -6.0884    1.0000 </r>
       <r>   -6.0864    1.0000 </r>
       <r>   -6.0841    1.0000 </r>
       <r>   -5.7754    1.0000 </r>
       <r>   -4.2143    1.0000 </r>
       <r>   -4.2119    1.0000 </r>
       <r>   -3.1913    1.0000 </r>
       <r>   -3.1896    1.0000 </r>
       <r>   -2.2901    1.0000 </r>
       <r>   -2.2880    1.0000 </r>
       <r>   -2.2865    1.0000 </r>
       <r>   -2.2830    1.0000 </r>
       <r>   -1.4525    1.0000 </r>
       <r>   -1.3567    1.0000 </r>
       <r>   -0.9084    1.0000 </r>
       <r>   -0.9056    1.0000 </r>
       <r>   -0.4774    1.0000 </r>
       <r>   -0.4734    1.0000 </r>
       <r>    0.5494    1.0000 </r>
       <r>    0.5514    1.0000 </r>
       <r>    0.9290    1.0000 </r>
       <r>    1.0173    1.0000 </r>
       <r>    1.1813    1.0000 </r>
       <r>    1.1848    1.0000 </r>
       <r>    1.1861    1.0000 </r>
       <r>    1.1880    1.0000 </r>
       <r>    2.2874    1.0000 </r>
       <r>    2.2901    1.0000 </r>
       <r>    2.9236    1.0000 </r>
       <r>    3.1956    1.0000 </r>
       <r>    3.1985    1.0000 </r>
       <r>    3.3097    1.0000 </r>
       <r>    3.5235    1.0000 </r>
       <r>    3.5284    1.0000 </r>
       <r>    3.5834    1.0000 </r>
       <r>    3.5881    1.0000 </r>
       <r>    4.1139    1.0000 </r>
       <r>    4.1182    1.0000 </r>
       <r>    4.3405    1.0000 </r>
       <r>    4.6694    1.0000 </r>
       <r>    4.7834    1.0000 </r>
       <r>    5.2151    1.0000 </r>
       <r>    5.2213    1.0000 </r>
       <r>    5.6704    1.0000 </r>
       <r>    5.6741    1.0000 </r>
       <r>    5.8193    1.0000 </r>
       <r>    7.4259    1.0000 </r>
       <r>    7.4309    1.0000 </r>
       <r>    7.4339    1.0000 </r>
       <r>    7.4353    1.0000 </r>
       <r>    8.3502    1.0000 </r>
       <r>    8.3530    1.0000 </r>
       <r>    9.0428    1.0000 </r>
       <r>    9.4513    1.0000 </r>
       <r>   11.5364    0.0000 </r>
       <r>   11.5386    0.0000 </r>
       <r>   11.9594    0.0000 </r>
       <r>   11.9618    0.0000 </r>
       <r>   11.9631    0.0000 </r>
       <r>   11.9703    0.0000 </r>
       <r>   12.6725    0.0000 </r>
       <r>   13.7017    0.0000 </r>
       <r>   13.7055    0.0000 </r>
       <r>   15.0745    0.0000 </r>
       <r>   15.1456    0.0000 </r>
       <r>   15.1473    0.0000 </r>
       <r>   16.4477    0.0000 </r>
       <r>   16.4900    0.0000 </r>
       <r>   16.4957    0.0000 </r>
       <r>   16.6186    0.0000 </r>
       <r>   17.0596    0.0000 </r>
       <r>   17.5016    0.0000 </r>
       <r>   17.5192    0.0000 </r>
       <r>   17.5451    0.0000 </r>
      </set>
      <set comment="kpoint 5">
       <r>  -10.8436    1.0000 </r>
       <r>  -10.1572    1.0000 </r>
       <r>   -9.4694    1.0000 </r>
       <r>   -9.4651    1.0000 </r>
       <r>   -8.8028    1.0000 </r>
       <r>   -8.7986    1.0000 </r>
       <r>   -7.4882    1.0000 </r>
       <r>   -7.4858    1.0000 </r>
       <r>   -7.0835    1.0000 </r>
       <r>   -6.4893    1.0000 </r>
       <r>   -6.2265    1.0000 </r>
       <r>   -6.2239    1.0000 </r>
       <r>   -6.2219    1.0000 </r>
       <r>   -6.2195    1.0000 </r>
       <r>   -4.2456    1.0000 </r>
       <r>   -4.2432    1.0000 </r>
       <r>   -2.4057    1.0000 </r>
       <r>   -2.4031    1.0000 </r>
       <r>   -1.5195    1.0000 </r>
       <r>   -1.5180    1.0000 </r>
       <r>   -1.5166    1.0000 </r>
       <r>   -1.5122    1.0000 </r>
       <r>   -1.0823    1.0000 </r>
       <r>   -1.0799    1.0000 </r>
       <r>   -0.7289    1.0000 </r>
       <r>    0.0672    1.0000 </r>
       <r>    0.1459    1.0000 </r>
       <r>    0.3689    1.0000 </r>
       <r>    0.3724    1.0000 </r>
       <r>    0.3740    1.0000 </r>
       <r>    0.3755    1.0000 </r>
       <r>    0.5700    1.0000 </r>
       <r>    0.5721    1.0000 </r>
       <r>    1.0312    1.0000 </r>
       <r>    1.0354    1.0000 </r>
       <r>    1.5009    1.0000 </r>
       <r>    1.5034    1.0000 </r>
       <r>    1.7607    1.0000 </r>
       <r>    2.2629    1.0000 </r>
       <r>    2.5166    1.0000 </r>
       <r>    2.5212    1.0000 </r>
       <r>    3.0730    1.0000 </r>
       <r>    3.0758    1.0000 </r>
       <r>    3.4169    1.0000 </r>
       <r>    3.5723    1.0000 </r>
       <r>    4.0124    1.0000 </r>
       <r>    4.0530    1.0000 </r>
       <r>    4.0583    1.0000 </r>
       <r>    4.2387    1.0000 </r>
       <r>    4.2428    1.0000 </r>
       <r>    4.6126    1.0000 </r>
       <r>    4.6181    1.0000 </r>
       <r>    4.7782    1.0000 </r>
       <r>    4.8905    1.0000 </r>
       <r>    4.8945    1.0000 </r>
       <r>    5.2893    1.0000 </r>
       <r>    7.3655    1.0000 </r>
       <r>    7.3706    1.0000 </r>
       <r>    7.3739    1.0000 </r>
       <r>    7.3753    1.0000 </r>
       <r>    9.3749    1.0000 </r>
       <r>    9.3765    1.0000 </r>
       <r>    9.3790    1.0000 </r>
       <r>    9.6415    0.9366 </r>
       <r>   10.4885    0.0000 </r>
       <r>   10.4907    0.0000 </r>
       <r>   12.1775    0.0000 </r>
       <r>   12.1788    0.0000 </r>
       <r>   12.1795    0.0000 </r>
       <r>   12.1860    0.0000 </r>
       <r>   13.6368    0.0000 </r>
       <r>   14.7689    0.0000 </r>
       <r>   14.7724    0.0000 </r>
       <r>   15.1188    0.0000 </r>
       <r>   15.1891    0.0000 </r>
       <r>   15.1907    0.0000 </r>
       <r>   15.4694    0.0000 </r>
       <r>   15.7082    0.0000 </r>
       <r>   15.7125    0.0000 </r>
       <r>   15.9425    0.0000 </r>
       <r>   18.0850    0.0000 </r>
       <r>   18.0886    0.0000 </r>
       <r>   18.0973    0.0000 </r>
       <r>   18.7393    0.0000 </r>
      </set>
      <set comment="kpoint 6">
       <r>  -11.9984    1.0000 </r>
       <r>  -10.5931    1.0000 </r>
       <r>  -10.5887    1.0000 </r>
       <r>   -8.0874    1.0000 </r>
       <r>   -7.2798    1.0000 </r>
       <r>   -6.6854    1.0000 </r>
       <r>   -6.6817    1.0000 </r>
       <r>   -6.0313    1.0000 </r>
       <r>   -6.0275    1.0000 </r>
       <r>   -5.4808    1.0000 </r>
       <r>   -5.4773    1.0000 </r>
       <r>   -5.4761    1.0000 </r>
       <r>   -5.4725    1.0000 </r>
       <r>   -5.1813    1.0000 </r>
       <r>   -5.1778    1.0000 </r>
       <r>   -4.7108    1.0000 </r>
       <r>   -3.8443    1.0000 </r>
       <r>   -3.8403    1.0000 </r>
       <r>   -3.8388    1.0000 </r>
       <r>   -3.8348    1.0000 </r>
       <r>   -3.7014    1.0000 </r>
       <r>   -3.3011    1.0000 </r>
       <r>   -3.2979    1.0000 </r>
       <r>   -3.2689    1.0000 </r>
       <r>   -3.2649    1.0000 </r>
       <r>   -2.1673    1.0000 </r>
       <r>   -2.1627    1.0000 </r>
       <r>   -2.0818    1.0000 </r>
       <r>   -1.6183    1.0000 </r>
       <r>    1.9926    1.0000 </r>
       <r>    1.9939    1.0000 </r>
       <r>    2.3318    1.0000 </r>
       <r>    2.6981    1.0000 </r>
       <r>    2.6996    1.0000 </r>
       <r>    2.7025    1.0000 </r>
       <r>    2.7040    1.0000 </r>
       <r>    3.0150    1.0000 </r>
       <r>    3.0163    1.0000 </r>
       <r>    3.0182    1.0000 </r>
       <r>    3.0222    1.0000 </r>
       <r>    3.1716    1.0000 </r>
       <r>    3.5436    1.0000 </r>
       <r>    3.5450    1.0000 </r>
       <r>    3.6596    1.0000 </r>
       <r>    3.6633    1.0000 </r>
       <r>    3.8026    1.0000 </r>
       <r>    5.6637    1.0000 </r>
       <r>    5.8283    1.0000 </r>
       <r>    6.0625    1.0000 </r>
       <r>    6.0633    1.0000 </r>
       <r>    6.2073    1.0000 </r>
       <r>    6.2081    1.0000 </r>
       <r>    6.4604    1.0000 </r>
       <r>    6.5888    1.0000 </r>
       <r>    6.7808    1.0000 </r>
       <r>    6.7830    1.0000 </r>
       <r>    7.2119    1.0000 </r>
       <r>    7.3012    1.0000 </r>
       <r>    7.3034    1.0000 </r>
       <r>    7.6269    1.0000 </r>
       <r>    7.6302    1.0000 </r>
       <r>    7.6320    1.0000 </r>
       <r>    7.6355    1.0000 </r>
       <r>    8.5891    1.0000 </r>
       <r>   11.3073    0.0000 </r>
       <r>   11.3146    0.0000 </r>
       <r>   11.3168    0.0000 </r>
       <r>   11.3240    0.0000 </r>
       <r>   11.6237    0.0000 </r>
       <r>   11.6303    0.0000 </r>
       <r>   13.1567    0.0000 </r>
       <r>   13.2242    0.0000 </r>
       <r>   13.2283    0.0000 </r>
       <r>   14.6008    0.0000 </r>
       <r>   14.8285    0.0000 </r>
       <r>   14.8316    0.0000 </r>
       <r>   14.9331    0.0000 </r>
       <r>   14.9364    0.0000 </r>
       <r>   15.1915    0.0000 </r>
       <r>   16.7976    0.0000 </r>
       <r>   16.8005    0.0000 </r>
       <r>   17.0346    0.0000 </r>
       <r>   17.0386    0.0000 </r>
       <r>   17.1240    0.0000 </r>
      </set>
      <set comment="kpoint 7">
       <r>  -11.8437    1.0000 </r>
       <r>  -10.4423    1.0000 </r>
       <r>  -10.4380    1.0000 </r>
       <r>   -7.9527    1.0000 </r>
       <r>   -7.7781    1.0000 </r>
       <r>   -7.7740    1.0000 </r>
       <r>   -6.5067    1.0000 </r>
       <r>   -6.5018    1.0000 </r>
       <r>   -6.5011    1.0000 </r>
       <r>   -6.4966    1.0000 </r>
       <r>   -6.1983    1.0000 </r>
       <r>   -5.3686    1.0000 </r>
       <r>   -5.0531    1.0000 </r>
       <r>   -5.0496    1.0000 </r>
       <r>   -4.5787    1.0000 </r>
       <r>   -4.5755    1.0000 </r>
       <r>   -4.0057    1.0000 </r>
       <r>   -4.0008    1.0000 </r>
       <r>   -3.5355    1.0000 </r>
       <r>   -3.5321    1.0000 </r>
       <r>   -2.7400    1.0000 </r>
       <r>   -2.6018    1.0000 </r>
       <r>   -2.5958    1.0000 </r>
       <r>   -2.5955    1.0000 </r>
       <r>   -2.5917    1.0000 </r>
       <r>   -2.5053    1.0000 </r>
       <r>   -1.8998    1.0000 </r>
       <r>   -0.9838    1.0000 </r>
       <r>   -0.9791    1.0000 </r>
       <r>    1.2263    1.0000 </r>
       <r>    1.9744    1.0000 </r>
       <r>    1.9784    1.0000 </r>
       <r>    2.1456    1.0000 </r>
       <r>    2.1491    1.0000 </r>
       <r>    2.7036    1.0000 </r>
       <r>    2.7070    1.0000 </r>
       <r>    2.8439    1.0000 </r>
       <r>    2.8455    1.0000 </r>
       <r>    2.8462    1.0000 </r>
       <r>    2.8517    1.0000 </r>
       <r>    2.9539    1.0000 </r>
       <r>    3.1679    1.0000 </r>
       <r>    3.1730    1.0000 </r>
       <r>    3.6799    1.0000 </r>
       <r>    3.6837    1.0000 </r>
       <r>    4.0185    1.0000 </r>
       <r>    5.0505    1.0000 </r>
       <r>    5.3630    1.0000 </r>
       <r>    5.5143    1.0000 </r>
       <r>    5.5214    1.0000 </r>
       <r>    5.8846    1.0000 </r>
       <r>    5.8921    1.0000 </r>
       <r>    6.1014    1.0000 </r>
       <r>    6.3291    1.0000 </r>
       <r>    6.7622    1.0000 </r>
       <r>    6.9879    1.0000 </r>
       <r>    6.9895    1.0000 </r>
       <r>    6.9911    1.0000 </r>
       <r>    6.9959    1.0000 </r>
       <r>    7.8859    1.0000 </r>
       <r>    7.8885    1.0000 </r>
       <r>    7.9090    1.0000 </r>
       <r>    7.9133    1.0000 </r>
       <r>    8.7078    1.0000 </r>
       <r>   11.1785    0.0000 </r>
       <r>   11.1880    0.0000 </r>
       <r>   12.0795    0.0000 </r>
       <r>   12.0871    0.0000 </r>
       <r>   12.0886    0.0000 </r>
       <r>   12.0906    0.0000 </r>
       <r>   12.6773    0.0000 </r>
       <r>   12.7432    0.0000 </r>
       <r>   12.7461    0.0000 </r>
       <r>   14.7594    0.0000 </r>
       <r>   15.0501    0.0000 </r>
       <r>   15.0555    0.0000 </r>
       <r>   15.5203    0.0000 </r>
       <r>   15.5232    0.0000 </r>
       <r>   15.9491    0.0000 </r>
       <r>   17.1732    0.0000 </r>
       <r>   17.2020    0.0000 </r>
       <r>   17.2038    0.0000 </r>
       <r>   17.2224    0.0000 </r>
       <r>   17.2664    0.0000 </r>
      </set>
      <set comment="kpoint 8">
       <r>  -11.5350    1.0000 </r>
       <r>  -10.1417    1.0000 </r>
       <r>  -10.1374    1.0000 </r>
       <r>   -8.8035    1.0000 </r>
       <r>   -8.1399    1.0000 </r>
       <r>   -7.6841    1.0000 </r>
       <r>   -7.4921    1.0000 </r>
       <r>   -7.4881    1.0000 </r>
       <r>   -6.8522    1.0000 </r>
       <r>   -6.8483    1.0000 </r>
       <r>   -6.2713    1.0000 </r>
       <r>   -5.3337    1.0000 </r>
       <r>   -5.0848    1.0000 </r>
       <r>   -5.0812    1.0000 </r>
       <r>   -4.7896    1.0000 </r>
       <r>   -4.7800    1.0000 </r>
       <r>   -3.4790    1.0000 </r>
       <r>   -3.4744    1.0000 </r>
       <r>   -2.9449    1.0000 </r>
       <r>   -2.7857    1.0000 </r>
       <r>   -2.1844    1.0000 </r>
       <r>   -1.9343    1.0000 </r>
       <r>   -1.7923    1.0000 </r>
       <r>   -1.7892    1.0000 </r>
       <r>   -1.5372    1.0000 </r>
       <r>   -1.1847    1.0000 </r>
       <r>   -1.1808    1.0000 </r>
       <r>   -0.3214    1.0000 </r>
       <r>    0.2787    1.0000 </r>
       <r>    0.2810    1.0000 </r>
       <r>    1.0171    1.0000 </r>
       <r>    1.0211    1.0000 </r>
       <r>    1.5811    1.0000 </r>
       <r>    1.6063    1.0000 </r>
       <r>    2.1463    1.0000 </r>
       <r>    2.2762    1.0000 </r>
       <r>    2.2785    1.0000 </r>
       <r>    2.3410    1.0000 </r>
       <r>    2.4569    1.0000 </r>
       <r>    3.1336    1.0000 </r>
       <r>    3.1377    1.0000 </r>
       <r>    3.2288    1.0000 </r>
       <r>    3.4476    1.0000 </r>
       <r>    3.4527    1.0000 </r>
       <r>    3.9519    1.0000 </r>
       <r>    3.9533    1.0000 </r>
       <r>    4.1341    1.0000 </r>
       <r>    4.5718    1.0000 </r>
       <r>    4.5787    1.0000 </r>
       <r>    4.6384    1.0000 </r>
       <r>    5.3301    1.0000 </r>
       <r>    5.3376    1.0000 </r>
       <r>    5.3861    1.0000 </r>
       <r>    5.8841    1.0000 </r>
       <r>    6.1486    1.0000 </r>
       <r>    6.1520    1.0000 </r>
       <r>    6.7425    1.0000 </r>
       <r>    6.7452    1.0000 </r>
       <r>    7.2548    1.0000 </r>
       <r>    8.0945    1.0000 </r>
       <r>    8.0988    1.0000 </r>
       <r>    8.7049    1.0000 </r>
       <r>    8.9360    1.0000 </r>
       <r>    9.0995    1.0000 </r>
       <r>   11.1934    0.0000 </r>
       <r>   11.2019    0.0000 </r>
       <r>   11.6830    0.0000 </r>
       <r>   12.1642    0.0000 </r>
       <r>   12.4565    0.0000 </r>
       <r>   12.5921    0.0000 </r>
       <r>   12.5967    0.0000 </r>
       <r>   13.1598    0.0000 </r>
       <r>   13.1641    0.0000 </r>
       <r>   14.8730    0.0000 </r>
       <r>   15.2894    0.0000 </r>
       <r>   15.6620    0.0000 </r>
       <r>   16.1814    0.0000 </r>
       <r>   16.4112    0.0000 </r>
       <r>   16.8722    0.0000 </r>
       <r>   16.8793    0.0000 </r>
       <r>   16.9851    0.0000 </r>
       <r>   17.1196    0.0000 </r>
       <r>   17.4330    0.0000 </r>
       <r>   17.5393    0.0000 </r>
      </set>
      <set comment="kpoint 9">
       <r>  -11.0736    1.0000 </r>
       <r>   -9.7036    1.0000 </r>
       <r>   -9.6925    1.0000 </r>
       <r>   -9.6882    1.0000 </r>
       <r>   -8.3642    1.0000 </r>
       <r>   -8.3602    1.0000 </r>
       <r>   -8.3570    1.0000 </r>
       <r>   -7.2830    1.0000 </r>
       <r>   -7.0648    1.0000 </r>
       <r>   -7.0609    1.0000 </r>
       <r>   -6.4383    1.0000 </r>
       <r>   -6.0978    1.0000 </r>
       <r>   -5.2266    1.0000 </r>
       <r>   -5.2229    1.0000 </r>
       <r>   -4.9576    1.0000 </r>
       <r>   -3.9555    1.0000 </r>
       <r>   -3.0939    1.0000 </r>
       <r>   -2.6731    1.0000 </r>
       <r>   -2.6686    1.0000 </r>
       <r>   -1.9021    1.0000 </r>
       <r>   -1.6017    1.0000 </r>
       <r>   -0.9975    1.0000 </r>
       <r>   -0.9697    1.0000 </r>
       <r>   -0.9664    1.0000 </r>
       <r>   -0.6303    1.0000 </r>
       <r>   -0.2861    1.0000 </r>
       <r>   -0.0244    1.0000 </r>
       <r>    0.0246    1.0000 </r>
       <r>    0.0288    1.0000 </r>
       <r>    0.2948    1.0000 </r>
       <r>    0.2987    1.0000 </r>
       <r>    0.5901    1.0000 </r>
       <r>    1.1979    1.0000 </r>
       <r>    1.2508    1.0000 </r>
       <r>    1.5244    1.0000 </r>
       <r>    1.5272    1.0000 </r>
       <r>    1.5700    1.0000 </r>
       <r>    2.1135    1.0000 </r>
       <r>    2.5316    1.0000 </r>
       <r>    2.5738    1.0000 </r>
       <r>    2.9183    1.0000 </r>
       <r>    3.1593    1.0000 </r>
       <r>    3.1648    1.0000 </r>
       <r>    3.5522    1.0000 </r>
       <r>    3.5565    1.0000 </r>
       <r>    3.8271    1.0000 </r>
       <r>    4.0487    1.0000 </r>
       <r>    4.0525    1.0000 </r>
       <r>    4.1135    1.0000 </r>
       <r>    4.3413    1.0000 </r>
       <r>    4.4244    1.0000 </r>
       <r>    4.7007    1.0000 </r>
       <r>    4.7074    1.0000 </r>
       <r>    5.3269    1.0000 </r>
       <r>    5.3307    1.0000 </r>
       <r>    5.3593    1.0000 </r>
       <r>    6.5860    1.0000 </r>
       <r>    6.5889    1.0000 </r>
       <r>    8.1179    1.0000 </r>
       <r>    8.1848    1.0000 </r>
       <r>    8.1882    1.0000 </r>
       <r>    9.2480    1.0000 </r>
       <r>    9.5767    0.9928 </r>
       <r>    9.6927    0.7892 </r>
       <r>   10.5388    0.0000 </r>
       <r>   11.2766    0.0000 </r>
       <r>   11.2828    0.0000 </r>
       <r>   11.4640    0.0000 </r>
       <r>   12.9577    0.0000 </r>
       <r>   12.9914    0.0000 </r>
       <r>   12.9951    0.0000 </r>
       <r>   14.2771    0.0000 </r>
       <r>   14.2802    0.0000 </r>
       <r>   14.9763    0.0000 </r>
       <r>   15.6319    0.0000 </r>
       <r>   15.6670    0.0000 </r>
       <r>   15.7602    0.0000 </r>
       <r>   16.1910    0.0000 </r>
       <r>   16.1964    0.0000 </r>
       <r>   16.5414    0.0000 </r>
       <r>   17.3873    0.0000 </r>
       <r>   17.7710    0.0000 </r>
       <r>   18.0164    0.0000 </r>
       <r>   18.0200    0.0000 </r>
      </set>
      <set comment="kpoint 10">
       <r>  -10.4636    1.0000 </r>
       <r>  -10.4598    1.0000 </r>
       <r>   -9.1011    1.0000 </r>
       <r>   -9.0967    1.0000 </r>
       <r>   -9.0959    1.0000 </r>
       <r>   -9.0912    1.0000 </r>
       <r>   -8.4348    1.0000 </r>
       <r>   -7.1362    1.0000 </r>
       <r>   -7.1322    1.0000 </r>
       <r>   -6.7545    1.0000 </r>
       <r>   -6.7506    1.0000 </r>
       <r>   -6.5009    1.0000 </r>
       <r>   -5.2828    1.0000 </r>
       <r>   -5.2791    1.0000 </r>
       <r>   -5.0171    1.0000 </r>
       <r>   -3.5370    1.0000 </r>
       <r>   -3.0123    1.0000 </r>
       <r>   -2.1534    1.0000 </r>
       <r>   -2.1496    1.0000 </r>
       <r>   -1.9279    1.0000 </r>
       <r>   -1.2797    1.0000 </r>
       <r>   -0.5559    1.0000 </r>
       <r>   -0.5522    1.0000 </r>
       <r>   -0.4869    1.0000 </r>
       <r>   -0.4827    1.0000 </r>
       <r>   -0.3950    1.0000 </r>
       <r>   -0.2863    1.0000 </r>
       <r>   -0.2826    1.0000 </r>
       <r>    0.0565    1.0000 </r>
       <r>    0.5748    1.0000 </r>
       <r>    0.9652    1.0000 </r>
       <r>    0.9693    1.0000 </r>
       <r>    1.0516    1.0000 </r>
       <r>    1.0561    1.0000 </r>
       <r>    1.5054    1.0000 </r>
       <r>    1.7760    1.0000 </r>
       <r>    1.7835    1.0000 </r>
       <r>    1.7844    1.0000 </r>
       <r>    1.7848    1.0000 </r>
       <r>    2.0361    1.0000 </r>
       <r>    2.0416    1.0000 </r>
       <r>    2.8045    1.0000 </r>
       <r>    2.8089    1.0000 </r>
       <r>    3.5483    1.0000 </r>
       <r>    3.5543    1.0000 </r>
       <r>    4.0772    1.0000 </r>
       <r>    4.0793    1.0000 </r>
       <r>    4.0795    1.0000 </r>
       <r>    4.0848    1.0000 </r>
       <r>    4.0986    1.0000 </r>
       <r>    4.6057    1.0000 </r>
       <r>    4.6096    1.0000 </r>
       <r>    4.6125    1.0000 </r>
       <r>    4.6177    1.0000 </r>
       <r>    4.8206    1.0000 </r>
       <r>    4.8275    1.0000 </r>
       <r>    6.5324    1.0000 </r>
       <r>    6.5355    1.0000 </r>
       <r>    8.2098    1.0000 </r>
       <r>    8.2122    1.0000 </r>
       <r>    8.9030    1.0000 </r>
       <r>    9.5734    0.9936 </r>
       <r>    9.5761    0.9929 </r>
       <r>    9.6647    0.8847 </r>
       <r>   10.2020    0.0000 </r>
       <r>   10.9014    0.0000 </r>
       <r>   11.3215    0.0000 </r>
       <r>   11.3255    0.0000 </r>
       <r>   13.1435    0.0000 </r>
       <r>   13.1472    0.0000 </r>
       <r>   14.2568    0.0000 </r>
       <r>   14.2612    0.0000 </r>
       <r>   15.0138    0.0000 </r>
       <r>   15.3050    0.0000 </r>
       <r>   15.3099    0.0000 </r>
       <r>   15.3129    0.0000 </r>
       <r>   15.3155    0.0000 </r>
       <r>   15.6508    0.0000 </r>
       <r>   16.0600    0.0000 </r>
       <r>   16.0641    0.0000 </r>
       <r>   18.4298    0.0000 </r>
       <r>   18.4446    0.0000 </r>
       <r>   18.5739    0.0000 </r>
       <r>   18.5768    0.0000 </r>
      </set>
      <set comment="kpoint 11">
       <r>  -11.0736    1.0000 </r>
       <r>   -9.7035    1.0000 </r>
       <r>   -9.6926    1.0000 </r>
       <r>   -9.6883    1.0000 </r>
       <r>   -8.3627    1.0000 </r>
       <r>   -8.3608    1.0000 </r>
       <r>   -8.3579    1.0000 </r>
       <r>   -7.2831    1.0000 </r>
       <r>   -7.0651    1.0000 </r>
       <r>   -7.0611    1.0000 </r>
       <r>   -6.4379    1.0000 </r>
       <r>   -6.0977    1.0000 </r>
       <r>   -5.2262    1.0000 </r>
       <r>   -5.2225    1.0000 </r>
       <r>   -4.9579    1.0000 </r>
       <r>   -3.9539    1.0000 </r>
       <r>   -3.0951    1.0000 </r>
       <r>   -2.6720    1.0000 </r>
       <r>   -2.6689    1.0000 </r>
       <r>   -1.9029    1.0000 </r>
       <r>   -1.6016    1.0000 </r>
       <r>   -0.9976    1.0000 </r>
       <r>   -0.9713    1.0000 </r>
       <r>   -0.9665    1.0000 </r>
       <r>   -0.6307    1.0000 </r>
       <r>   -0.2863    1.0000 </r>
       <r>   -0.0243    1.0000 </r>
       <r>    0.0246    1.0000 </r>
       <r>    0.0272    1.0000 </r>
       <r>    0.2942    1.0000 </r>
       <r>    0.2985    1.0000 </r>
       <r>    0.5903    1.0000 </r>
       <r>    1.1982    1.0000 </r>
       <r>    1.2500    1.0000 </r>
       <r>    1.5245    1.0000 </r>
       <r>    1.5293    1.0000 </r>
       <r>    1.5695    1.0000 </r>
       <r>    2.1132    1.0000 </r>
       <r>    2.5319    1.0000 </r>
       <r>    2.5750    1.0000 </r>
       <r>    2.9189    1.0000 </r>
       <r>    3.1606    1.0000 </r>
       <r>    3.1644    1.0000 </r>
       <r>    3.5523    1.0000 </r>
       <r>    3.5572    1.0000 </r>
       <r>    3.8275    1.0000 </r>
       <r>    4.0486    1.0000 </r>
       <r>    4.0524    1.0000 </r>
       <r>    4.1140    1.0000 </r>
       <r>    4.3417    1.0000 </r>
       <r>    4.4238    1.0000 </r>
       <r>    4.7011    1.0000 </r>
       <r>    4.7059    1.0000 </r>
       <r>    5.3270    1.0000 </r>
       <r>    5.3308    1.0000 </r>
       <r>    5.3589    1.0000 </r>
       <r>    6.5856    1.0000 </r>
       <r>    6.5888    1.0000 </r>
       <r>    8.1192    1.0000 </r>
       <r>    8.1861    1.0000 </r>
       <r>    8.1881    1.0000 </r>
       <r>    9.2479    1.0000 </r>
       <r>    9.5747    0.9933 </r>
       <r>    9.6927    0.7892 </r>
       <r>   10.5371    0.0000 </r>
       <r>   11.2770    0.0000 </r>
       <r>   11.2814    0.0000 </r>
       <r>   11.4660    0.0000 </r>
       <r>   12.9577    0.0000 </r>
       <r>   12.9910    0.0000 </r>
       <r>   12.9959    0.0000 </r>
       <r>   14.2766    0.0000 </r>
       <r>   14.2804    0.0000 </r>
       <r>   14.9765    0.0000 </r>
       <r>   15.6316    0.0000 </r>
       <r>   15.6670    0.0000 </r>
       <r>   15.7603    0.0000 </r>
       <r>   16.1917    0.0000 </r>
       <r>   16.1958    0.0000 </r>
       <r>   16.5416    0.0000 </r>
       <r>   17.3873    0.0000 </r>
       <r>   17.7744    0.0000 </r>
       <r>   18.0159    0.0000 </r>
       <r>   18.0198    0.0000 </r>
      </set>
      <set comment="kpoint 12">
       <r>  -11.5350    1.0000 </r>
       <r>  -10.1418    1.0000 </r>
       <r>  -10.1374    1.0000 </r>
       <r>   -8.8034    1.0000 </r>
       <r>   -8.1403    1.0000 </r>
       <r>   -7.6842    1.0000 </r>
       <r>   -7.4920    1.0000 </r>
       <r>   -7.4879    1.0000 </r>
       <r>   -6.8526    1.0000 </r>
       <r>   -6.8487    1.0000 </r>
       <r>   -6.2705    1.0000 </r>
       <r>   -5.3335    1.0000 </r>
       <r>   -5.0837    1.0000 </r>
       <r>   -5.0803    1.0000 </r>
       <r>   -4.7902    1.0000 </r>
       <r>   -4.7790    1.0000 </r>
       <r>   -3.4781    1.0000 </r>
       <r>   -3.4752    1.0000 </r>
       <r>   -2.9454    1.0000 </r>
       <r>   -2.7862    1.0000 </r>
       <r>   -2.1847    1.0000 </r>
       <r>   -1.9340    1.0000 </r>
       <r>   -1.7936    1.0000 </r>
       <r>   -1.7894    1.0000 </r>
       <r>   -1.5373    1.0000 </r>
       <r>   -1.1851    1.0000 </r>
       <r>   -1.1811    1.0000 </r>
       <r>   -0.3220    1.0000 </r>
       <r>    0.2778    1.0000 </r>
       <r>    0.2804    1.0000 </r>
       <r>    1.0167    1.0000 </r>
       <r>    1.0193    1.0000 </r>
       <r>    1.5825    1.0000 </r>
       <r>    1.6065    1.0000 </r>
       <r>    2.1453    1.0000 </r>
       <r>    2.2765    1.0000 </r>
       <r>    2.2809    1.0000 </r>
       <r>    2.3404    1.0000 </r>
       <r>    2.4573    1.0000 </r>
       <r>    3.1337    1.0000 </r>
       <r>    3.1383    1.0000 </r>
       <r>    3.2298    1.0000 </r>
       <r>    3.4475    1.0000 </r>
       <r>    3.4526    1.0000 </r>
       <r>    3.9511    1.0000 </r>
       <r>    3.9548    1.0000 </r>
       <r>    4.1352    1.0000 </r>
       <r>    4.5742    1.0000 </r>
       <r>    4.5774    1.0000 </r>
       <r>    4.6383    1.0000 </r>
       <r>    5.3315    1.0000 </r>
       <r>    5.3351    1.0000 </r>
       <r>    5.3860    1.0000 </r>
       <r>    5.8837    1.0000 </r>
       <r>    6.1486    1.0000 </r>
       <r>    6.1522    1.0000 </r>
       <r>    6.7415    1.0000 </r>
       <r>    6.7449    1.0000 </r>
       <r>    7.2558    1.0000 </r>
       <r>    8.0968    1.0000 </r>
       <r>    8.0988    1.0000 </r>
       <r>    8.7031    1.0000 </r>
       <r>    8.9359    1.0000 </r>
       <r>    9.0993    1.0000 </r>
       <r>   11.1935    0.0000 </r>
       <r>   11.1999    0.0000 </r>
       <r>   11.6811    0.0000 </r>
       <r>   12.1661    0.0000 </r>
       <r>   12.4567    0.0000 </r>
       <r>   12.5919    0.0000 </r>
       <r>   12.5980    0.0000 </r>
       <r>   13.1593    0.0000 </r>
       <r>   13.1642    0.0000 </r>
       <r>   14.8733    0.0000 </r>
       <r>   15.2891    0.0000 </r>
       <r>   15.6620    0.0000 </r>
       <r>   16.1849    0.0000 </r>
       <r>   16.4110    0.0000 </r>
       <r>   16.8732    0.0000 </r>
       <r>   16.8776    0.0000 </r>
       <r>   16.9845    0.0000 </r>
       <r>   17.1192    0.0000 </r>
       <r>   17.4292    0.0000 </r>
       <r>   17.5367    0.0000 </r>
      </set>
      <set comment="kpoint 13">
       <r>  -11.8437    1.0000 </r>
       <r>  -10.4424    1.0000 </r>
       <r>  -10.4380    1.0000 </r>
       <r>   -7.9528    1.0000 </r>
       <r>   -7.7766    1.0000 </r>
       <r>   -7.7759    1.0000 </r>
[...]
       <r>    0.5926    1.0000 </r>
       <r>    0.5951    1.0000 </r>
       <r>    0.8257    1.0000 </r>
       <r>    0.8291    1.0000 </r>
       <r>    1.1071    1.0000 </r>
       <r>    1.1096    1.0000 </r>
       <r>    1.1262    1.0000 </r>
       <r>    1.1272    1.0000 </r>
       <r>    2.1703    1.0000 </r>
       <r>    2.1715    1.0000 </r>
       <r>    2.2192    1.0000 </r>
       <r>    2.2224    1.0000 </r>
       <r>    2.7370    1.0000 </r>
       <r>    2.7390    1.0000 </r>
       <r>    3.0838    1.0000 </r>
       <r>    3.0856    1.0000 </r>
       <r>    3.5799    1.0000 </r>
       <r>    3.5810    1.0000 </r>
       <r>    3.7642    1.0000 </r>
       <r>    3.7690    1.0000 </r>
       <r>    4.0947    1.0000 </r>
       <r>    4.0963    1.0000 </r>
       <r>    4.3759    1.0000 </r>
       <r>    4.3809    1.0000 </r>
       <r>    5.1484    1.0000 </r>
       <r>    5.1501    1.0000 </r>
       <r>    5.4729    1.0000 </r>
       <r>    5.4745    1.0000 </r>
       <r>    7.4995    1.0000 </r>
       <r>    7.5048    1.0000 </r>
       <r>    8.4799    1.0000 </r>
       <r>    8.4844    1.0000 </r>
       <r>    8.8380    1.0000 </r>
       <r>    8.8406    1.0000 </r>
       <r>    9.1894    1.0000 </r>
       <r>    9.1933    1.0000 </r>
       <r>   10.6697    0.0000 </r>
       <r>   10.6735    0.0000 </r>
       <r>   11.6363    0.0000 </r>
       <r>   11.6416    0.0000 </r>
       <r>   13.1308    0.0000 </r>
       <r>   13.1350    0.0000 </r>
       <r>   13.2693    0.0000 </r>
       <r>   13.2738    0.0000 </r>
       <r>   14.4884    0.0000 </r>
       <r>   14.4931    0.0000 </r>
       <r>   15.5972    0.0000 </r>
       <r>   15.6007    0.0000 </r>
       <r>   15.7046    0.0000 </r>
       <r>   15.7085    0.0000 </r>
       <r>   16.8086    0.0000 </r>
       <r>   16.8160    0.0000 </r>
       <r>   16.9247    0.0000 </r>
       <r>   16.9283    0.0000 </r>
       <r>   18.0613    0.0000 </r>
       <r>   18.0701    0.0000 </r>
      </set>
     </set>
    </set>
   </array>
  </eigenvalues>
  <separator name="orbital magnetization" >
   <v name="MAGDIPOLOUT">      0.00000000      0.00000000      0.00000000</v>
  </separator>
  <dos>
   <i name="efermi">      9.74952496 </i>
   <total>
    <array>
     <dimension dim="1">gridpoints</dimension>
     <dimension dim="2">spin</dimension>
     <field>energy</field>
     <field>total</field>
     <field>integrated</field>
     <set>
      <set comment="spin 1">
       <r>   -13.6384     0.0000     0.0000 </r>
       <r>   -13.5238     0.0000     0.0000 </r>
       <r>   -13.4092     0.0000     0.0000 </r>
       <r>   -13.2946     0.0000     0.0000 </r>
       <r>   -13.1800     0.0000     0.0000 </r>
       <r>   -13.0654     0.0000     0.0000 </r>
       <r>   -12.9509     0.0000     0.0000 </r>
       <r>   -12.8363     0.0000     0.0000 </r>
       <r>   -12.7217     0.0000     0.0000 </r>
       <r>   -12.6071     0.0000     0.0000 </r>
       <r>   -12.4925     0.0000     0.0000 </r>
       <r>   -12.3779     0.0000     0.0000 </r>
       <r>   -12.2633     0.0002     0.0000 </r>
       <r>   -12.1487     0.0146     0.0017 </r>
       <r>   -12.0341     0.1741     0.0217 </r>
       <r>   -11.9195     0.5695     0.0869 </r>
       <r>   -11.8049     0.8347     0.1826 </r>
       <r>   -11.6904     1.1512     0.3145 </r>
       <r>   -11.5758     1.1861     0.4504 </r>
       <r>   -11.4612     1.5546     0.6285 </r>
       <r>   -11.3466     1.7112     0.8246 </r>
       <r>   -11.2320     1.2815     0.9715 </r>
       <r>   -11.1174     1.9553     1.1955 </r>
       <r>   -11.0028     2.5531     1.4881 </r>
       <r>   -10.8882     1.8854     1.7042 </r>
       <r>   -10.7736     1.6407     1.8922 </r>
       <r>   -10.6590     2.5621     2.1858 </r>
       <r>   -10.5444     2.4076     2.4616 </r>
       <r>   -10.4299     2.6768     2.7684 </r>
       <r>   -10.3153     2.8833     3.0988 </r>
       <r>   -10.2007     2.5821     3.3947 </r>
       <r>   -10.0861     2.6092     3.6937 </r>
       <r>    -9.9715     2.4519     3.9746 </r>
       <r>    -9.8569     2.7860     4.2939 </r>
       <r>    -9.7423     3.6894     4.7166 </r>
       <r>    -9.6277     4.3416     5.2142 </r>
       <r>    -9.5131     2.8760     5.5437 </r>
       <r>    -9.3985     2.1031     5.7847 </r>
       <r>    -9.2839     3.0618     6.1356 </r>
       <r>    -9.1694     4.0386     6.5984 </r>
       <r>    -9.0548     4.3202     7.0934 </r>
       <r>    -8.9402     4.3747     7.5947 </r>
       <r>    -8.8256     3.6629     8.0144 </r>
       <r>    -8.7110     3.3500     8.3983 </r>
       <r>    -8.5964     3.4129     8.7894 </r>
       <r>    -8.4818     4.1659     9.2668 </r>
       <r>    -8.3672     5.1182     9.8533 </r>
       <r>    -8.2526     5.2321    10.4528 </r>
       <r>    -8.1380     3.8310    10.8918 </r>
       <r>    -8.0234     4.9961    11.4643 </r>
       <r>    -7.9089     5.5579    12.1012 </r>
       <r>    -7.7943     4.6498    12.6340 </r>
       <r>    -7.6797     5.2552    13.2362 </r>
       <r>    -7.5651     5.1514    13.8265 </r>
       <r>    -7.4505     4.1220    14.2989 </r>
       <r>    -7.3359     4.8525    14.8549 </r>
       <r>    -7.2213     5.1681    15.4472 </r>
       <r>    -7.1067     6.2002    16.1576 </r>
       <r>    -6.9921     6.7250    16.9283 </r>
       <r>    -6.8775     4.5874    17.4539 </r>
       <r>    -6.7629     3.7994    17.8893 </r>
       <r>    -6.6484     4.0992    18.3591 </r>
       <r>    -6.5338     5.2941    18.9657 </r>
       <r>    -6.4192     6.2571    19.6827 </r>
       <r>    -6.3046     6.8079    20.4628 </r>
       <r>    -6.1900     5.5039    21.0935 </r>
       <r>    -6.0754     5.5979    21.7350 </r>
       <r>    -5.9608     4.5863    22.2606 </r>
       <r>    -5.8462     4.6256    22.7906 </r>
       <r>    -5.7316     5.0606    23.3705 </r>
       <r>    -5.6170     4.3099    23.8644 </r>
       <r>    -5.5024     5.8207    24.5314 </r>
       <r>    -5.3879     4.9752    25.1015 </r>
       <r>    -5.2733     4.5388    25.6216 </r>
       <r>    -5.1587     6.5639    26.3738 </r>
       <r>    -5.0441     5.7152    27.0287 </r>
       <r>    -4.9295     5.6743    27.6789 </r>
       <r>    -4.8149     4.9985    28.2517 </r>
       <r>    -4.7003     5.9505    28.9336 </r>
       <r>    -4.5857     5.4736    29.5608 </r>
       <r>    -4.4711     4.3138    30.0551 </r>
       <r>    -4.3565     3.0592    30.4057 </r>
       <r>    -4.2419     2.7838    30.7247 </r>
       <r>    -4.1274     3.2824    31.1008 </r>
       <r>    -4.0128     3.3417    31.4837 </r>
       <r>    -3.8982     4.9865    32.0551 </r>
       <r>    -3.7836     5.6709    32.7050 </r>
       <r>    -3.6690     4.6512    33.2379 </r>
       <r>    -3.5544     4.8218    33.7905 </r>
       <r>    -3.4398     6.2197    34.5032 </r>
       <r>    -3.3252     4.4216    35.0099 </r>
       <r>    -3.2106     5.4109    35.6299 </r>
       <r>    -3.0960     7.3167    36.4684 </r>
       <r>    -2.9814     8.3671    37.4272 </r>
       <r>    -2.8669     5.0854    38.0099 </r>
       <r>    -2.7523     4.4299    38.5175 </r>
       <r>    -2.6377     6.3375    39.2437 </r>
       <r>    -2.5231     4.8865    39.8037 </r>
       <r>    -2.4085     4.9081    40.3661 </r>
       <r>    -2.2939     4.6273    40.8963 </r>
       <r>    -2.1793     5.7195    41.5518 </r>
       <r>    -2.0647     6.4546    42.2914 </r>
       <r>    -1.9501     5.3638    42.9060 </r>
       <r>    -1.8355     6.4941    43.6502 </r>
       <r>    -1.7209     4.8455    44.2054 </r>
       <r>    -1.6064     4.8716    44.7637 </r>
       <r>    -1.4918     4.8206    45.3161 </r>
       <r>    -1.3772     4.3646    45.8162 </r>
       <r>    -1.2626     5.5502    46.4522 </r>
       <r>    -1.1480     6.2589    47.1694 </r>
       <r>    -1.0334     8.2199    48.1114 </r>
       <r>    -0.9188     6.8440    48.8956 </r>
       <r>    -0.8042     4.2067    49.3777 </r>
       <r>    -0.6896     4.7264    49.9193 </r>
       <r>    -0.5750     6.6534    50.6817 </r>
       <r>    -0.4604     7.5802    51.5503 </r>
       <r>    -0.3459     9.0097    52.5827 </r>
       <r>    -0.2313     8.9244    53.6054 </r>
       <r>    -0.1167     5.5973    54.2468 </r>
       <r>    -0.0021     5.5966    54.8881 </r>
       <r>     0.1125     6.8703    55.6754 </r>
       <r>     0.2271     7.3163    56.5138 </r>
       <r>     0.3417     8.1707    57.4501 </r>
       <r>     0.4563     7.9297    58.3587 </r>
       <r>     0.5709     7.3487    59.2008 </r>
       <r>     0.6855     8.8765    60.2180 </r>
       <r>     0.8001     9.0921    61.2599 </r>
       <r>     0.9146     5.2956    61.8667 </r>
       <r>     1.0292     6.6719    62.6312 </r>
       <r>     1.1438    10.1679    63.7964 </r>
       <r>     1.2584     8.0059    64.7138 </r>
       <r>     1.3730     7.5233    65.5759 </r>
       <r>     1.4876    10.1773    66.7421 </r>
       <r>     1.6022     9.7072    67.8545 </r>
       <r>     1.7168     7.6951    68.7362 </r>
       <r>     1.8314     7.9764    69.6503 </r>
       <r>     1.9460     8.5680    70.6321 </r>
       <r>     2.0606    12.2478    72.0356 </r>
       <r>     2.1751    13.8115    73.6182 </r>
       <r>     2.2897     9.3905    74.6943 </r>
       <r>     2.4043     9.0195    75.7279 </r>
       <r>     2.5189     9.8280    76.8541 </r>
       <r>     2.6335    10.6551    78.0750 </r>
       <r>     2.7481    11.9339    79.4426 </r>
       <r>     2.8627    12.3408    80.8567 </r>
       <r>     2.9773    13.7048    82.4271 </r>
       <r>     3.0919    12.4262    83.8511 </r>
       <r>     3.2065    11.0371    85.1158 </r>
       <r>     3.3211     8.7358    86.1169 </r>
       <r>     3.4356     9.4537    87.2002 </r>
       <r>     3.5502    13.8430    88.7865 </r>
       <r>     3.6648    14.1125    90.4036 </r>
       <r>     3.7794    12.3343    91.8170 </r>
       <r>     3.8940    10.9086    93.0670 </r>
       <r>     4.0086     8.4284    94.0329 </r>
       <r>     4.1232    10.5736    95.2445 </r>
       <r>     4.2378     7.5615    96.1110 </r>
       <r>     4.3524     7.4006    96.9590 </r>
       <r>     4.4670     8.5743    97.9415 </r>
       <r>     4.5816    10.9515    99.1965 </r>
       <r>     4.6961    10.4608   100.3952 </r>
       <r>     4.8107     8.7828   101.4016 </r>
       <r>     4.9253     6.3524   102.1296 </r>
       <r>     5.0399     6.4038   102.8634 </r>
       <r>     5.1545     6.7351   103.6352 </r>
       <r>     5.2691     8.0988   104.5632 </r>
       <r>     5.3837     9.1218   105.6085 </r>
       <r>     5.4983     8.2780   106.5571 </r>
       <r>     5.6129     5.9225   107.2357 </r>
       <r>     5.7275     5.0487   107.8143 </r>
       <r>     5.8421     7.3420   108.6556 </r>
       <r>     5.9566     7.3897   109.5024 </r>
       <r>     6.0712     5.4715   110.1294 </r>
       <r>     6.1858     5.2173   110.7272 </r>
       <r>     6.3004     5.4370   111.3503 </r>
       <r>     6.4150     4.7343   111.8928 </r>
       <r>     6.5296     3.4623   112.2895 </r>
       <r>     6.6442     3.4945   112.6900 </r>
       <r>     6.7588     4.2997   113.1827 </r>
       <r>     6.8734     5.0439   113.7606 </r>
       <r>     6.9880     3.3278   114.1420 </r>
       <r>     7.1026     3.0744   114.4943 </r>
       <r>     7.2171     1.8046   114.7011 </r>
       <r>     7.3317     2.6795   115.0081 </r>
       <r>     7.4463     5.2045   115.6045 </r>
       <r>     7.5609     6.2517   116.3209 </r>
       <r>     7.6755     5.7859   116.9839 </r>
       <r>     7.7901     3.2763   117.3593 </r>
       <r>     7.9047     2.3376   117.6272 </r>
       <r>     8.0193     4.2879   118.1186 </r>
       <r>     8.1339     8.2008   119.0583 </r>
       <r>     8.2485     8.0831   119.9845 </r>
       <r>     8.3630     5.8282   120.6524 </r>
       <r>     8.4776     5.6284   121.2974 </r>
       <r>     8.5922     5.1238   121.8845 </r>
       <r>     8.7068     5.3053   122.4924 </r>
       <r>     8.8214     7.0979   123.3058 </r>
       <r>     8.9360     7.2972   124.1420 </r>
       <r>     9.0506     4.2978   124.6345 </r>
       <r>     9.1652     4.7393   125.1776 </r>
       <r>     9.2798     3.7894   125.6118 </r>
       <r>     9.3944     4.2526   126.0991 </r>
       <r>     9.5090     6.2158   126.8114 </r>
       <r>     9.6235     5.9014   127.4876 </r>
       <r>     9.7381     4.0995   127.9574 </r>
       <r>     9.8527     3.1417   128.3174 </r>
       <r>     9.9673     1.5734   128.4977 </r>
       <r>    10.0819     1.1379   128.6281 </r>
       <r>    10.1965     1.1768   128.7629 </r>
       <r>    10.3111     0.4311   128.8124 </r>
       <r>    10.4257     0.4419   128.8630 </r>
       <r>    10.5403     2.7231   129.1750 </r>
       <r>    10.6549     3.7152   129.6008 </r>
       <r>    10.7695     3.1826   129.9654 </r>
       <r>    10.8840     2.2861   130.2274 </r>
       <r>    10.9986     0.6193   130.2984 </r>
       <r>    11.1132     0.8669   130.3977 </r>
       <r>    11.2278     3.6058   130.8109 </r>
       <r>    11.3424     6.2819   131.5308 </r>
       <r>    11.4570     5.8108   132.1966 </r>
       <r>    11.5716     5.9350   132.8767 </r>
       <r>    11.6862     6.9073   133.6682 </r>
       <r>    11.8008     4.7523   134.2128 </r>
       <r>    11.9154     4.0954   134.6821 </r>
       <r>    12.0300     4.2234   135.1661 </r>
       <r>    12.1445     5.2732   135.7703 </r>
       <r>    12.2591     6.6413   136.5314 </r>
       <r>    12.3737     6.1221   137.2329 </r>
       <r>    12.4883     5.3333   137.8440 </r>
       <r>    12.6029     4.4961   138.3592 </r>
       <r>    12.7175     3.3871   138.7474 </r>
       <r>    12.8321     3.0062   139.0919 </r>
       <r>    12.9467     4.0754   139.5589 </r>
       <r>    13.0613     6.4845   140.3019 </r>
       <r>    13.1759     6.0894   140.9997 </r>
       <r>    13.2905     4.0566   141.4646 </r>
       <r>    13.4050     3.6140   141.8787 </r>
       <r>    13.5196     3.3235   142.2595 </r>
       <r>    13.6342     3.7369   142.6877 </r>
       <r>    13.7488     4.9944   143.2601 </r>
       <r>    13.8634     3.3907   143.6486 </r>
       <r>    13.9780     2.1070   143.8901 </r>
       <r>    14.0926     2.8196   144.2132 </r>
       <r>    14.2072     3.3284   144.5946 </r>
       <r>    14.3218     4.7848   145.1429 </r>
       <r>    14.4364     6.3185   145.8669 </r>
       <r>    14.5510     6.7212   146.6371 </r>
       <r>    14.6655     3.7359   147.0652 </r>
       <r>    14.7801     5.8439   147.7348 </r>
       <r>    14.8947     6.2553   148.4516 </r>
       <r>    15.0093     5.2764   149.0563 </r>
       <r>    15.1239     5.4247   149.6779 </r>
       <r>    15.2385     6.4137   150.4129 </r>
       <r>    15.3531     7.0454   151.2202 </r>
       <r>    15.4677     4.3942   151.7237 </r>
       <r>    15.5823     3.7352   152.1518 </r>
       <r>    15.6969     6.3327   152.8774 </r>
       <r>    15.8115     6.5015   153.6224 </r>
       <r>    15.9260     4.9860   154.1938 </r>
       <r>    16.0406     4.9273   154.7584 </r>
       <r>    16.1552     6.6323   155.5184 </r>
       <r>    16.2698     9.4687   156.6034 </r>
       <r>    16.3844     5.5859   157.2435 </r>
       <r>    16.4990     4.8728   157.8019 </r>
       <r>    16.6136     5.1724   158.3946 </r>
       <r>    16.7282     6.8684   159.1817 </r>
       <r>    16.8428     8.3935   160.1435 </r>
       <r>    16.9574     7.1701   160.9651 </r>
       <r>    17.0720     5.3060   161.5731 </r>
       <r>    17.1865     7.6501   162.4498 </r>
       <r>    17.3011     7.3808   163.2955 </r>
       <r>    17.4157     5.2472   163.8968 </r>
       <r>    17.5303     5.4626   164.5228 </r>
       <r>    17.6449     3.5199   164.9261 </r>
       <r>    17.7595     3.0411   165.2746 </r>
       <r>    17.8741     2.9422   165.6118 </r>
       <r>    17.9887     3.7871   166.0457 </r>
       <r>    18.1033     5.2346   166.6456 </r>
       <r>    18.2179     3.4375   167.0395 </r>
       <r>    18.3325     2.6217   167.3399 </r>
       <r>    18.4470     1.8879   167.5562 </r>
       <r>    18.5616     1.6065   167.7403 </r>
       <r>    18.6762     0.8825   167.8415 </r>
       <r>    18.7908     0.4119   167.8887 </r>
       <r>    18.9054     0.4075   167.9354 </r>
       <r>    19.0200     0.3127   167.9712 </r>
       <r>    19.1346     0.1086   167.9836 </r>
       <r>    19.2492     0.1173   167.9971 </r>
       <r>    19.3638     0.0248   167.9999 </r>
       <r>    19.4784     0.0006   168.0000 </r>
       <r>    19.5930     0.0000   168.0000 </r>
       <r>    19.7075     0.0000   168.0000 </r>
       <r>    19.8221     0.0000   168.0000 </r>
       <r>    19.9367     0.0000   168.0000 </r>
       <r>    20.0513     0.0000   168.0000 </r>
       <r>    20.1659     0.0000   168.0000 </r>
       <r>    20.2805     0.0000   168.0000 </r>
       <r>    20.3951     0.0000   168.0000 </r>
       <r>    20.5097     0.0000   168.0000 </r>
       <r>    20.6243     0.0000   168.0000 </r>
       <r>    20.7389     0.0000   168.0000 </r>
      </set>
     </set>
    </array>
   </total>
  </dos>
 </calculation>
 <structure name="finalpos" >
  <crystal>
   <varray name="basis" >
    <v>       4.93431088      -0.00022240       0.00000000 </v>
    <v>      -2.46734805       4.27312738       0.00000000 </v>
    <v>       0.00000000       0.00000000       8.74346501 </v>
   </varray>
   <i name="volume">    184.35062777 </i>
   <varray name="rec_basis" >
    <v>       0.20266782       0.11702250       0.00000000 </v>
    <v>       0.00001055       0.23402673       0.00000000 </v>
    <v>       0.00000000       0.00000000       0.11437113 </v>
   </varray>
  </crystal>
  <varray name="positions" >
   <v>       0.49999985       0.00000017       0.12500000 </v>
   <v>       0.99999985       0.00000017       0.12500000 </v>
   <v>       0.49999985       0.50000017       0.12500000 </v>
   <v>       0.99999985       0.50000017       0.12500000 </v>
   <v>       0.49999985       0.00000017       0.62500000 </v>
   <v>       0.99999985       0.00000017       0.62500000 </v>
   <v>       0.49999985       0.50000017       0.62500000 </v>
   <v>       0.99999985       0.50000017       0.62500000 </v>
   <v>       0.00000017       0.49999985       0.37500000 </v>
   <v>       0.50000017       0.49999985       0.37500000 </v>
   <v>       0.00000017       0.99999985       0.37500000 </v>
   <v>       0.50000017       0.99999985       0.37500000 </v>
   <v>       0.00000017       0.49999985       0.87500000 </v>
   <v>       0.50000017       0.49999985       0.87500000 </v>
   <v>       0.00000017       0.99999985       0.87500000 </v>
   <v>       0.50000017       0.99999985       0.87500000 </v>
   <v>       0.16764551       0.33335053       0.12599605 </v>
   <v>       0.66664946       0.33335053       0.12500000 </v>
   <v>       0.16664946       0.83335053       0.12500000 </v>
   <v>       0.66664946       0.83335053       0.12500000 </v>
   <v>       0.16664946       0.33335053       0.62500000 </v>
   <v>       0.66664946       0.33335053       0.62500000 </v>
   <v>       0.16664946       0.83335053       0.62500000 </v>
   <v>       0.66664946       0.83335053       0.62500000 </v>
   <v>       0.33335053       0.16664946       0.37500000 </v>
   <v>       0.83335053       0.16664946       0.37500000 </v>
   <v>       0.33335053       0.66664946       0.37500000 </v>
   <v>       0.83335053       0.66664946       0.37500000 </v>
   <v>       0.33335053       0.16664946       0.87500000 </v>
   <v>       0.83335053       0.16664946       0.87500000 </v>
   <v>       0.33335053       0.66664946       0.87500000 </v>
   <v>       0.83335053       0.66664946       0.87500000 </v>
  </varray>
 </structure>
</modeling>
