  48  48   0   0
  0.9428188E+01  0.7305636E-09  0.9308106E-09  0.6655032E-09  0.5000000E-15
  1.000000000000000E-004
  CAR 
 benzene                                 
     10.59241109    -18.67950273  301     -1.28710727      1.00000000
    -18.680  0.0000E+00  0.0000E+00
    -18.582  0.0000E+00  0.0000E+00
    -18.484  0.0000E+00  0.0000E+00
    -18.387  0.0000E+00  0.0000E+00
    -18.289  0.0000E+00  0.0000E+00
    -18.192  0.0000E+00  0.0000E+00
    -18.094  0.0000E+00  0.0000E+00
    -17.996  0.0000E+00  0.0000E+00
    -17.899  0.0000E+00  0.0000E+00
    -17.801  0.0000E+00  0.0000E+00
    -17.704  0.0000E+00  0.0000E+00
    -17.606  0.0000E+00  0.0000E+00
    -17.509  0.0000E+00  0.0000E+00
    -17.411  0.0000E+00  0.0000E+00
    -17.313  0.0000E+00  0.0000E+00
    -17.216  0.0000E+00  0.0000E+00
    -17.118  0.0000E+00  0.0000E+00
    -17.021  0.0000E+00  0.0000E+00
    -16.923  0.0000E+00  0.0000E+00
    -16.826  0.0000E+00  0.0000E+00
    -16.728  0.0000E+00  0.0000E+00
    -16.630  0.7071E-01  0.1937E-02
    -16.533  0.4811E+00  0.2287E-01
    -16.435  0.0000E+00  0.4000E-01
    -16.338  0.0000E+00  0.4000E-01
    -16.240  0.0000E+00  0.4000E-01
    -16.143  0.0000E+00  0.4000E-01
    -16.045  0.0000E+00  0.4000E-01
    -15.947  0.0000E+00  0.4000E-01
    -15.850  0.0000E+00  0.4000E-01
    -15.752  0.0000E+00  0.4000E-01
    -15.655  0.0000E+00  0.4000E-01
    -15.557  0.0000E+00  0.4000E-01
    -15.460  0.0000E+00  0.4000E-01
    -15.362  0.0000E+00  0.4000E-01
    -15.264  0.0000E+00  0.4000E-01
    -15.167  0.0000E+00  0.4000E-01
    -15.069  0.0000E+00  0.4000E-01
    -14.972  0.0000E+00  0.4000E-01
    -14.874  0.0000E+00  0.4000E-01
    -14.777  0.0000E+00  0.4000E-01
    -14.679  0.0000E+00  0.4000E-01
    -14.581  0.0000E+00  0.4000E-01
    -14.484  0.0000E+00  0.4000E-01
    -14.386  0.0000E+00  0.4000E-01
    -14.289  0.0000E+00  0.4000E-01
    -14.191  0.0000E+00  0.4000E-01
    -14.094  0.0000E+00  0.4000E-01
    -13.996  0.0000E+00  0.4000E-01
    -13.898  0.4844E-01  0.4194E-01
    -13.801  0.4545E+00  0.6119E-01
    -13.703  0.4471E+00  0.9094E-01
    -13.606  0.0000E+00  0.1200E+00
    -13.508  0.0000E+00  0.1200E+00
    -13.411  0.0000E+00  0.1200E+00
    -13.313  0.0000E+00  0.1200E+00
    -13.215  0.0000E+00  0.1200E+00
    -13.118  0.0000E+00  0.1200E+00
    -13.020  0.0000E+00  0.1200E+00
    -12.923  0.0000E+00  0.1200E+00
    -12.825  0.0000E+00  0.1200E+00
    -12.728  0.0000E+00  0.1200E+00
    -12.630  0.0000E+00  0.1200E+00
    -12.532  0.0000E+00  0.1200E+00
    -12.435  0.0000E+00  0.1200E+00
    -12.337  0.0000E+00  0.1200E+00
    -12.240  0.0000E+00  0.1200E+00
    -12.142  0.0000E+00  0.1200E+00
    -12.045  0.0000E+00  0.1200E+00
    -11.947  0.0000E+00  0.1200E+00
    -11.849  0.0000E+00  0.1200E+00
    -11.752  0.0000E+00  0.1200E+00
    -11.654  0.0000E+00  0.1200E+00
    -11.557  0.0000E+00  0.1200E+00
    -11.459  0.0000E+00  0.1200E+00
    -11.362  0.0000E+00  0.1200E+00
    -11.264  0.0000E+00  0.1200E+00
    -11.166  0.0000E+00  0.1200E+00
    -11.069  0.0000E+00  0.1200E+00
    -10.971  0.0000E+00  0.1200E+00
    -10.874  0.0000E+00  0.1200E+00
    -10.776  0.0000E+00  0.1200E+00
    -10.679  0.0000E+00  0.1200E+00
    -10.581  0.0000E+00  0.1200E+00
    -10.483  0.0000E+00  0.1200E+00
    -10.386  0.0000E+00  0.1200E+00
    -10.288  0.0000E+00  0.1200E+00
    -10.191  0.4288E+00  0.1416E+00
    -10.093  0.2240E+00  0.1661E+00
     -9.996  0.2024E+00  0.1914E+00
     -9.898  0.2143E-01  0.1995E+00
     -9.800  0.0000E+00  0.2000E+00
     -9.703  0.0000E+00  0.2000E+00
     -9.605  0.0000E+00  0.2000E+00
     -9.508  0.0000E+00  0.2000E+00
     -9.410  0.0000E+00  0.2000E+00
     -9.312  0.0000E+00  0.2000E+00
     -9.215  0.0000E+00  0.2000E+00
     -9.117  0.0000E+00  0.2000E+00
     -9.020  0.0000E+00  0.2000E+00
     -8.922  0.0000E+00  0.2000E+00
     -8.825  0.0000E+00  0.2000E+00
     -8.727  0.0000E+00  0.2000E+00
     -8.629  0.0000E+00  0.2000E+00
     -8.532  0.1851E-01  0.2006E+00
     -8.434  0.3076E-01  0.2031E+00
     -8.337  0.4386E-01  0.2067E+00
     -8.239  0.7600E-01  0.2122E+00
     -8.142  0.1669E+00  0.2223E+00
     -8.044  0.5499E-01  0.2335E+00
     -7.946  0.2853E-01  0.2374E+00
     -7.849  0.1321E-01  0.2394E+00
     -7.751  0.0000E+00  0.2400E+00
     -7.654  0.0000E+00  0.2400E+00
     -7.556  0.0000E+00  0.2400E+00
     -7.459  0.0000E+00  0.2400E+00
     -7.361  0.0000E+00  0.2400E+00
     -7.263  0.0000E+00  0.2400E+00
     -7.166  0.0000E+00  0.2400E+00
     -7.068  0.0000E+00  0.2400E+00
     -6.971  0.0000E+00  0.2400E+00
     -6.873  0.0000E+00  0.2400E+00
     -6.776  0.1529E-01  0.2405E+00
     -6.678  0.4204E-01  0.2432E+00
     -6.580  0.9053E-01  0.2498E+00
     -6.483  0.7274E-01  0.2617E+00
     -6.385  0.7638E-01  0.2715E+00
     -6.288  0.5436E-01  0.2775E+00
     -6.190  0.6395E+00  0.2925E+00
     -6.093  0.0000E+00  0.3200E+00
     -5.995  0.0000E+00  0.3200E+00
     -5.897  0.4775E-02  0.3200E+00
     -5.800  0.2000E+00  0.3278E+00
     -5.702  0.1020E+00  0.3463E+00
     -5.605  0.5346E-01  0.3545E+00
     -5.507  0.5659E-01  0.3598E+00
     -5.410  0.1207E+00  0.3682E+00
     -5.312  0.1415E+00  0.3843E+00
     -5.214  0.6363E-01  0.3985E+00
     -5.117  0.0000E+00  0.4000E+00
     -5.019  0.0000E+00  0.4000E+00
     -4.922  0.0000E+00  0.4000E+00
     -4.824  0.0000E+00  0.4000E+00
     -4.727  0.0000E+00  0.4000E+00
     -4.629  0.0000E+00  0.4000E+00
     -4.531  0.6547E-01  0.4032E+00
     -4.434  0.1221E+00  0.4116E+00
     -4.336  0.1258E+00  0.4237E+00
     -4.239  0.9760E-01  0.4370E+00
     -4.141  0.2908E-02  0.4400E+00
     -4.044  0.0000E+00  0.4400E+00
     -3.946  0.0000E+00  0.4400E+00
     -3.848  0.0000E+00  0.4400E+00
     -3.751  0.7970E-02  0.4403E+00
     -3.653  0.1128E+00  0.4440E+00
     -3.556  0.2352E+00  0.4671E+00
     -3.458  0.5787E-01  0.4805E+00
     -3.361  0.2327E+00  0.5016E+00
     -3.263  0.4207E-01  0.5184E+00
     -3.165  0.0000E+00  0.5200E+00
     -3.068  0.0000E+00  0.5200E+00
     -2.970  0.0000E+00  0.5200E+00
     -2.873  0.0000E+00  0.5200E+00
     -2.775  0.0000E+00  0.5200E+00
     -2.678  0.0000E+00  0.5200E+00
     -2.580  0.0000E+00  0.5200E+00
     -2.482  0.0000E+00  0.5200E+00
     -2.385  0.0000E+00  0.5200E+00
     -2.287  0.0000E+00  0.5200E+00
     -2.190  0.0000E+00  0.5200E+00
     -2.092  0.0000E+00  0.5200E+00
     -1.995  0.4436E-01  0.5224E+00
     -1.897  0.6986E-01  0.5278E+00
     -1.799  0.1827E+00  0.5422E+00
     -1.702  0.5984E-01  0.5605E+00
     -1.604  0.2361E+00  0.5756E+00
     -1.507  0.8918E-01  0.5928E+00
     -1.409  0.4801E-01  0.5987E+00
     -1.312  0.0000E+00  0.6000E+00
     -1.214  0.0000E+00  0.6000E+00
     -1.116  0.0000E+00  0.6000E+00
     -1.019  0.0000E+00  0.6000E+00
     -0.921  0.0000E+00  0.6000E+00
     -0.824  0.0000E+00  0.6000E+00
     -0.726  0.0000E+00  0.6000E+00
     -0.628  0.0000E+00  0.6000E+00
     -0.531  0.0000E+00  0.6000E+00
     -0.433  0.0000E+00  0.6000E+00
     -0.336  0.0000E+00  0.6000E+00
     -0.238  0.0000E+00  0.6000E+00
     -0.141  0.0000E+00  0.6000E+00
     -0.043  0.0000E+00  0.6000E+00
      0.055  0.0000E+00  0.6000E+00
      0.152  0.0000E+00  0.6000E+00
      0.250  0.0000E+00  0.6000E+00
      0.347  0.0000E+00  0.6000E+00
      0.445  0.0000E+00  0.6000E+00
      0.542  0.0000E+00  0.6000E+00
      0.640  0.0000E+00  0.6000E+00
      0.738  0.0000E+00  0.6000E+00
      0.835  0.0000E+00  0.6000E+00
      0.933  0.0000E+00  0.6000E+00
      1.030  0.0000E+00  0.6000E+00
      1.128  0.0000E+00  0.6000E+00
      1.225  0.0000E+00  0.6000E+00
      1.323  0.0000E+00  0.6000E+00
      1.421  0.0000E+00  0.6000E+00
      1.518  0.0000E+00  0.6000E+00
      1.616  0.0000E+00  0.6000E+00
      1.713  0.0000E+00  0.6000E+00
      1.811  0.0000E+00  0.6000E+00
      1.908  0.0000E+00  0.6000E+00
      2.006  0.0000E+00  0.6000E+00
      2.104  0.0000E+00  0.6000E+00
      2.201  0.0000E+00  0.6000E+00
      2.299  0.0000E+00  0.6000E+00
      2.396  0.0000E+00  0.6000E+00
      2.494  0.0000E+00  0.6000E+00
      2.591  0.0000E+00  0.6000E+00
      2.689  0.0000E+00  0.6000E+00
      2.787  0.0000E+00  0.6000E+00
      2.884  0.0000E+00  0.6000E+00
      2.982  0.0000E+00  0.6000E+00
      3.079  0.1707E+00  0.6034E+00
      3.177  0.1177E+00  0.6211E+00
      3.274  0.1453E+00  0.6313E+00
      3.372  0.6631E-01  0.6394E+00
      3.470  0.1608E+00  0.6507E+00
      3.567  0.1151E+00  0.6625E+00
      3.665  0.1117E+00  0.6745E+00
      3.762  0.1571E-01  0.6794E+00
      3.860  0.0000E+00  0.6800E+00
      3.957  0.0000E+00  0.6800E+00
      4.055  0.0000E+00  0.6800E+00
      4.153  0.0000E+00  0.6800E+00
      4.250  0.0000E+00  0.6800E+00
      4.348  0.0000E+00  0.6800E+00
      4.445  0.4814E-04  0.6800E+00
      4.543  0.2935E-02  0.6801E+00
      4.640  0.4305E-02  0.6805E+00
      4.738  0.5738E-02  0.6810E+00
      4.836  0.7047E-02  0.6816E+00
      4.933  0.8516E-02  0.6824E+00
      5.031  0.1015E-01  0.6833E+00
      5.128  0.1187E-01  0.6843E+00
      5.226  0.1379E-01  0.6856E+00
      5.323  0.1645E-01  0.6871E+00
      5.421  0.2060E-01  0.6888E+00
      5.519  0.2543E-01  0.6911E+00
      5.616  0.3992E-01  0.6942E+00
      5.714  0.5502E-01  0.6987E+00
      5.811  0.5119E-01  0.7033E+00
      5.909  0.5084E-01  0.7088E+00
      6.006  0.3986E-01  0.7128E+00
      6.104  0.2916E-01  0.7161E+00
      6.202  0.2701E-01  0.7186E+00
      6.299  0.9260E-01  0.7239E+00
      6.397  0.8087E-01  0.7327E+00
      6.494  0.6026E-01  0.7395E+00
      6.592  0.5922E-01  0.7449E+00
      6.689  0.5005E-01  0.7518E+00
      6.787  0.5382E-01  0.7565E+00
      6.885  0.7882E-01  0.7627E+00
      6.982  0.1461E+00  0.7747E+00
      7.080  0.9343E-01  0.7865E+00
      7.177  0.8721E-01  0.7947E+00
      7.275  0.6247E-01  0.8028E+00
      7.373  0.5076E-01  0.8079E+00
      7.470  0.5653E-01  0.8130E+00
      7.568  0.4546E-01  0.8178E+00
      7.665  0.8496E-01  0.8241E+00
      7.763  0.5707E-01  0.8303E+00
      7.860  0.5106E-01  0.8360E+00
      7.958  0.2331E-01  0.8397E+00
      8.056  0.5907E-01  0.8442E+00
      8.153  0.9056E-01  0.8505E+00
      8.251  0.3539E-01  0.8570E+00
      8.348  0.1106E-01  0.8590E+00
      8.446  0.4534E-02  0.8597E+00
      8.543  0.1062E-02  0.8600E+00
      8.641  0.0000E+00  0.8600E+00
      8.739  0.0000E+00  0.8600E+00
      8.836  0.0000E+00  0.8600E+00
      8.934  0.0000E+00  0.8600E+00
      9.031  0.0000E+00  0.8600E+00
      9.129  0.0000E+00  0.8600E+00
      9.226  0.0000E+00  0.8600E+00
      9.324  0.0000E+00  0.8600E+00
      9.422  0.0000E+00  0.8600E+00
      9.519  0.0000E+00  0.8600E+00
      9.617  0.0000E+00  0.8600E+00
      9.714  0.0000E+00  0.8600E+00
      9.812  0.0000E+00  0.8600E+00
      9.909  0.0000E+00  0.8600E+00
     10.007  0.0000E+00  0.8600E+00
     10.105  0.0000E+00  0.8600E+00
     10.202  0.0000E+00  0.8600E+00
     10.300  0.0000E+00  0.8600E+00
     10.397  0.0000E+00  0.8600E+00
     10.495  0.0000E+00  0.8600E+00
     10.592  0.0000E+00  0.8600E+00
