   48   48  200    1
  0.9428188E+01  0.7305636E-09  0.9308105E-09  0.6655032E-09  0.5000000E-15
  1.000000000000000E-004
  CAR 
 benzene                                 
    120    125     86
 
  0.0000000E+00  0.0000000E+00  0.0000000E+00  0.1953125E-02
    1      -16.679503
    2      -16.553518
    3      -16.484579
    4      -16.461064
    5      -13.976327
    6      -13.813857
    7      -13.772195
    8      -13.734889
    9      -13.709474
   10      -13.663378
   11      -13.656489
   12      -13.628748
   13      -10.258388
   14      -10.255314
   15      -10.198446
   16      -10.147846
   17      -10.096745
   18      -10.072608
   19      -10.034127
   20       -9.850259
   21       -8.584779
   22       -8.159653
   23       -8.097602
   24       -7.761649
   25       -6.838298
   26       -6.652636
   27       -6.356505
   28       -6.270673
   29       -6.256446
   30       -6.238029
   31       -6.142575
   32       -6.134646
   33       -5.923237
   34       -5.879487
   35       -5.845767
   36       -5.449092
   37       -5.393656
   38       -5.359839
   39       -5.338468
   40       -5.121456
   41       -4.377864
   42       -4.251159
   43       -4.174626
   44       -4.115476
   45       -3.838771
   46       -3.743751
   47       -3.740480
   48       -3.637626
   49       -3.412804
   50       -3.387312
   51       -3.379161
   52       -3.178714
   53       -2.054959
   54       -2.038846
   55       -1.884726
   56       -1.807173
   57       -1.586652
   58       -1.486577
   59       -1.384407
   60       -1.342251
   61        3.069697
   62        3.095277
   63        3.227554
   64        3.379045
   65        3.394470
   66        3.487011
   67        3.683745
   68        3.850522
   69        4.434871
   70        5.574620
   71        5.722219
   72        6.488679
   73        6.562490
   74        6.689087
   75        6.701915
   76        6.942557
   77        7.054972
   78        7.091163
   79        7.096967
   80        7.113717
   81        7.277807
   82        7.644705
   83        7.833230
   84        7.913218
   85        7.999420
   86        8.494611
 
  0.1250000E+00  0.0000000E+00  0.0000000E+00  0.3906250E-02
    1      -16.672601
    2      -16.550072
    3      -16.492575
    4      -16.464669
    5      -13.967876
    6      -13.810479
    7      -13.769990
    8      -13.734965
    9      -13.717289
   10      -13.667414
   11      -13.656722
   12      -13.630540
   13      -10.247626
   14      -10.242209
   15      -10.198141
   16      -10.151070
   17      -10.095644
   18      -10.073185
   19      -10.042952
   20       -9.865239
   21       -8.577675
   22       -8.188438
   23       -8.086962
   24       -7.777859
   25       -6.828930
   26       -6.656838
   27       -6.333962
   28       -6.256238
   29       -6.252888
   30       -6.234883
   31       -6.141373
   32       -6.133235
   33       -5.889024
   34       -5.848099
   35       -5.845397
   36       -5.474788
   37       -5.390761
   38       -5.355845
   39       -5.340916
   40       -5.133502
   41       -4.429962
   42       -4.302609
   43       -4.205138
   44       -4.152682
   45       -3.798804
   46       -3.709917
   47       -3.704798
   48       -3.628271
   49       -3.406208
   50       -3.389851
   51       -3.369035
   52       -3.187029
   53       -2.031443
   54       -2.019218
   55       -1.884325
   56       -1.813714
   57       -1.583731
   58       -1.500115
   59       -1.405634
   60       -1.372426
   61        3.083845
   62        3.115025
   63        3.233043
   64        3.379446
   65        3.395501
   66        3.469425
   67        3.653230
   68        3.812714
   69        4.494704
   70        5.609988
   71        5.760404
   72        6.452628
   73        6.480765
   74        6.652279
   75        6.758819
   76        6.899131
   77        6.930097
   78        7.064483
   79        7.129431
   80        7.275215
   81        7.297155
   82        7.664725
   83        7.818961
   84        7.893918
   85        8.071471
   86        8.457720
 
  0.2500000E+00  0.0000000E+00  0.0000000E+00  0.3906250E-02
    1      -16.652711
    2      -16.540208
    3      -16.515064
    4      -16.474829
    5      -13.943526
    6      -13.806757
    7      -13.763811
    8      -13.735947
    9      -13.733656
   10      -13.679071
   11      -13.656568
   12      -13.635467
   13      -10.225808
   14      -10.196679
   15      -10.196467
   16      -10.159205
   17      -10.092453
   18      -10.074961
   19      -10.067768
   20       -9.908003
   21       -8.554014
   22       -8.262161
   23       -8.055947
   24       -7.821636
   25       -6.803363
   26       -6.670848
   27       -6.281777
   28       -6.243711
   29       -6.227918
   30       -6.221500
   31       -6.138179
   32       -6.130226
   33       -5.840311
   34       -5.795001
   35       -5.759861
   36       -5.538882
   37       -5.390151
   38       -5.352657
   39       -5.342132
   40       -5.166939
   41       -4.536151
   42       -4.418108
   43       -4.275292
   44       -4.242830
   45       -3.719598
   46       -3.635121
   47       -3.628783
   48       -3.600491
   49       -3.399806
   50       -3.396936
   51       -3.343020
   52       -3.210626
   53       -1.963465
   54       -1.961856
   55       -1.883012
   56       -1.829953
   57       -1.574345
   58       -1.549144
   59       -1.457051
   60       -1.453233
   61        3.124278
   62        3.173388
   63        3.252315
   64        3.374725
   65        3.398026
   66        3.427364
   67        3.576419
   68        3.711913
   69        4.668579
   70        5.700624
   71        5.844567
   72        6.115739
   73        6.422396
   74        6.673828
   75        6.876030
   76        6.882496
   77        6.910919
   78        7.034473
   79        7.213580
   80        7.237883
   81        7.375451
   82        7.716710
   83        7.748161
   84        8.060283
   85        8.109480
   86        8.334292
 
  0.3750000E+00  0.0000000E+00  0.0000000E+00  0.3906250E-02
    1      -16.622379
    2      -16.547947
    3      -16.525365
    4      -16.489985
    5      -13.906678
    6      -13.823926
    7      -13.755171
    8      -13.739440
    9      -13.735335
   10      -13.697010
   11      -13.654362
   12      -13.642336
   13      -10.195611
   14      -10.192956
   15      -10.166504
   16      -10.129323
   17      -10.103978
   18      -10.087280
   19      -10.078403
   20       -9.972513
   21       -8.509273
   22       -8.354250
   23       -8.007689
   24       -7.882011
   25       -6.767941
   26       -6.695981
   27       -6.232681
   28       -6.227297
   29       -6.222891
   30       -6.190936
   31       -6.134345
   32       -6.129083
   33       -5.816767
   34       -5.711964
   35       -5.634681
   36       -5.573048
   37       -5.420805
   38       -5.390572
   39       -5.312185
   40       -5.214673
   41       -4.617012
   42       -4.539251
   43       -4.345325
   44       -4.334499
   45       -3.650824
   46       -3.605979
   47       -3.534024
   48       -3.533823
   49       -3.423549
   50       -3.406693
   51       -3.310604
   52       -3.244026
   53       -1.879637
   54       -1.871921
   55       -1.871791
   56       -1.834784
   57       -1.643109
   58       -1.579882
   59       -1.557124
   60       -1.496907
   61        3.185239
   62        3.263214
   63        3.289617
   64        3.331151
   65        3.400654
   66        3.404686
   67        3.487722
   68        3.578325
   69        4.941341
   70        5.694225
   71        5.809422
   72        5.905143
   73        6.443166
   74        6.611398
   75        6.931141
   76        6.966720
   77        6.980213
   78        7.063025
   79        7.149616
   80        7.221539
   81        7.510299
   82        7.748443
   83        7.771619
   84        8.106655
   85        8.181853
   86        8.188357
 
  0.5000000E+00  0.0000000E+00  0.0000000E+00  0.1953125E-02
    1      -16.585702
    2      -16.585701
    3      -16.507738
    4      -16.507737
    5      -13.863319
    6      -13.863319
    7      -13.746277
    8      -13.746276
    9      -13.718145
   10      -13.718145
   11      -13.649273
   12      -13.649272
   13      -10.187228
   14      -10.187227
   15      -10.144279
   16      -10.144279
   17      -10.083768
   18      -10.083767
   19      -10.049115
   20      -10.049114
   21       -8.441217
   22       -8.441216
   23       -7.947271
   24       -7.947271
   25       -6.729958
   26       -6.729958
   27       -6.224457
   28       -6.224457
   29       -6.191519
   30       -6.191519
   31       -6.131095
   32       -6.131094
   33       -5.761796
   34       -5.761796
   35       -5.507725
   36       -5.507725
   37       -5.475290
   38       -5.475290
   39       -5.266735
   40       -5.266734
   41       -4.618240
   42       -4.618239
   43       -4.374183
   44       -4.374183
   45       -3.612344
   46       -3.612344
   47       -3.467917
   48       -3.467917
   49       -3.453194
   50       -3.453193
   51       -3.277965
   52       -3.277965
   53       -1.871707
   54       -1.871707
   55       -1.759711
   56       -1.759710
   57       -1.718253
   58       -1.718253
   59       -1.531202
   60       -1.531201
   61        3.258194
   62        3.258195
   63        3.326855
   64        3.326855
   65        3.402278
   66        3.402278
   67        3.463490
   68        3.463490
   69        5.291734
   70        5.291735
   71        5.891147
   72        5.891147
   73        6.514515
   74        6.514516
   75        7.005248
   76        7.005248
   77        7.031453
   78        7.031454
   79        7.150867
   80        7.150868
   81        7.779712
   82        7.779712
   83        7.805195
   84        7.805196
   85        8.103772
   86        8.103772
 
  0.0000000E+00  0.1250000E+00  0.0000000E+00  0.3906250E-02
    1      -16.675085
    2      -16.558728
    3      -16.483699
    4      -16.461975
    5      -13.963743
    6      -13.810771
    7      -13.769234
    8      -13.737764
    9      -13.707690
   10      -13.667349
   11      -13.658821
   12      -13.641383
   13      -10.252704
   14      -10.242377
   15      -10.196979
   16      -10.143151
   17      -10.097787
   18      -10.075656
   19      -10.040325
   20       -9.866146
   21       -8.561479
   22       -8.158273
   23       -8.100578
   24       -7.807726
   25       -6.818623
   26       -6.631604
   27       -6.367833
   28       -6.254526
   29       -6.249361
   30       -6.233748
   31       -6.146803
   32       -6.137569
   33       -5.915630
   34       -5.863776
   35       -5.836653
   36       -5.449824
   37       -5.421240
   38       -5.368408
   39       -5.363997
   40       -5.147497
   41       -4.375047
   42       -4.251332
   43       -4.191637
   44       -4.128755
   45       -3.802235
   46       -3.722002
   47       -3.718552
   48       -3.615347
   49       -3.420439
   50       -3.395396
   51       -3.381984
   52       -3.192882
   53       -2.056534
   54       -2.043075
   55       -1.868982
   56       -1.799332
   57       -1.596560
   58       -1.495655
   59       -1.389459
   60       -1.345030
   61        3.068594
   62        3.092605
   63        3.237219
   64        3.377382
   65        3.398817
   66        3.497896
   67        3.666781
   68        3.833780
   69        4.477373
   70        5.558981
   71        5.750640
   72        6.405271
   73        6.495736
   74        6.646490
   75        6.718956
   76        7.000187
   77        7.025575
   78        7.091851
   79        7.106554
   80        7.150709
   81        7.372951
   82        7.650789
   83        7.838241
   84        7.874939
   85        8.013795
   86        8.402697
 
  0.1250000E+00  0.1250000E+00  0.0000000E+00  0.7812500E-02
    1      -16.668284
    2      -16.555123
    3      -16.491528
    4      -16.465729
    5      -13.955813
    6      -13.807839
    7      -13.766889
    8      -13.739878
    9      -13.712992
   10      -13.672828
   11      -13.658952
   12      -13.641114
   13      -10.237543
   14      -10.235622
   15      -10.196486
   16      -10.146498
   17      -10.096901
   18      -10.076046
   19      -10.048427
   20       -9.880370
   21       -8.554419
   22       -8.184798
   23       -8.090727
   24       -7.821004
   25       -6.809950
   26       -6.636297
   27       -6.349293
   28       -6.261294
   29       -6.230691
   30       -6.229808
   31       -6.145611
   32       -6.136288
   33       -5.881941
   34       -5.844591
   35       -5.821807
   36       -5.494823
   37       -5.395388
   38       -5.367194
   39       -5.361688
   40       -5.155842
   41       -4.424610
   42       -4.301319
   43       -4.219180
   44       -4.164225
   45       -3.769852
   46       -3.690263
   47       -3.685432
   48       -3.608010
   49       -3.413256
   50       -3.397266
   51       -3.372328
   52       -3.201188
   53       -2.034657
   54       -2.021361
   55       -1.869093
   56       -1.805176
   57       -1.593861
   58       -1.507249
   59       -1.412726
   60       -1.374528
   61        3.080293
   62        3.114910
   63        3.240832
   64        3.377620
   65        3.399689
   66        3.481032
   67        3.638675
   68        3.797854
   69        4.536400
   70        5.595886
   71        5.786731
   72        6.386096
   73        6.483784
   74        6.590320
   75        6.695134
   76        6.917308
   77        6.953607
   78        7.081553
   79        7.167156
   80        7.289444
   81        7.355984
   82        7.647767
   83        7.823417
   84        7.918932
   85        8.044590
   86        8.388871
 
  0.2500000E+00  0.1250000E+00  0.0000000E+00  0.7812500E-02
    1      -16.648707
    2      -16.544799
    3      -16.513559
    4      -16.476379
    5      -13.933082
    6      -13.805001
    7      -13.760382
    8      -13.746662
    9      -13.722653
   10      -13.686647
   11      -13.658529
   12      -13.642223
   13      -10.216355
   14      -10.196918
   15      -10.192349
   16      -10.155047
   17      -10.094742
   18      -10.077519
   19      -10.070691
   20       -9.921007
   21       -8.531223
   22       -8.253218
   23       -8.062417
   24       -7.857387
   25       -6.785832
   26       -6.651727
   27       -6.306578
   28       -6.258968
   29       -6.219925
   30       -6.204108
   31       -6.142469
   32       -6.133585
   33       -5.833099
   34       -5.791691
   35       -5.735759
   36       -5.564054
   37       -5.381262
   38       -5.377256
   39       -5.343563
   40       -5.178665
   41       -4.526940
   42       -4.413505
   43       -4.286908
   44       -4.252733
   45       -3.700789
   46       -3.618840
   47       -3.615522
   48       -3.585969
   49       -3.405014
   50       -3.402368
   51       -3.347967
   52       -3.224680
   53       -1.973230
   54       -1.956662
   55       -1.869211
   56       -1.819375
   57       -1.585149
   58       -1.549979
   59       -1.471456
   60       -1.452733
   61        3.118288
   62        3.175503
   63        3.253792
   64        3.375604
   65        3.401624
   66        3.438438
   67        3.568077
   68        3.702010
   69        4.708231
   70        5.691954
   71        5.865301
   72        6.147520
   73        6.374181
   74        6.591581
   75        6.781763
   76        6.877104
   77        6.934707
   78        7.068660
   79        7.248985
   80        7.258731
   81        7.400770
   82        7.699330
   83        7.783637
   84        8.062266
   85        8.077196
   86        8.321864
 
  0.3750000E+00  0.1250000E+00  0.0000000E+00  0.7812500E-02
    1      -16.618891
    2      -16.545806
    3      -16.529291
    4      -16.492253
    5      -13.898770
    6      -13.821770
    7      -13.751173
    8      -13.744956
    9      -13.730034
   10      -13.705301
   11      -13.656093
   12      -13.646005
   13      -10.190353
   14      -10.189630
   15      -10.163254
   16      -10.132845
   17      -10.105388
   18      -10.087260
   19      -10.080484
   20       -9.982209
   21       -8.487776
   22       -8.339698
   23       -8.018877
   24       -7.908664
   25       -6.751508
   26       -6.678530
   27       -6.265826
   28       -6.251587
   29       -6.206287
   30       -6.185908
   31       -6.138409
   32       -6.132483
   33       -5.808925
   34       -5.716587
   35       -5.610644
   36       -5.591396
   37       -5.420625
   38       -5.401705
   39       -5.306035
   40       -5.212540
   41       -4.605748
   42       -4.530802
   43       -4.357118
   44       -4.345073
   45       -3.636904
   46       -3.592337
   47       -3.528896
   48       -3.525113
   49       -3.424911
   50       -3.409933
   51       -3.318288
   52       -3.257254
   53       -1.888691
   54       -1.868027
   55       -1.854972
   56       -1.825601
   57       -1.639636
   58       -1.583347
   59       -1.568887
   60       -1.509318
   61        3.178052
   62        3.265397
   63        3.272037
   64        3.359117
   65        3.399762
   66        3.401316
   67        3.489119
   68        3.576132
   69        4.978267
   70        5.721012
   71        5.811389
   72        5.931555
   73        6.402322
   74        6.553580
   75        6.869465
   76        6.900087
   77        6.952336
   78        7.084894
   79        7.177395
   80        7.262973
   81        7.524255
   82        7.779223
   83        7.800391
   84        8.047369
   85        8.137563
   86        8.189577
 
  0.5000000E+00  0.1250000E+00  0.0000000E+00  0.3906250E-02
    1      -16.582853
    2      -16.582852
    3      -16.510846
    4      -16.510845
    5      -13.858475
    6      -13.858474
    7      -13.741880
    8      -13.741879
    9      -13.725093
   10      -13.725092
   11      -13.651355
   12      -13.651354
   13      -10.183618
   14      -10.183618
   15      -10.143866
   16      -10.143866
   17      -10.085156
   18      -10.085155
   19      -10.054449
   20      -10.054448
   21       -8.422365
   22       -8.422364
   23       -7.965305
   24       -7.965304
   25       -6.713592
   26       -6.713591
   27       -6.248950
   28       -6.248949
   29       -6.189407
   30       -6.189406
   31       -6.134596
   32       -6.134596
   33       -5.760468
   34       -5.760468
   35       -5.500674
   36       -5.500673
   37       -5.484446
   38       -5.484445
   39       -5.257385
   40       -5.257385
   41       -4.607187
   42       -4.607186
   43       -4.386093
   44       -4.386093
   45       -3.599978
   46       -3.599978
   47       -3.464462
   48       -3.464462
   49       -3.453391
   50       -3.453391
   51       -3.288817
   52       -3.288817
   53       -1.864245
   54       -1.864245
   55       -1.754074
   56       -1.754073
   57       -1.719799
   58       -1.719799
   59       -1.543904
   60       -1.543904
   61        3.243937
   62        3.243937
   63        3.349414
   64        3.349415
   65        3.383784
   66        3.383785
   67        3.474866
   68        3.474867
   69        5.325192
   70        5.325193
   71        5.906462
   72        5.906463
   73        6.469173
   74        6.469174
   75        6.935390
   76        6.935391
   77        6.991362
   78        6.991363
   79        7.216378
   80        7.216379
   81        7.784668
   82        7.784669
   83        7.819804
   84        7.819805
   85        8.104448
   86        8.104448
 
  0.0000000E+00  0.2500000E+00  0.0000000E+00  0.3906250E-02
    1      -16.662314
    2      -16.573354
    3      -16.481166
    4      -16.464550
    5      -13.927855
    6      -13.801990
    7      -13.762061
    8      -13.746025
    9      -13.702500
   10      -13.678462
   11      -13.675716
   12      -13.665237
   13      -10.237059
   14      -10.206517
   15      -10.193779
   16      -10.128393
   17      -10.100064
   18      -10.084826
   19      -10.056943
   20       -9.910440
   21       -8.492727
   22       -8.153698
   23       -8.108818
   24       -7.926904
   25       -6.762704
   26       -6.572131
   27       -6.408875
   28       -6.246916
   29       -6.230853
   30       -6.221850
   31       -6.156949
   32       -6.146090
   33       -5.883930
   34       -5.816799
   35       -5.783048
   36       -5.498367
   37       -5.450055
   38       -5.433415
   39       -5.388475
   40       -5.224186
   41       -4.364439
   42       -4.249292
   43       -4.229561
   44       -4.159353
   45       -3.713436
   46       -3.666281
   47       -3.664570
   48       -3.554936
   49       -3.443550
   50       -3.419675
   51       -3.395541
   52       -3.234264
   53       -2.061041
   54       -2.053454
   55       -1.823816
   56       -1.776824
   57       -1.623488
   58       -1.530322
   59       -1.394749
   60       -1.352968
   61        3.065758
   62        3.085110
   63        3.263057
   64        3.370533
   65        3.415507
   66        3.530523
   67        3.621582
   68        3.787529
   69        4.601539
   70        5.480027
   71        5.827473
   72        6.275655
   73        6.346651
   74        6.558404
   75        6.793183
   76        6.975947
   77        7.093884
   78        7.110409
   79        7.152589
   80        7.167602
   81        7.520338
   82        7.656572
   83        7.786090
   84        7.903808
   85        8.006533
   86        8.228990
 
  0.1250000E+00  0.2500000E+00  0.0000000E+00  0.7812500E-02
    1      -16.655830
    2      -16.569310
    3      -16.488508
    4      -16.468784
    5      -13.921530
    6      -13.800314
    7      -13.759497
    8      -13.749988
    9      -13.704631
   10      -13.691547
   11      -13.666076
   12      -13.665123
   13      -10.224825
   14      -10.202235
   15      -10.192643
   16      -10.132448
   17      -10.099803
   18      -10.084637
   19      -10.063057
   20       -9.922582
   21       -8.486102
   22       -8.174169
   23       -8.101650
   24       -7.934007
   25       -6.755601
   26       -6.577941
   27       -6.397489
   28       -6.262376
   29       -6.217494
   30       -6.214938
   31       -6.155843
   32       -6.145331
   33       -5.854429
   34       -5.811994
   35       -5.751827
   36       -5.551679
   37       -5.437719
   38       -5.404287
   39       -5.376587
   40       -5.223629
   41       -4.407986
   42       -4.295446
   43       -4.254188
   44       -4.192309
   45       -3.695520
   46       -3.639589
   47       -3.636957
   48       -3.552196
   49       -3.434511
   50       -3.419527
   51       -3.386792
   52       -3.242375
   53       -2.041772
   54       -2.027728
   55       -1.825294
   56       -1.781100
   57       -1.621514
   58       -1.538508
   59       -1.421042
   60       -1.381355
   61        3.074807
   62        3.109979
   63        3.262441
   64        3.369490
   65        3.415636
   66        3.515351
   67        3.599816
   68        3.756687
   69        4.658238
   70        5.520633
   71        5.858144
   72        6.277131
   73        6.371326
   74        6.586433
   75        6.608533
   76        6.923277
   77        7.052238
   78        7.073312
   79        7.230048
   80        7.264598
   81        7.483412
   82        7.619651
   83        7.758568
   84        8.006030
   85        8.007033
   86        8.221029
 
  0.2500000E+00  0.2500000E+00  0.0000000E+00  0.7812500E-02
    1      -16.637222
    2      -16.557758
    3      -16.509248
    4      -16.480813
    5      -13.903483
    6      -13.799908
    7      -13.758505
    8      -13.752320
    9      -13.710084
   10      -13.708276
   11      -13.664245
   12      -13.659450
   13      -10.193369
   14      -10.189852
   15      -10.185867
   16      -10.142830
   17      -10.099915
   18      -10.084936
   19      -10.078763
   20       -9.957232
   21       -8.464746
   22       -8.228132
   23       -8.081601
   24       -7.953958
   25       -6.734975
   26       -6.596640
   27       -6.369243
   28       -6.280021
   29       -6.207179
   30       -6.196509
   31       -6.152812
   32       -6.143305
   33       -5.801390
   34       -5.779339
   35       -5.664061
   36       -5.616374
   37       -5.453501
   38       -5.358457
   39       -5.346346
   40       -5.222055
   41       -4.500976
   42       -4.399592
   43       -4.318937
   44       -4.277830
   45       -3.649251
   46       -3.580874
   47       -3.578381
   48       -3.543611
   49       -3.420714
   50       -3.418814
   51       -3.365693
   52       -3.265124
   53       -1.982295
   54       -1.958057
   55       -1.829197
   56       -1.790864
   57       -1.614840
   58       -1.565613
   59       -1.492571
   60       -1.458204
   61        3.110887
   62        3.170757
   63        3.262601
   64        3.365700
   65        3.415810
   66        3.475756
   67        3.545632
   68        3.674443
   69        4.823744
   70        5.630937
   71        5.920106
   72        6.241516
   73        6.293156
   74        6.416435
   75        6.651640
   76        6.879139
   77        7.006496
   78        7.029665
   79        7.280865
   80        7.309912
   81        7.465651
   82        7.643909
   83        7.720064
   84        7.990835
   85        8.139818
   86        8.188720
 
  0.3750000E+00  0.2500000E+00  0.0000000E+00  0.7812500E-02
    1      -16.608886
    2      -16.540340
    3      -16.539666
    4      -16.498699
    5      -13.876342
    6      -13.815186
    7      -13.756961
    8      -13.742105
    9      -13.725766
   10      -13.718392
   11      -13.661778
   12      -13.657245
   13      -10.183187
   14      -10.172398
   15      -10.153983
   16      -10.141659
   17      -10.107104
   18      -10.089354
   19      -10.086539
   20      -10.008979
   21       -8.425676
   22       -8.298678
   23       -8.051966
   24       -7.983252
   25       -6.703419
   26       -6.627646
   27       -6.336684
   28       -6.294343
   29       -6.196051
   30       -6.186496
   31       -6.148442
   32       -6.142234
   33       -5.781616
   34       -5.723382
   35       -5.630155
   36       -5.548128
   37       -5.486653
   38       -5.362443
   39       -5.294183
   40       -5.224672
   41       -4.575283
   42       -4.508144
   43       -4.389145
   44       -4.371625
   45       -3.598806
   46       -3.555219
   47       -3.515107
   48       -3.501586
   49       -3.429317
   50       -3.419917
   51       -3.341819
   52       -3.294862
   53       -1.895544
   54       -1.853429
   55       -1.834007
   56       -1.793763
   57       -1.633010
   58       -1.601387
   59       -1.595959
   60       -1.539146
   61        3.169423
   62        3.254272
   63        3.260306
   64        3.357998
   65        3.413845
   66        3.428499
   67        3.489647
   68        3.568513
   69        5.084611
   70        5.782654
   71        5.789179
   72        6.010029
   73        6.325527
   74        6.403606
   75        6.739614
   76        6.872274
   77        6.967464
   78        6.971650
   79        7.266871
   80        7.333567
   81        7.533830
   82        7.714641
   83        7.716233
   84        7.918790
   85        8.149162
   86        8.200471
 
  0.5000000E+00  0.2500000E+00  0.0000000E+00  0.3906250E-02
    1      -16.574713
    2      -16.574712
    3      -16.519632
    4      -16.519632
    5      -13.844581
    6      -13.844580
    7      -13.744164
    8      -13.744163
    9      -13.728976
   10      -13.728975
   11      -13.658665
   12      -13.658665
   13      -10.173403
   14      -10.173402
   15      -10.142165
   16      -10.142165
   17      -10.089573
   18      -10.089573
   19      -10.068661
   20      -10.068660
   21       -8.368557
   22       -8.368557
   23       -8.017508
   24       -8.017508
   25       -6.665591
   26       -6.665590
   27       -6.311037
   28       -6.311036
   29       -6.187705
   30       -6.187705
   31       -6.144238
   32       -6.144238
   33       -5.750760
   34       -5.750760
   35       -5.557258
   36       -5.557258
   37       -5.427686
   38       -5.427685
   39       -5.247192
   40       -5.247192
   41       -4.578094
   42       -4.578094
   43       -4.416907
   44       -4.416907
   45       -3.566239
   46       -3.566238
   47       -3.455627
   48       -3.455627
   49       -3.454316
   50       -3.454316
   51       -3.319864
   52       -3.319864
   53       -1.842282
   54       -1.842281
   55       -1.737835
   56       -1.737834
   57       -1.725936
   58       -1.725935
   59       -1.578593
   60       -1.578593
   61        3.229790
   62        3.229791
   63        3.333020
   64        3.333020
   65        3.403890
   66        3.403891
   67        3.488623
   68        3.488623
   69        5.419154
   70        5.419155
   71        5.929995
   72        5.929996
   73        6.361192
   74        6.361193
   75        6.848611
   76        6.848611
   77        6.927384
   78        6.927385
   79        7.302024
   80        7.302025
   81        7.679826
   82        7.679826
   83        7.779220
   84        7.779220
   85        8.171988
   86        8.171989
 
  0.0000000E+00  0.3750000E+00  0.0000000E+00  0.3906250E-02
    1      -16.642806
    2      -16.594704
    3      -16.477356
    4      -16.468375
    5      -13.874447
    6      -13.788897
    7      -13.765293
    8      -13.758542
    9      -13.712352
   10      -13.694529
   11      -13.694287
   12      -13.674424
   13      -10.216386
   14      -10.192517
   15      -10.159686
   16      -10.100864
   17      -10.100434
   18      -10.098672
   19      -10.078104