<?xml version="1.0" encoding="ISO-8859-1"?>
<modeling>
 <generator>
  <i name="program" type="string">vasp </i>
  <i name="version" type="string">5.3.5  </i>
  <i name="subversion" type="string">31Mar14 (build Nov 02 2014 15:17:37) complex                          parallel </i>
  <i name="platform" type="string">ion-Intel-MKL </i>
  <i name="date" type="string">2017 03 05 </i>
  <i name="time" type="string">00:27:48 </i>
 </generator>
 <incar>
  <i type="string" name="SYSTEM">benzene</i>
  <i type="string" name="PREC">accurate</i>
  <i type="int" name="NELM">   200</i>
  <i type="int" name="IBRION">     2</i>
  <i name="EDIFF">      0.00000001</i>
  <i name="EDIFFG">      0.00001000</i>
  <i type="int" name="NSW">   200</i>
  <i type="int" name="ISIF">     2</i>
  <i name="ENCUT">    800.00000000</i>
  <i type="int" name="ISMEAR">    -5</i>
  <i type="logical" name="LWAVE"> F  </i>
  <i type="logical" name="LCHARG"> F  </i>
  <i type="int" name="NELM">   200</i>
  <i type="string" name="GGA">PE</i>
 </incar>
 <kpoints>
  <generation param="Gamma">
   <v type="int" name="divisions">       8        8        8 </v>
   <v name="usershift">      0.00000000       0.00000000       0.00000000 </v>
   <v name="genvec1">      0.12500000       0.00000000       0.00000000 </v>
   <v name="genvec2">      0.00000000       0.12500000       0.00000000 </v>
   <v name="genvec3">      0.00000000       0.00000000       0.12500000 </v>
   <v name="shift">      0.00000000       0.00000000       0.00000000 </v>
  </generation>
  <varray name="kpointlist" >
   <v>       0.00000000       0.00000000       0.00000000 </v>
   <v>       0.12500000       0.00000000       0.00000000 </v>
   <v>       0.25000000       0.00000000       0.00000000 </v>
   <v>       0.37500000       0.00000000       0.00000000 </v>
   <v>       0.50000000       0.00000000       0.00000000 </v>
   <v>       0.00000000       0.12500000       0.00000000 </v>
   <v>       0.12500000       0.12500000       0.00000000 </v>
   <v>       0.25000000       0.12500000       0.00000000 </v>
   <v>       0.37500000       0.12500000       0.00000000 </v>
   <v>       0.50000000       0.12500000       0.00000000 </v>
   <v>       0.00000000       0.25000000       0.00000000 </v>
   <v>       0.12500000       0.25000000       0.00000000 </v>
   <v>       0.25000000       0.25000000       0.00000000 </v>
   <v>       0.37500000       0.25000000       0.00000000 </v>
   <v>       0.50000000       0.25000000       0.00000000 </v>
   <v>       0.00000000       0.37500000       0.00000000 </v>
   <v>       0.12500000       0.37500000       0.00000000 </v>
   <v>       0.25000000       0.37500000       0.00000000 </v>
   <v>       0.37500000       0.37500000       0.00000000 </v>
   <v>       0.50000000       0.37500000       0.00000000 </v>
   <v>       0.00000000       0.50000000       0.00000000 </v>
   <v>       0.12500000       0.50000000       0.00000000 </v>
   <v>       0.25000000       0.50000000       0.00000000 </v>
   <v>       0.37500000       0.50000000       0.00000000 </v>
   <v>       0.50000000       0.50000000       0.00000000 </v>
   <v>       0.00000000       0.00000000       0.12500000 </v>
   <v>       0.12500000       0.00000000       0.12500000 </v>
   <v>       0.25000000       0.00000000       0.12500000 </v>
   <v>       0.37500000       0.00000000       0.12500000 </v>
   <v>       0.50000000       0.00000000       0.12500000 </v>
   <v>       0.00000000       0.12500000       0.12500000 </v>
   <v>       0.12500000       0.12500000       0.12500000 </v>
   <v>       0.25000000       0.12500000       0.12500000 </v>
   <v>       0.37500000       0.12500000       0.12500000 </v>
   <v>       0.50000000       0.12500000       0.12500000 </v>
   <v>       0.00000000       0.25000000       0.12500000 </v>
   <v>       0.12500000       0.25000000       0.12500000 </v>
   <v>       0.25000000       0.25000000       0.12500000 </v>
   <v>       0.37500000       0.25000000       0.12500000 </v>
   <v>       0.50000000       0.25000000       0.12500000 </v>
   <v>       0.00000000       0.37500000       0.12500000 </v>
   <v>       0.12500000       0.37500000       0.12500000 </v>
   <v>       0.25000000       0.37500000       0.12500000 </v>
   <v>       0.37500000       0.37500000       0.12500000 </v>
   <v>       0.50000000       0.37500000       0.12500000 </v>
   <v>       0.00000000       0.50000000       0.12500000 </v>
   <v>       0.12500000       0.50000000       0.12500000 </v>
   <v>       0.25000000       0.50000000       0.12500000 </v>
   <v>       0.37500000       0.50000000       0.12500000 </v>
   <v>       0.50000000       0.50000000       0.12500000 </v>
   <v>       0.00000000       0.00000000       0.25000000 </v>
   <v>       0.12500000       0.00000000       0.25000000 </v>
   <v>       0.25000000       0.00000000       0.25000000 </v>
   <v>       0.37500000       0.00000000       0.25000000 </v>
   <v>       0.50000000       0.00000000       0.25000000 </v>
   <v>       0.00000000       0.12500000       0.25000000 </v>
   <v>       0.12500000       0.12500000       0.25000000 </v>
   <v>       0.25000000       0.12500000       0.25000000 </v>
   <v>       0.37500000       0.12500000       0.25000000 </v>
   <v>       0.50000000       0.12500000       0.25000000 </v>
   <v>       0.00000000       0.25000000       0.25000000 </v>
   <v>       0.12500000       0.25000000       0.25000000 </v>
   <v>       0.25000000       0.25000000       0.25000000 </v>
   <v>       0.37500000       0.25000000       0.25000000 </v>
   <v>       0.50000000       0.25000000       0.25000000 </v>
   <v>       0.00000000       0.37500000       0.25000000 </v>
   <v>       0.12500000       0.37500000       0.25000000 </v>
   <v>       0.25000000       0.37500000       0.25000000 </v>
   <v>       0.37500000       0.37500000       0.25000000 </v>
   <v>       0.50000000       0.37500000       0.25000000 </v>
   <v>       0.00000000       0.50000000       0.25000000 </v>
   <v>       0.12500000       0.50000000       0.25000000 </v>
   <v>       0.25000000       0.50000000       0.25000000 </v>
   <v>       0.37500000       0.50000000       0.25000000 </v>
   <v>       0.50000000       0.50000000       0.25000000 </v>
   <v>       0.00000000       0.00000000       0.37500000 </v>
   <v>       0.12500000       0.00000000       0.37500000 </v>
   <v>       0.25000000       0.00000000       0.37500000 </v>
   <v>       0.37500000       0.00000000       0.37500000 </v>
   <v>       0.50000000       0.00000000       0.37500000 </v>
   <v>       0.00000000       0.12500000       0.37500000 </v>
   <v>       0.12500000       0.12500000       0.37500000 </v>
   <v>       0.25000000       0.12500000       0.37500000 </v>
   <v>       0.37500000       0.12500000       0.37500000 </v>
   <v>       0.50000000       0.12500000       0.37500000 </v>
   <v>       0.00000000       0.25000000       0.37500000 </v>
   <v>       0.12500000       0.25000000       0.37500000 </v>
   <v>       0.25000000       0.25000000       0.37500000 </v>
   <v>       0.37500000       0.25000000       0.37500000 </v>
   <v>       0.50000000       0.25000000       0.37500000 </v>
   <v>       0.00000000       0.37500000       0.37500000 </v>
   <v>       0.12500000       0.37500000       0.37500000 </v>
   <v>       0.25000000       0.37500000       0.37500000 </v>
   <v>       0.37500000       0.37500000       0.37500000 </v>
   <v>       0.50000000       0.37500000       0.37500000 </v>
   <v>       0.00000000       0.50000000       0.37500000 </v>
   <v>       0.12500000       0.50000000       0.37500000 </v>
   <v>       0.25000000       0.50000000       0.37500000 </v>
   <v>       0.37500000       0.50000000       0.37500000 </v>
   <v>       0.50000000       0.50000000       0.37500000 </v>
   <v>       0.00000000       0.00000000       0.50000000 </v>
   <v>       0.12500000       0.00000000       0.50000000 </v>
   <v>       0.25000000       0.00000000       0.50000000 </v>
   <v>       0.37500000       0.00000000       0.50000000 </v>
   <v>       0.50000000       0.00000000       0.50000000 </v>
   <v>       0.00000000       0.12500000       0.50000000 </v>
   <v>       0.12500000       0.12500000       0.50000000 </v>
   <v>       0.25000000       0.12500000       0.50000000 </v>
   <v>       0.37500000       0.12500000       0.50000000 </v>
   <v>       0.50000000       0.12500000       0.50000000 </v>
   <v>       0.00000000       0.25000000       0.50000000 </v>
   <v>       0.12500000       0.25000000       0.50000000 </v>
   <v>       0.25000000       0.25000000       0.50000000 </v>
   <v>       0.37500000       0.25000000       0.50000000 </v>
   <v>       0.50000000       0.25000000       0.50000000 </v>
   <v>       0.00000000       0.37500000       0.50000000 </v>
   <v>       0.12500000       0.37500000       0.50000000 </v>
   <v>       0.25000000       0.37500000       0.50000000 </v>
   <v>       0.37500000       0.37500000       0.50000000 </v>
   <v>       0.50000000       0.37500000       0.50000000 </v>
   <v>       0.00000000       0.50000000       0.50000000 </v>
   <v>       0.12500000       0.50000000       0.50000000 </v>
   <v>       0.25000000       0.50000000       0.50000000 </v>
   <v>       0.37500000       0.50000000       0.50000000 </v>
   <v>       0.50000000       0.50000000       0.50000000 </v>
  </varray>
  <varray name="weights" >
   <v>       0.00195312 </v>
   <v>       0.00390625 </v>
   <v>       0.00390625 </v>
   <v>       0.00390625 </v>
   <v>       0.00195312 </v>
   <v>       0.00390625 </v>
   <v>       0.00781250 </v>
   <v>       0.00781250 </v>
   <v>       0.00781250 </v>
   <v>       0.00390625 </v>
   <v>       0.00390625 </v>
   <v>       0.00781250 </v>
   <v>       0.00781250 </v>
   <v>       0.00781250 </v>
   <v>       0.00390625 </v>
   <v>       0.00390625 </v>
   <v>       0.00781250 </v>
   <v>       0.00781250 </v>
   <v>       0.00781250 </v>
   <v>       0.00390625 </v>
   <v>       0.00195312 </v>
   <v>       0.00390625 </v>
   <v>       0.00390625 </v>
   <v>       0.00390625 </v>
   <v>       0.00195312 </v>
   <v>       0.00390625 </v>
   <v>       0.00781250 </v>
   <v>       0.00781250 </v>
   <v>       0.00781250 </v>
   <v>       0.00390625 </v>
   <v>       0.00781250 </v>
   <v>       0.01562500 </v>
   <v>       0.01562500 </v>
   <v>       0.01562500 </v>
   <v>       0.00781250 </v>
   <v>       0.00781250 </v>
   <v>       0.01562500 </v>
   <v>       0.01562500 </v>
   <v>       0.01562500 </v>
   <v>       0.00781250 </v>
   <v>       0.00781250 </v>
   <v>       0.01562500 </v>
   <v>       0.01562500 </v>
   <v>       0.01562500 </v>
   <v>       0.00781250 </v>
   <v>       0.00390625 </v>
   <v>       0.00781250 </v>
   <v>       0.00781250 </v>
   <v>       0.00781250 </v>
   <v>       0.00390625 </v>
   <v>       0.00390625 </v>
   <v>       0.00781250 </v>
   <v>       0.00781250 </v>
   <v>       0.00781250 </v>
   <v>       0.00390625 </v>
   <v>       0.00781250 </v>
   <v>       0.01562500 </v>
   <v>       0.01562500 </v>
   <v>       0.01562500 </v>
   <v>       0.00781250 </v>
   <v>       0.00781250 </v>
   <v>       0.01562500 </v>
   <v>       0.01562500 </v>
   <v>       0.01562500 </v>
   <v>       0.00781250 </v>
   <v>       0.00781250 </v>
   <v>       0.01562500 </v>
   <v>       0.01562500 </v>
   <v>       0.01562500 </v>
   <v>       0.00781250 </v>
   <v>       0.00390625 </v>
   <v>       0.00781250 </v>
   <v>       0.00781250 </v>
   <v>       0.00781250 </v>
   <v>       0.00390625 </v>
   <v>       0.00390625 </v>
   <v>       0.00781250 </v>
   <v>       0.00781250 </v>
   <v>       0.00781250 </v>
   <v>       0.00390625 </v>
   <v>       0.00781250 </v>
   <v>       0.01562500 </v>
   <v>       0.01562500 </v>
   <v>       0.01562500 </v>
   <v>       0.00781250 </v>
   <v>       0.00781250 </v>
   <v>       0.01562500 </v>
   <v>       0.01562500 </v>
   <v>       0.01562500 </v>
   <v>       0.00781250 </v>
   <v>       0.00781250 </v>
   <v>       0.01562500 </v>
   <v>       0.01562500 </v>
   <v>       0.01562500 </v>
   <v>       0.00781250 </v>
   <v>       0.00390625 </v>
   <v>       0.00781250 </v>
   <v>       0.00781250 </v>
   <v>       0.00781250 </v>
   <v>       0.00390625 </v>
   <v>       0.00195312 </v>
   <v>       0.00390625 </v>
   <v>       0.00390625 </v>
   <v>       0.00390625 </v>
   <v>       0.00195312 </v>
   <v>       0.00390625 </v>
   <v>       0.00781250 </v>
   <v>       0.00781250 </v>
   <v>       0.00781250 </v>
   <v>       0.00390625 </v>
   <v>       0.00390625 </v>
   <v>       0.00781250 </v>
   <v>       0.00781250 </v>
   <v>       0.00781250 </v>
   <v>       0.00390625 </v>
   <v>       0.00390625 </v>
   <v>       0.00781250 </v>
   <v>       0.00781250 </v>
   <v>       0.00781250 </v>
   <v>       0.00390625 </v>
   <v>       0.00195312 </v>
   <v>       0.00390625 </v>
   <v>       0.00390625 </v>
   <v>       0.00390625 </v>
   <v>       0.00195312 </v>
  </varray>
  <varray name="tetrahedronlist"  type="int" >
   <v type="int" >        2        1        2        7       26 </v>
   <v type="int" >        2        1        6        7       26 </v>
   <v type="int" >        2        6        7       26       31 </v>
   <v type="int" >        2        2        7       26       27 </v>
   <v type="int" >        2        7       26       27       32 </v>
   <v type="int" >        2        7       26       31       32 </v>
   <v type="int" >        2        2        3        8       27 </v>
   <v type="int" >        2        2        7        8       27 </v>
   <v type="int" >        2        7        8       27       32 </v>
   <v type="int" >        2        3        8       27       28 </v>
   <v type="int" >        2        8       27       28       33 </v>
   <v type="int" >        2        8       27       32       33 </v>
   <v type="int" >        2        3        4        9       28 </v>
   <v type="int" >        2        3        8        9       28 </v>
   <v type="int" >        2        8        9       28       33 </v>
   <v type="int" >        2        4        9       28       29 </v>
   <v type="int" >        2        9       28       29       34 </v>
   <v type="int" >        2        9       28       33       34 </v>
   <v type="int" >        2        4        5       10       29 </v>
   <v type="int" >        2        4        9       10       29 </v>
   <v type="int" >        2        9       10       29       34 </v>
   <v type="int" >        2        5       10       29       30 </v>
   <v type="int" >        2       10       29       30       35 </v>
   <v type="int" >        2       10       29       34       35 </v>
   <v type="int" >        2        4        5        9       30 </v>
   <v type="int" >        2        5        9       10       30 </v>
   <v type="int" >        2        9       10       30       35 </v>
   <v type="int" >        2        4        9       29       30 </v>
   <v type="int" >        2        9       29       30       34 </v>
   <v type="int" >        2        9       30       34       35 </v>
   <v type="int" >        2        3        4        8       29 </v>
   <v type="int" >        2        4        8        9       29 </v>
   <v type="int" >        2        8        9       29       34 </v>
   <v type="int" >        2        3        8       28       29 </v>
   <v type="int" >        2        8       28       29       33 </v>
   <v type="int" >        2        8       29       33       34 </v>
   <v type="int" >        2        2        3        7       28 </v>
   <v type="int" >        2        3        7        8       28 </v>
   <v type="int" >        2        7        8       28       33 </v>
   <v type="int" >        2        2        7       27       28 </v>
   <v type="int" >        2        7       27       28       32 </v>
   <v type="int" >        2        7       28       32       33 </v>
   <v type="int" >        2        1        2        6       27 </v>
   <v type="int" >        2        2        6        7       27 </v>
   <v type="int" >        2        6        7       27       32 </v>
   <v type="int" >        2        1        6       26       27 </v>
   <v type="int" >        2        6       26       27       31 </v>
   <v type="int" >        2        6       27       31       32 </v>
   <v type="int" >        2        6        7       12       31 </v>
   <v type="int" >        2        6       11       12       31 </v>
   <v type="int" >        2       11       12       31       36 </v>
   <v type="int" >        2        7       12       31       32 </v>
   <v type="int" >        2       12       31       32       37 </v>
   <v type="int" >        2       12       31       36       37 </v>
   <v type="int" >        2        7        8       13       32 </v>
   <v type="int" >        2        7       12       13       32 </v>
   <v type="int" >        2       12       13       32       37 </v>
   <v type="int" >        2        8       13       32       33 </v>
   <v type="int" >        2       13       32       33       38 </v>
   <v type="int" >        2       13       32       37       38 </v>
   <v type="int" >        2        8        9       14       33 </v>
   <v type="int" >        2        8       13       14       33 </v>
   <v type="int" >        2       13       14       33       38 </v>
   <v type="int" >        2        9       14       33       34 </v>
   <v type="int" >        2       14       33       34       39 </v>
   <v type="int" >        2       14       33       38       39 </v>
   <v type="int" >        2        9       10       15       34 </v>
   <v type="int" >        2        9       14       15       34 </v>
   <v type="int" >        2       14       15       34       39 </v>
   <v type="int" >        2       10       15       34       35 </v>
   <v type="int" >        2       15       34       35       40 </v>
   <v type="int" >        2       15       34       39       40 </v>
   <v type="int" >        2        9       10       14       35 </v>
   <v type="int" >        2       10       14       15       35 </v>
   <v type="int" >        2       14       15       35       40 </v>
   <v type="int" >        2        9       14       34       35 </v>
   <v type="int" >        2       14       34       35       39 </v>
   <v type="int" >        2       14       35       39       40 </v>
   <v type="int" >        2        8        9       13       34 </v>
   <v type="int" >        2        9       13       14       34 </v>
   <v type="int" >        2       13       14       34       39 </v>
   <v type="int" >        2        8       13       33       34 </v>
   <v type="int" >        2       13       33       34       38 </v>
   <v type="int" >        2       13       34       38       39 </v>
   <v type="int" >        2        7        8       12       33 </v>
   <v type="int" >        2        8       12       13       33 </v>
   <v type="int" >        2       12       13       33       38 </v>
   <v type="int" >        2        7       12       32       33 </v>
   <v type="int" >        2       12       32       33       37 </v>
   <v type="int" >        2       12       33       37       38 </v>
   <v type="int" >        2        6        7       11       32 </v>
   <v type="int" >        2        7       11       12       32 </v>
   <v type="int" >        2       11       12       32       37 </v>
   <v type="int" >        2        6       11       31       32 </v>
   <v type="int" >        2       11       31       32       36 </v>
   <v type="int" >        2       11       32       36       37 </v>
   <v type="int" >        2       11       12       17       36 </v>
   <v type="int" >        2       11       16       17       36 </v>
   <v type="int" >        2       16       17       36       41 </v>
   <v type="int" >        2       12       17       36       37 </v>
   <v type="int" >        2       17       36       37       42 </v>
   <v type="int" >        2       17       36       41       42 </v>
   <v type="int" >        2       12       13       18       37 </v>
   <v type="int" >        2       12       17       18       37 </v>
   <v type="int" >        2       17       18       37       42 </v>
   <v type="int" >        2       13       18       37       38 </v>
   <v type="int" >        2       18       37       38       43 </v>
   <v type="int" >        2       18       37       42       43 </v>
   <v type="int" >        2       13       14       19       38 </v>
   <v type="int" >        2       13       18       19       38 </v>
   <v type="int" >        2       18       19       38       43 </v>
   <v type="int" >        2       14       19       38       39 </v>
   <v type="int" >        2       19       38       39       44 </v>
   <v type="int" >        2       19       38       43       44 </v>
   <v type="int" >        2       14       15       20       39 </v>
   <v type="int" >        2       14       19       20       39 </v>
   <v type="int" >        2       19       20       39       44 </v>
   <v type="int" >        2       15       20       39       40 </v>
   <v type="int" >        2       20       39       40       45 </v>
   <v type="int" >        2       20       39       44       45 </v>
   <v type="int" >        2       14       15       19       40 </v>
   <v type="int" >        2       15       19       20       40 </v>
   <v type="int" >        2       19       20       40       45 </v>
   <v type="int" >        2       14       19       39       40 </v>
   <v type="int" >        2       19       39       40       44 </v>
   <v type="int" >        2       19       40       44       45 </v>
   <v type="int" >        2       13       14       18       39 </v>
   <v type="int" >        2       14       18       19       39 </v>
   <v type="int" >        2       18       19       39       44 </v>
   <v type="int" >        2       13       18       38       39 </v>
   <v type="int" >        2       18       38       39       43 </v>
   <v type="int" >        2       18       39       43       44 </v>
   <v type="int" >        2       12       13       17       38 </v>
   <v type="int" >        2       13       17       18       38 </v>
   <v type="int" >        2       17       18       38       43 </v>
   <v type="int" >        2       12       17       37       38 </v>
   <v type="int" >        2       17       37       38       42 </v>
   <v type="int" >        2       17       38       42       43 </v>
   <v type="int" >        2       11       12       16       37 </v>
   <v type="int" >        2       12       16       17       37 </v>
   <v type="int" >        2       16       17       37       42 </v>
   <v type="int" >        2       11       16       36       37 </v>
   <v type="int" >        2       16       36       37       41 </v>
   <v type="int" >        2       16       37       41       42 </v>
   <v type="int" >        2       16       17       22       41 </v>
   <v type="int" >        2       16       21       22       41 </v>
   <v type="int" >        2       21       22       41       46 </v>
   <v type="int" >        2       17       22       41       42 </v>
   <v type="int" >        2       22       41       42       47 </v>
   <v type="int" >        2       22       41       46       47 </v>
   <v type="int" >        2       17       18       23       42 </v>
   <v type="int" >        2       17       22       23       42 </v>
   <v type="int" >        2       22       23       42       47 </v>
   <v type="int" >        2       18       23       42       43 </v>
   <v type="int" >        2       23       42       43       48 </v>
   <v type="int" >        2       23       42       47       48 </v>
   <v type="int" >        2       18       19       24       43 </v>
   <v type="int" >        2       18       23       24       43 </v>
   <v type="int" >        2       23       24       43       48 </v>
   <v type="int" >        2       19       24       43       44 </v>
   <v type="int" >        2       24       43       44       49 </v>
   <v type="int" >        2       24       43       48       49 </v>
   <v type="int" >        2       19       20       25       44 </v>
   <v type="int" >        2       19       24       25       44 </v>
   <v type="int" >        2       24       25       44       49 </v>
   <v type="int" >        2       20       25       44       45 </v>
   <v type="int" >        2       25       44       45       50 </v>
   <v type="int" >        2       25       44       49       50 </v>
   <v type="int" >        2       19       20       24       45 </v>
   <v type="int" >        2       20       24       25       45 </v>
   <v type="int" >        2       24       25       45       50 </v>
   <v type="int" >        2       19       24       44       45 </v>
   <v type="int" >        2       24       44       45       49 </v>
   <v type="int" >        2       24       45       49       50 </v>
   <v type="int" >        2       18       19       23       44 </v>
   <v type="int" >        2       19       23       24       44 </v>
   <v type="int" >        2       23       24       44       49 </v>
   <v type="int" >        2       18       23       43       44 </v>
   <v type="int" >        2       23       43       44       48 </v>
   <v type="int" >        2       23       44       48       49 </v>
   <v type="int" >        2       17       18       22       43 </v>
   <v type="int" >        2       18       22       23       43 </v>
   <v type="int" >        2       22       23       43       48 </v>
   <v type="int" >        2       17       22       42       43 </v>
   <v type="int" >        2       22       42       43       47 </v>
   <v type="int" >        2       22       43       47       48 </v>
   <v type="int" >        2       16       17       21       42 </v>
   <v type="int" >        2       17       21       22       42 </v>
   <v type="int" >        2       21       22       42       47 </v>
   <v type="int" >        2       16       21       41       42 </v>
   <v type="int" >        2       21       41       42       46 </v>
   <v type="int" >        2       21       42       46       47 </v>
   <v type="int" >        2       17       21       22       46 </v>
   <v type="int" >        2       16       17       21       46 </v>
   <v type="int" >        2       16       17       41       46 </v>
   <v type="int" >        2       17       22       46       47 </v>
   <v type="int" >        2       17       42       46       47 </v>
   <v type="int" >        2       17       41       42       46 </v>
   <v type="int" >        2       18       22       23       47 </v>
   <v type="int" >        2       17       18       22       47 </v>
   <v type="int" >        2       17       18       42       47 </v>
   <v type="int" >        2       18       23       47       48 </v>
   <v type="int" >        2       18       43       47       48 </v>
   <v type="int" >        2       18       42       43       47 </v>
   <v type="int" >        2       19       23       24       48 </v>
   <v type="int" >        2       18       19       23       48 </v>
   <v type="int" >        2       18       19       43       48 </v>
   <v type="int" >        2       19       24       48       49 </v>
   <v type="int" >        2       19       44       48       49 </v>
   <v type="int" >        2       19       43       44       48 </v>
   <v type="int" >        2       20       24       25       49 </v>
   <v type="int" >        2       19       20       24       49 </v>
   <v type="int" >        2       19       20       44       49 </v>
   <v type="int" >        2       20       25       49       50 </v>
   <v type="int" >        2       20       45       49       50 </v>
   <v type="int" >        2       20       44       45       49 </v>
   <v type="int" >        2       19       24       25       50 </v>
   <v type="int" >        2       19       20       25       50 </v>
   <v type="int" >        2       19       20       45       50 </v>
   <v type="int" >        2       19       24       49       50 </v>
   <v type="int" >        2       19       44       49       50 </v>
   <v type="int" >        2       19       44       45       50 </v>
   <v type="int" >        2       18       23       24       49 </v>
   <v type="int" >        2       18       19       24       49 </v>
   <v type="int" >        2       18       19       44       49 </v>
   <v type="int" >        2       18       23       48       49 </v>
   <v type="int" >        2       18       43       48       49 </v>
   <v type="int" >        2       18       43       44       49 </v>
   <v type="int" >        2       17       22       23       48 </v>
   <v type="int" >        2       17       18       23       48 </v>
   <v type="int" >        2       17       18       43       48 </v>
   <v type="int" >        2       17       22       47       48 </v>
   <v type="int" >        2       17       42       47       48 </v>
   <v type="int" >        2       17       42       43       48 </v>
   <v type="int" >        2       16       21       22       47 </v>
   <v type="int" >        2       16       17       22       47 </v>
   <v type="int" >        2       16       17       42       47 </v>
   <v type="int" >        2       16       21       46       47 </v>
   <v type="int" >        2       16       41       46       47 </v>
   <v type="int" >        2       16       41       42       47 </v>
   <v type="int" >        2       12       16       17       41 </v>
   <v type="int" >        2       11       12       16       41 </v>
   <v type="int" >        2       11       12       36       41 </v>
   <v type="int" >        2       12       17       41       42 </v>
   <v type="int" >        2       12       37       41       42 </v>
   <v type="int" >        2       12       36       37       41 </v>
   <v type="int" >        2       13       17       18       42 </v>
   <v type="int" >        2       12       13       17       42 </v>
   <v type="int" >        2       12       13       37       42 </v>
   <v type="int" >        2       13       18       42       43 </v>
   <v type="int" >        2       13       38       42       43 </v>
   <v type="int" >        2       13       37       38       42 </v>
   <v type="int" >        2       14       18       19       43 </v>
   <v type="int" >        2       13       14       18       43 </v>
   <v type="int" >        2       13       14       38       43 </v>
   <v type="int" >        2       14       19       43       44 </v>
   <v type="int" >        2       14       39       43       44 </v>
   <v type="int" >        2       14       38       39       43 </v>
   <v type="int" >        2       15       19       20       44 </v>
   <v type="int" >        2       14       15       19       44 </v>
   <v type="int" >        2       14       15       39       44 </v>
   <v type="int" >        2       15       20       44       45 </v>
   <v type="int" >        2       15       40       44       45 </v>
   <v type="int" >        2       15       39       40       44 </v>
   <v type="int" >        2       14       19       20       45 </v>
   <v type="int" >        2       14       15       20       45 </v>
   <v type="int" >        2       14       15       40       45 </v>
   <v type="int" >        2       14       19       44       45 </v>
   <v type="int" >        2       14       39       44       45 </v>
   <v type="int" >        2       14       39       40       45 </v>
   <v type="int" >        2       13       18       19       44 </v>
   <v type="int" >        2       13       14       19       44 </v>
   <v type="int" >        2       13       14       39       44 </v>
   <v type="int" >        2       13       18       43       44 </v>
   <v type="int" >        2       13       38       43       44 </v>
   <v type="int" >        2       13       38       39       44 </v>
   <v type="int" >        2       12       17       18       43 </v>
   <v type="int" >        2       12       13       18       43 </v>
   <v type="int" >        2       12       13       38       43 </v>
   <v type="int" >        2       12       17       42       43 </v>
   <v type="int" >        2       12       37       42       43 </v>
   <v type="int" >        2       12       37       38       43 </v>
   <v type="int" >        2       11       16       17       42 </v>
   <v type="int" >        2       11       12       17       42 </v>
   <v type="int" >        2       11       12       37       42 </v>
   <v type="int" >        2       11       16       41       42 </v>
   <v type="int" >        2       11       36       41       42 </v>
   <v type="int" >        2       11       36       37       42 </v>
   <v type="int" >        2        7       11       12       36 </v>
   <v type="int" >        2        6        7       11       36 </v>
   <v type="int" >        2        6        7       31       36 </v>
   <v type="int" >        2        7       12       36       37 </v>
   <v type="int" >        2        7       32       36       37 </v>
   <v type="int" >        2        7       31       32       36 </v>
   <v type="int" >        2        8       12       13       37 </v>
   <v type="int" >        2        7        8       12       37 </v>
   <v type="int" >        2        7        8       32       37 </v>
   <v type="int" >        2        8       13       37       38 </v>
   <v type="int" >        2        8       33       37       38 </v>
   <v type="int" >        2        8       32       33       37 </v>
   <v type="int" >        2        9       13       14       38 </v>
   <v type="int" >        2        8        9       13       38 </v>
   <v type="int" >        2        8        9       33       38 </v>
   <v type="int" >        2        9       14       38       39 </v>
   <v type="int" >        2        9       34       38       39 </v>
   <v type="int" >        2        9       33       34       38 </v>
   <v type="int" >        2       10       14       15       39 </v>
   <v type="int" >        2        9       10       14       39 </v>
   <v type="int" >        2        9       10       34       39 </v>
   <v type="int" >        2       10       15       39       40 </v>
   <v type="int" >        2       10       35       39       40 </v>
   <v type="int" >        2       10       34       35       39 </v>
   <v type="int" >        2        9       14       15       40 </v>
   <v type="int" >        2        9       10       15       40 </v>
   <v type="int" >        2        9       10       35       40 </v>
   <v type="int" >        2        9       14       39       40 </v>
   <v type="int" >        2        9       34       39       40 </v>
   <v type="int" >        2        9       34       35       40 </v>
   <v type="int" >        2        8       13       14       39 </v>
   <v type="int" >        2        8        9       14       39 </v>
   <v type="int" >        2        8        9       34       39 </v>
   <v type="int" >        2        8       13       38       39 </v>
   <v type="int" >        2        8       33       38       39 </v>
   <v type="int" >        2        8       33       34       39 </v>
   <v type="int" >        2        7       12       13       38 </v>
   <v type="int" >        2        7        8       13       38 </v>
   <v type="int" >        2        7        8       33       38 </v>
   <v type="int" >        2        7       12       37       38 </v>
   <v type="int" >        2        7       32       37       38 </v>
   <v type="int" >        2        7       32       33       38 </v>
   <v type="int" >        2        6       11       12       37 </v>
   <v type="int" >        2        6        7       12       37 </v>
   <v type="int" >        2        6        7       32       37 </v>
   <v type="int" >        2        6       11       36       37 </v>
   <v type="int" >        2        6       31       36       37 </v>
   <v type="int" >        2        6       31       32       37 </v>
   <v type="int" >        2        2        6        7       31 </v>
   <v type="int" >        2        1        2        6       31 </v>
   <v type="int" >        2        1        2       26       31 </v>
   <v type="int" >        2        2        7       31       32 </v>
   <v type="int" >        2        2       27       31       32 </v>
   <v type="int" >        2        2       26       27       31 </v>
   <v type="int" >        2        3        7        8       32 </v>
   <v type="int" >        2        2        3        7       32 </v>
   <v type="int" >        2        2        3       27       32 </v>
   <v type="int" >        2        3        8       32       33 </v>
   <v type="int" >        2        3       28       32       33 </v>
   <v type="int" >        2        3       27       28       32 </v>
   <v type="int" >        2        4        8        9       33 </v>
   <v type="int" >        2        3        4        8       33 </v>
   <v type="int" >        2        3        4       28       33 </v>
   <v type="int" >        2        4        9       33       34 </v>
   <v type="int" >        2        4       29       33       34 </v>
   <v type="int" >        2        4       28       29       33 </v>
   <v type="int" >        2        5        9       10       34 </v>
   <v type="int" >        2        4        5        9       34 </v>
   <v type="int" >        2        4        5       29       34 </v>
   <v type="int" >        2        5       10       34       35 </v>
   <v type="int" >        2        5       30       34       35 </v>
   <v type="int" >        2        5       29       30       34 </v>
   <v type="int" >        2        4        9       10       35 </v>
   <v type="int" >        2        4        5       10       35 </v>
   <v type="int" >        2        4        5       30       35 </v>
   <v type="int" >        2        4        9       34       35 </v>
   <v type="int" >        2        4       29       34       35 </v>
   <v type="int" >        2        4       29       30       35 </v>
   <v type="int" >        2        3        8        9       34 </v>
   <v type="int" >        2        3        4        9       34 </v>
   <v type="int" >        2        3        4       29       34 </v>
   <v type="int" >        2        3        8       33       34 </v>
   <v type="int" >        2        3       28       33       34 </v>
   <v type="int" >        2        3       28       29       34 </v>
   <v type="int" >        2        2        7        8       33 </v>
   <v type="int" >        2        2        3        8       33 </v>
   <v type="int" >        2        2        3       28       33 </v>
   <v type="int" >        2        2        7       32       33 </v>
   <v type="int" >        2        2       27       32       33 </v>
   <v type="int" >        2        2       27       28       33 </v>
   <v type="int" >        2        1        6        7       32 </v>
   <v type="int" >        2        1        2        7       32 </v>
   <v type="int" >        2        1        2       27       32 </v>
   <v type="int" >        2        1        6       31       32 </v>
   <v type="int" >        2        1       26       31       32 </v>
   <v type="int" >        2        1       26       27       32 </v>
   <v type="int" >        2       26       27       32       51 </v>
   <v type="int" >        2       26       31       32       51 </v>
   <v type="int" >        2       31       32       51       56 </v>
   <v type="int" >        2       27       32       51       52 </v>
   <v type="int" >        2       32       51       52       57 </v>
   <v type="int" >        2       32       51       56       57 </v>
   <v type="int" >        2       27       28       33       52 </v>
   <v type="int" >        2       27       32       33       52 </v>
   <v type="int" >        2       32       33       52       57 </v>
   <v type="int" >        2       28       33       52       53 </v>
   <v type="int" >        2       33       52       53       58 </v>
   <v type="int" >        2       33       52       57       58 </v>
   <v type="int" >        2       28       29       34       53 </v>
   <v type="int" >        2       28       33       34       53 </v>
   <v type="int" >        2       33       34       53       58 </v>
   <v type="int" >        2       29       34       53       54 </v>
   <v type="int" >        2       34       53       54       59 </v>
   <v type="int" >        2       34       53       58       59 </v>
   <v type="int" >        2       29       30       35       54 </v>
   <v type="int" >        2       29       34       35       54 </v>
   <v type="int" >        2       34       35       54       59 </v>
   <v type="int" >        2       30       35       54       55 </v>
   <v type="int" >        2       35       54       55       60 </v>
   <v type="int" >        2       35       54       59       60 </v>
   <v type="int" >        2       29       30       34       55 </v>
   <v type="int" >        2       30       34       35       55 </v>
   <v type="int" >        2       34       35       55       60 </v>
   <v type="int" >        2       29       34       54       55 </v>
   <v type="int" >        2       34       54       55       59 </v>
   <v type="int" >        2       34       55       59       60 </v>
   <v type="int" >        2       28       29       33       54 </v>
   <v type="int" >        2       29       33       34       54 </v>
   <v type="int" >        2       33       34       54       59 </v>
   <v type="int" >        2       28       33       53       54 </v>
   <v type="int" >        2       33       53       54       58 </v>
   <v type="int" >        2       33       54       58       59 </v>
   <v type="int" >        2       27       28       32       53 </v>
   <v type="int" >        2       28       32       33       53 </v>
   <v type="int" >        2       32       33       53       58 </v>
   <v type="int" >        2       27       32       52       53 </v>
   <v type="int" >        2       32       52       53       57 </v>
   <v type="int" >        2       32       53       57       58 </v>
   <v type="int" >        2       26       27       31       52 </v>
   <v type="int" >        2       27       31       32       52 </v>
   <v type="int" >        2       31       32       52       57 </v>
   <v type="int" >        2       26       31       51       52 </v>
   <v type="int" >        2       31       51       52       56 </v>
   <v type="int" >        2       31       52       56       57 </v>
   <v type="int" >        2       31       32       37       56 </v>
   <v type="int" >        2       31       36       37       56 </v>
   <v type="int" >        2       36       37       56       61 </v>
   <v type="int" >        2       32       37       56       57 </v>
   <v type="int" >        2       37       56       57       62 </v>
   <v type="int" >        2       37       56       61       62 </v>
   <v type="int" >        2       32       33       38       57 </v>
   <v type="int" >        2       32       37       38       57 </v>
   <v type="int" >        2       37       38       57       62 </v>
   <v type="int" >        2       33       38       57       58 </v>
   <v type="int" >        2       38       57       58       63 </v>
   <v type="int" >        2       38       57       62       63 </v>
   <v type="int" >        2       33       34       39       58 </v>
   <v type="int" >        2       33       38       39       58 </v>
   <v type="int" >        2       38       39       58       63 </v>
   <v type="int" >        2       34       39       58       59 </v>
   <v type="int" >        2       39       58       59       64 </v>
   <v type="int" >        2       39       58       63       64 </v>
   <v type="int" >        2       34       35       40       59 </v>
   <v type="int" >        2       34       39       40       59 </v>
   <v type="int" >        2       39       40       59       64 </v>
   <v type="int" >        2       35       40       59       60 </v>
   <v type="int" >        2       40       59       60       65 </v>
   <v type="int" >        2       40       59       64       65 </v>
   <v type="int" >        2       34       35       39       60 </v>
   <v type="int" >        2       35       39       40       60 </v>
   <v type="int" >        2       39       40       60       65 </v>
   <v type="int" >        2       34       39       59       60 </v>
   <v type="int" >        2       39       59       60       64 </v>
   <v type="int" >        2       39       60       64       65 </v>
   <v type="int" >        2       33       34       38       59 </v>
   <v type="int" >        2       34       38       39       59 </v>
   <v type="int" >        2       38       39       59       64 </v>
   <v type="int" >        2       33       38       58       59 </v>
   <v type="int" >        2       38       58       59       63 </v>
   <v type="int" >        2       38       59       63       64 </v>
   <v type="int" >        2       32       33       37       58 </v>
   <v type="int" >        2       33       37       38       58 </v>
   <v type="int" >        2       37       38       58       63 </v>
   <v type="int" >        2       32       37       57       58 </v>
   <v type="int" >        2       37       57       58       62 </v>
   <v type="int" >        2       37       58       62       63 </v>
   <v type="int" >        2       31       32       36       57 </v>
   <v type="int" >        2       32       36       37       57 </v>
   <v type="int" >        2       36       37       57       62 </v>
   <v type="int" >        2       31       36       56       57 </v>
   <v type="int" >        2       36       56       57       61 </v>
   <v type="int" >        2       36       57       61       62 </v>
   <v type="int" >        2       36       37       42       61 </v>
   <v type="int" >        2       36       41       42       61 </v>
   <v type="int" >        2       41       42       61       66 </v>
   <v type="int" >        2       37       42       61       62 </v>
   <v type="int" >        2       42       61       62       67 </v>
   <v type="int" >        2       42       61       66       67 </v>
   <v type="int" >        2       37       38       43       62 </v>
   <v type="int" >        2       37       42       43       62 </v>
   <v type="int" >        2       42       43       62       67 </v>
   <v type="int" >        2       38       43       62       63 </v>
   <v type="int" >        2       43       62       63       68 </v>
   <v type="int" >        2       43       62       67       68 </v>
   <v type="int" >        2       38       39       44       63 </v>
   <v type="int" >        2       38       43       44       63 </v>
   <v type="int" >        2       43       44       63       68 </v>
   <v type="int" >        2       39       44       63       64 </v>
   <v type="int" >        2       44       63       64       69 </v>
   <v type="int" >        2       44       63       68       69 </v>
   <v type="int" >        2       39       40       45       64 </v>
   <v type="int" >        2       39       44       45       64 </v>
   <v type="int" >        2       44       45       64       69 </v>
   <v type="int" >        2       40       45       64       65 </v>
   <v type="int" >        2       45       64       65       70 </v>
   <v type="int" >        2       45       64       69       70 </v>
   <v type="int" >        2       39       40       44       65 </v>
   <v type="int" >        2       40       44       45       65 </v>
   <v type="int" >        2       44       45       65       70 </v>
   <v type="int" >        2       39       44       64       65 </v>
   <v type="int" >        2       44       64       65       69 </v>
   <v type="int" >        2       44       65       69       70 </v>
   <v type="int" >        2       38       39       43       64 </v>
   <v type="int" >        2       39       43       44       64 </v>
   <v type="int" >        2       43       44       64       69 </v>
   <v type="int" >        2       38       43       63       64 </v>
   <v type="int" >        2       43       63       64       68 </v>
   <v type="int" >        2       43       64       68       69 </v>
   <v type="int" >        2       37       38       42       63 </v>
   <v type="int" >        2       38       42       43       63 </v>
   <v type="int" >        2       42       43       63       68 </v>
   <v type="int" >        2       37       42       62       63 </v>
   <v type="int" >        2       42       62       63       67 </v>
   <v type="int" >        2       42       63       67       68 </v>
   <v type="int" >        2       36       37       41       62 </v>
   <v type="int" >        2       37       41       42       62 </v>
   <v type="int" >        2       41       42       62       67 </v>
   <v type="int" >        2       36       41       61       62 </v>
   <v type="int" >        2       41       61       62       66 </v>
   <v type="int" >        2       41       62       66       67 </v>
   <v type="int" >        2       41       42       47       66 </v>
   <v type="int" >        2       41       46       47       66 </v>
   <v type="int" >        2       46       47       66       71 </v>
   <v type="int" >        2       42       47       66       67 </v>
   <v type="int" >        2       47       66       67       72 </v>
   <v type="int" >        2       47       66       71       72 </v>
   <v type="int" >        2       42       43       48       67 </v>
   <v type="int" >        2       42       47       48       67 </v>
   <v type="int" >        2       47       48       67       72 </v>
   <v type="int" >        2       43       48       67       68 </v>
   <v type="int" >        2       48       67       68       73 </v>
   <v type="int" >        2       48       67       72       73 </v>
   <v type="int" >        2       43       44       49       68 </v>
   <v type="int" >        2       43       48       49       68 </v>
   <v type="int" >        2       48       49       68       73 </v>
   <v type="int" >        2       44       49       68       69 </v>
   <v type="int" >        2       49       68       69       74 </v>
   <v type="int" >        2       49       68       73       74 </v>
   <v type="int" >        2       44       45       50       69 </v>
   <v type="int" >        2       44       49       50       69 </v>
   <v type="int" >        2       49       50       69       74 </v>
   <v type="int" >        2       45       50       69       70 </v>
   <v type="int" >        2       50       69       70       75 </v>
   <v type="int" >        2       50       69       74       75 </v>
   <v type="int" >        2       44       45       49       70 </v>
   <v type="int" >        2       45       49       50       70 </v>
   <v type="int" >        2       49       50       70       75 </v>
   <v type="int" >        2       44       49       69       70 </v>
   <v type="int" >        2       49       69       70       74 </v>
   <v type="int" >        2       49       70       74       75 </v>
   <v type="int" >        2       43       44       48       69 </v>
   <v type="int" >        2       44       48       49       69 </v>
   <v type="int" >        2       48       49       69       74 </v>
   <v type="int" >        2       43       48       68       69 </v>
   <v type="int" >        2       48       68       69       73 </v>
   <v type="int" >        2       48       69       73       74 </v>
   <v type="int" >        2       42       43       47       68 </v>
   <v type="int" >        2       43       47       48       68 </v>
   <v type="int" >        2       47       48       68       73 </v>
   <v type="int" >        2       42       47       67       68 </v>
   <v type="int" >        2       47       67       68       72 </v>
   <v type="int" >        2       47       68       72       73 </v>
   <v type="int" >        2       41       42       46       67 </v>
   <v type="int" >        2       42       46       47       67 </v>
   <v type="int" >        2       46       47       67       72 </v>
   <v type="int" >        2       41       46       66       67 </v>
   <v type="int" >        2       46       66       67       71 </v>
   <v type="int" >        2       46       67       71       72 </v>
   <v type="int" >        2       42       46       47       71 </v>
   <v type="int" >        2       41       42       46       71 </v>
   <v type="int" >        2       41       42       66       71 </v>
   <v type="int" >        2       42       47       71       72 </v>
   <v type="int" >        2       42       67       71       72 </v>
   <v type="int" >        2       42       66       67       71 </v>
   <v type="int" >        2       43       47       48       72 </v>
   <v type="int" >        2       42       43       47       72 </v>
   <v type="int" >        2       42       43       67       72 </v>
   <v type="int" >        2       43       48       72       73 </v>
   <v type="int" >        2       43       68       72       73 </v>
   <v type="int" >        2       43       67       68       72 </v>
   <v type="int" >        2       44       48       49       73 </v>
   <v type="int" >        2       43       44       48       73 </v>
   <v type="int" >        2       43       44       68       73 </v>
   <v type="int" >        2       44       49       73       74 </v>
   <v type="int" >        2       44       69       73       74 </v>
   <v type="int" >        2       44       68       69       73 </v>
   <v type="int" >        2       45       49       50       74 </v>
   <v type="int" >        2       44       45       49       74 </v>
   <v type="int" >        2       44       45       69       74 </v>
   <v type="int" >        2       45       50       74       75 </v>
   <v type="int" >        2       45       70       74       75 </v>
   <v type="int" >        2       45       69       70       74 </v>
   <v type="int" >        2       44       49       50       75 </v>
   <v type="int" >        2       44       45       50       75 </v>
   <v type="int" >        2       44       45       70       75 </v>
   <v type="int" >        2       44       49       74       75 </v>
   <v type="int" >        2       44       69       74       75 </v>
   <v type="int" >        2       44       69       70       75 </v>
   <v type="int" >        2       43       48       49       74 </v>
   <v type="int" >        2       43       44       49       74 </v>
   <v type="int" >        2       43       44       69       74 </v>
   <v type="int" >        2       43       48       73       74 </v>
   <v type="int" >        2       43       68       73       74 </v>
   <v type="int" >        2       43       68       69       74 </v>
   <v type="int" >        2       42       47       48       73 </v>
   <v type="int" >        2       42       43       48       73 </v>
   <v type="int" >        2       42       43       68       73 </v>
   <v type="int" >        2       42       47       72       73 </v>
   <v type="int" >        2       42       67       72       73 </v>
   <v type="int" >        2       42       67       68       73 </v>
   <v type="int" >        2       41       46       47       72 </v>
   <v type="int" >        2       41       42       47       72 </v>
   <v type="int" >        2       41       42       67       72 </v>
   <v type="int" >        2       41       46       71       72 </v>
   <v type="int" >        2       41       66       71       72 </v>
   <v type="int" >        2       41       66       67       72 </v>
   <v type="int" >        2       37       41       42       66 </v>
   <v type="int" >        2       36       37       41       66 </v>
   <v type="int" >        2       36       37       61       66 </v>
   <v type="int" >        2       37       42       66       67 </v>
   <v type="int" >        2       37       62       66       67 </v>
   <v type="int" >        2       37       61       62       66 </v>
   <v type="int" >        2       38       42       43       67 </v>
   <v type="int" >        2       37       38       42       67 </v>
   <v type="int" >        2       37       38       62       67 </v>
   <v type="int" >        2       38       43       67       68 </v>
   <v type="int" >        2       38       63       67       68 </v>
   <v type="int" >        2       38       62       63       67 </v>
   <v type="int" >        2       39       43       44       68 </v>
   <v type="int" >        2       38       39       43       68 </v>
   <v type="int" >        2       38       39       63       68 </v>
   <v type="int" >        2       39       44       68       69 </v>
   <v type="int" >        2       39       64       68       69 </v>
   <v type="int" >        2       39       63       64       68 </v>
   <v type="int" >        2       40       44       45       69 </v>
   <v type="int" >        2       39       40       44       69 </v>
   <v type="int" >        2       39       40       64       69 </v>
   <v type="int" >        2       40       45       69       70 </v>
   <v type="int" >        2       40       65       69       70 </v>
   <v type="int" >        2       40       64       65       69 </v>
   <v type="int" >        2       39       44       45       70 </v>
   <v type="int" >        2       39       40       45       70 </v>
   <v type="int" >        2       39       40       65       70 </v>
   <v type="int" >        2       39       44       69       70 </v>
   <v type="int" >        2       39       64       69       70 </v>
   <v type="int" >        2       39       64       65       70 </v>
   <v type="int" >        2       38       43       44       69 </v>
   <v type="int" >        2       38       39       44       69 </v>
   <v type="int" >        2       38       39       64       69 </v>
   <v type="int" >        2       38       43       68       69 </v>
   <v type="int" >        2       38       63       68       69 </v>
   <v type="int" >        2       38       63       64       69 </v>
   <v type="int" >        2       37       42       43       68 </v>
   <v type="int" >        2       37       38       43       68 </v>
   <v type="int" >        2       37       38       63       68 </v>
   <v type="int" >        2       37       42       67       68 </v>
   <v type="int" >        2       37       62       67       68 </v>
   <v type="int" >        2       37       62       63       68 </v>
   <v type="int" >        2       36       41       42       67 </v>
   <v type="int" >        2       36       37       42       67 </v>
   <v type="int" >        2       36       37       62       67 </v>
   <v type="int" >        2       36       41       66       67 </v>
   <v type="int" >        2       36       61       66       67 </v>
   <v type="int" >        2       36       61       62       67 </v>
   <v type="int" >        2       32       36       37       61 </v>
   <v type="int" >        2       31       32       36       61 </v>
   <v type="int" >        2       31       32       56       61 </v>
   <v type="int" >        2       32       37       61       62 </v>
   <v type="int" >        2       32       57       61       62 </v>
   <v type="int" >        2       32       56       57       61 </v>
   <v type="int" >        2       33       37       38       62 </v>
   <v type="int" >        2       32       33       37       62 </v>
   <v type="int" >        2       32       33       57       62 </v>
   <v type="int" >        2       33       38       62       63 </v>
   <v type="int" >        2       33       58       62       63 </v>
   <v type="int" >        2       33       57       58       62 </v>
   <v type="int" >        2       34       38       39       63 </v>
   <v type="int" >        2       33       34       38       63 </v>
   <v type="int" >        2       33       34       58       63 </v>
   <v type="int" >        2       34       39       63       64 </v>
   <v type="int" >        2       34       59       63       64 </v>
   <v type="int" >        2       34       58       59       63 </v>
   <v type="int" >        2       35       39       40       64 </v>
   <v type="int" >        2       34       35       39       64 </v>
   <v type="int" >        2       34       35       59       64 </v>
   <v type="int" >        2       35       40       64       65 </v>
   <v type="int" >        2       35       60       64       65 </v>
   <v type="int" >        2       35       59       60       64 </v>
   <v type="int" >        2       34       39       40       65 </v>
   <v type="int" >        2       34       35       40       65 </v>
   <v type="int" >        2       34       35       60       65 </v>
   <v type="int" >        2       34       39       64       65 </v>
   <v type="int" >        2       34       59       64       65 </v>
   <v type="int" >        2       34       59       60       65 </v>
   <v type="int" >        2       33       38       39       64 </v>
   <v type="int" >        2       33       34       39       64 </v>
   <v type="int" >        2       33       34       59       64 </v>
   <v type="int" >        2       33       38       63       64 </v>
   <v type="int" >        2       33       58       63       64 </v>
   <v type="int" >        2       33       58       59       64 </v>
   <v type="int" >        2       32       37       38       63 </v>
   <v type="int" >        2       32       33       38       63 </v>
   <v type="int" >        2       32       33       58       63 </v>
   <v type="int" >        2       32       37       62       63 </v>
   <v type="int" >        2       32       57       62       63 </v>
   <v type="int" >        2       32       57       58       63 </v>
   <v type="int" >        2       31       36       37       62 </v>
   <v type="int" >        2       31       32       37       62 </v>
   <v type="int" >        2       31       32       57       62 </v>
   <v type="int" >        2       31       36       61       62 </v>
   <v type="int" >        2       31       56       61       62 </v>
   <v type="int" >        2       31       56       57       62 </v>
   <v type="int" >        2       27       31       32       56 </v>
   <v type="int" >        2       26       27       31       56 </v>
   <v type="int" >        2       26       27       51       56 </v>
   <v type="int" >        2       27       32       56       57 </v>
   <v type="int" >        2       27       52       56       57 </v>
   <v type="int" >        2       27       51       52       56 </v>
   <v type="int" >        2       28       32       33       57 </v>
   <v type="int" >        2       27       28       32       57 </v>
   <v type="int" >        2       27       28       52       57 </v>
   <v type="int" >        2       28       33       57       58 </v>
   <v type="int" >        2       28       53       57       58 </v>
   <v type="int" >        2       28       52       53       57 </v>
   <v type="int" >        2       29       33       34       58 </v>
   <v type="int" >        2       28       29       33       58 </v>
   <v type="int" >        2       28       29       53       58 </v>
   <v type="int" >        2       29       34       58       59 </v>
   <v type="int" >        2       29       54       58       59 </v>
   <v type="int" >        2       29       53       54       58 </v>
   <v type="int" >        2       30       34       35       59 </v>
   <v type="int" >        2       29       30       34       59 </v>
   <v type="int" >        2       29       30       54       59 </v>
   <v type="int" >        2       30       35       59       60 </v>
   <v type="int" >        2       30       55       59       60 </v>
   <v type="int" >        2       30       54       55       59 </v>
   <v type="int" >        2       29       34       35       60 </v>
   <v type="int" >        2       29       30       35       60 </v>
   <v type="int" >        2       29       30       55       60 </v>
   <v type="int" >        2       29       34       59       60 </v>
   <v type="int" >        2       29       54       59       60 </v>
   <v type="int" >        2       29       54       55       60 </v>
   <v type="int" >        2       28       33       34       59 </v>
   <v type="int" >        2       28       29       34       59 </v>
   <v type="int" >        2       28       29       54       59 </v>
   <v type="int" >        2       28       33       58       59 </v>
   <v type="int" >        2       28       53       58       59 </v>
   <v type="int" >        2       28       53       54       59 </v>
   <v type="int" >        2       27       32       33       58 </v>
   <v type="int" >        2       27       28       33       58 </v>
   <v type="int" >        2       27       28       53       58 </v>
   <v type="int" >        2       27       32       57       58 </v>
   <v type="int" >        2       27       52       57       58 </v>
   <v type="int" >        2       27       52       53       58 </v>
   <v type="int" >        2       26       31       32       57 </v>
   <v type="int" >        2       26       27       32       57 </v>
   <v type="int" >        2       26       27       52       57 </v>
   <v type="int" >        2       26       31       56       57 </v>
   <v type="int" >        2       26       51       56       57 </v>
   <v type="int" >        2       26       51       52       57 </v>
   <v type="int" >        2       51       52       57       76 </v>
   <v type="int" >        2       51       56       57       76 </v>
   <v type="int" >        2       56       57       76       81 </v>
   <v type="int" >        2       52       57       76       77 </v>
   <v type="int" >        2       57       76       77       82 </v>
   <v type="int" >        2       57       76       81       82 </v>
   <v type="int" >        2       52       53       58       77 </v>
   <v type="int" >        2       52       57       58       77 </v>
   <v type="int" >        2       57       58       77       82 </v>
   <v type="int" >        2       53       58       77       78 </v>
   <v type="int" >        2       58       77       78       83 </v>
   <v type="int" >        2       58       77       82       83 </v>
   <v type="int" >        2       53       54       59       78 </v>
   <v type="int" >        2       53       58       59       78 </v>
   <v type="int" >        2       58       59       78       83 </v>
   <v type="int" >        2       54       59       78       79 </v>
   <v type="int" >        2       59       78       79       84 </v>
   <v type="int" >        2       59       78       83       84 </v>
   <v type="int" >        2       54       55       60       79 </v>
   <v type="int" >        2       54       59       60       79 </v>
   <v type="int" >        2       59       60       79       84 </v>
   <v type="int" >        2       55       60       79       80 </v>
   <v type="int" >        2       60       79       80       85 </v>
   <v type="int" >        2       60       79       84       85 </v>
   <v type="int" >        2       54       55       59       80 </v>
   <v type="int" >        2       55       59       60       80 </v>
   <v type="int" >        2       59       60       80       85 </v>
   <v type="int" >        2       54       59       79       80 </v>
   <v type="int" >        2       59       79       80       84 </v>
   <v type="int" >        2       59       80       84       85 </v>
   <v type="int" >        2       53       54       58       79 </v>
   <v type="int" >        2       54       58       59       79 </v>
   <v type="int" >        2       58       59       79       84 </v>
   <v type="int" >        2       53       58       78       79 </v>
   <v type="int" >        2       58       78       79       83 </v>
   <v type="int" >        2       58       79       83       84 </v>
   <v type="int" >        2       52       53       57       78 </v>
   <v type="int" >        2       53       57       58       78 </v>
   <v type="int" >        2       57       58       78       83 </v>
   <v type="int" >        2       52       57       77       78 </v>
   <v type="int" >        2       57       77       78       82 </v>
   <v type="int" >        2       57       78       82       83 </v>
   <v type="int" >        2       51       52       56       77 </v>
   <v type="int" >        2       52       56       57       77 </v>
   <v type="int" >        2       56       57       77       82 </v>
   <v type="int" >        2       51       56       76       77 </v>
   <v type="int" >        2       56       76       77       81 </v>
   <v type="int" >        2       56       77       81       82 </v>
   <v type="int" >        2       56       57       62       81 </v>
   <v type="int" >        2       56       61       62       81 </v>
   <v type="int" >        2       61       62       81       86 </v>
   <v type="int" >        2       57       62       81       82 </v>
   <v type="int" >        2       62       81       82       87 </v>
   <v type="int" >        2       62       81       86       87 </v>
   <v type="int" >        2       57       58       63       82 </v>
   <v type="int" >        2       57       62       63       82 </v>
   <v type="int" >        2       62       63       82       87 </v>
   <v type="int" >        2       58       63       82       83 </v>
   <v type="int" >        2       63       82       83       88 </v>
   <v type="int" >        2       63       82       87       88 </v>
   <v type="int" >        2       58       59       64       83 </v>
   <v type="int" >        2       58       63       64       83 </v>
   <v type="int" >        2       63       64       83       88 </v>
   <v type="int" >        2       59       64       83       84 </v>
   <v type="int" >        2       64       83       84       89 </v>
   <v type="int" >        2       64       83       88       89 </v>
   <v type="int" >        2       59       60       65       84 </v>
   <v type="int" >        2       59       64       65       84 </v>
   <v type="int" >        2       64       65       84       89 </v>
   <v type="int" >        2       60       65       84       85 </v>
   <v type="int" >        2       65       84       85       90 </v>
   <v type="int" >        2       65       84       89       90 </v>
   <v type="int" >        2       59       60       64       85 </v>
   <v type="int" >        2       60       64       65       85 </v>
   <v type="int" >        2       64       65       85       90 </v>
   <v type="int" >        2       59       64       84       85 </v>
   <v type="int" >        2       64       84       85       89 </v>
   <v type="int" >        2       64       85       89       90 </v>
   <v type="int" >        2       58       59       63       84 </v>
   <v type="int" >        2       59       63       64       84 </v>
   <v type="int" >        2       63       64       84       89 </v>
   <v type="int" >        2       58       63       83       84 </v>
   <v type="int" >        2       63       83       84       88 </v>
   <v type="int" >        2       63       84       88       89 </v>
   <v type="int" >        2       57       58       62       83 </v>
   <v type="int" >        2       58       62       63       83 </v>
   <v type="int" >        2       62       63       83       88 </v>
   <v type="int" >        2       57       62       82       83 </v>
   <v type="int" >        2       62       82       83       87 </v>
   <v type="int" >        2       62       83       87       88 </v>
   <v type="int" >        2       56       57       61       82 </v>
   <v type="int" >        2       57       61       62       82 </v>
   <v type="int" >        2       61       62       82       87 </v>
   <v type="int" >        2       56       61       81       82 </v>
   <v type="int" >        2       61       81       82       86 </v>
   <v type="int" >        2       61       82       86       87 </v>
   <v type="int" >        2       61       62       67       86 </v>
   <v type="int" >        2       61       66       67       86 </v>
   <v type="int" >        2       66       67       86       91 </v>
   <v type="int" >        2       62       67       86       87 </v>
   <v type="int" >        2       67       86       87       92 </v>
   <v type="int" >        2       67       86       91       92 </v>
   <v type="int" >        2       62       63       68       87 </v>
   <v type="int" >        2       62       67       68       87 </v>
   <v type="int" >        2       67       68       87       92 </v>
   <v type="int" >        2       63       68       87       88 </v>
   <v type="int" >        2       68       87       88       93 </v>
   <v type="int" >        2       68       87       92       93 </v>
   <v type="int" >        2       63       64       69       88 </v>
   <v type="int" >        2       63       68       69       88 </v>
   <v type="int" >        2       68       69       88       93 </v>
   <v type="int" >        2       64       69       88       89 </v>
   <v type="int" >        2       69       88       89       94 </v>
   <v type="int" >        2       69       88       93       94 </v>
   <v type="int" >        2       64       65       70       89 </v>
   <v type="int" >        2       64       69       70       89 </v>
   <v type="int" >        2       69       70       89       94 </v>
   <v type="int" >        2       65       70       89       90 </v>
   <v type="int" >        2       70       89       90       95 </v>
   <v type="int" >        2       70       89       94       95 </v>
   <v type="int" >        2       64       65       69       90 </v>
   <v type="int" >        2       65       69       70       90 </v>
   <v type="int" >        2       69       70       90       95 </v>
   <v type="int" >        2       64       69       89       90 </v>
   <v type="int" >        2       69       89       90       94 </v>
   <v type="int" >        2       69       90       94       95 </v>
   <v type="int" >        2       63       64       68       89 </v>
   <v type="int" >        2       64       68       69       89 </v>
   <v type="int" >        2       68       69       89       94 </v>
   <v type="int" >        2       63       68       88       89 </v>
   <v type="int" >        2       68       88       89       93 </v>
   <v type="int" >        2       68       89       93       94 </v>
   <v type="int" >        2       62       63       67       88 </v>
   <v type="int" >        2       63       67       68       88 </v>
   <v type="int" >        2       67       68       88       93 </v>
   <v type="int" >        2       62       67       87       88 </v>
   <v type="int" >        2       67       87       88       92 </v>
   <v type="int" >        2       67       88       92       93 </v>
   <v type="int" >        2       61       62       66       87 </v>
   <v type="int" >        2       62       66       67       87 </v>
   <v type="int" >        2       66       67       87       92 </v>
   <v type="int" >        2       61       66       86       87 </v>
   <v type="int" >        2       66       86       87       91 </v>
   <v type="int" >        2       66       87       91       92 </v>
   <v type="int" >        2       66       67       72       91 </v>
   <v type="int" >        2       66       71       72       91 </v>
   <v type="int" >        2       71       72       91       96 </v>
   <v type="int" >        2       67       72       91       92 </v>
   <v type="int" >        2       72       91       92       97 </v>
   <v type="int" >        2       72       91       96       97 </v>
   <v type="int" >        2       67       68       73       92 </v>
   <v type="int" >        2       67       72       73       92 </v>
   <v type="int" >        2       72       73       92       97 </v>
   <v type="int" >        2       68       73       92       93 </v>
   <v type="int" >        2       73       92       93       98 </v>
   <v type="int" >        2       73       92       97       98 </v>
   <v type="int" >        2       68       69       74       93 </v>
   <v type="int" >        2       68       73       74       93 </v>
   <v type="int" >        2       73       74       93       98 </v>
   <v type="int" >        2       69       74       93       94 </v>
   <v type="int" >        2       74       93       94       99 </v>
   <v type="int" >        2       74       93       98       99 </v>
   <v type="int" >        2       69       70       75       94 </v>
   <v type="int" >        2       69       74       75       94 </v>
   <v type="int" >        2       74       75       94       99 </v>
   <v type="int" >        2       70       75       94       95 </v>
   <v type="int" >        2       75       94       95      100 </v>
   <v type="int" >        2       75       94       99      100 </v>
   <v type="int" >        2       69       70       74       95 </v>
   <v type="int" >        2       70       74       75       95 </v>
   <v type="int" >        2       74       75       95      100 </v>
   <v type="int" >        2       69       74       94       95 </v>
   <v type="int" >        2       74       94       95       99 </v>
   <v type="int" >        2       74       95       99      100 </v>
   <v type="int" >        2       68       69       73       94 </v>
   <v type="int" >        2       69       73       74       94 </v>
   <v type="int" >        2       73       74       94       99 </v>
   <v type="int" >        2       68       73       93       94 </v>
   <v type="int" >        2       73       93       94       98 </v>
   <v type="int" >        2       73       94       98       99 </v>
   <v type="int" >        2       67       68       72       93 </v>
   <v type="int" >        2       68       72       73       93 </v>
   <v type="int" >        2       72       73       93       98 </v>
   <v type="int" >        2       67       72       92       93 </v>
   <v type="int" >        2       72       92       93       97 </v>
   <v type="int" >        2       72       93       97       98 </v>
   <v type="int" >        2       66       67       71       92 </v>
   <v type="int" >        2       67       71       72       92 </v>
   <v type="int" >        2       71       72       92       97 </v>
   <v type="int" >        2       66       71       91       92 </v>
   <v type="int" >        2       71       91       92       96 </v>
   <v type="int" >        2       71       92       96       97 </v>
   <v type="int" >        2       67       71       72       96 </v>
   <v type="int" >        2       66       67       71       96 </v>
   <v type="int" >        2       66       67       91       96 </v>
   <v type="int" >        2       67       72       96       97 </v>
   <v type="int" >        2       67       92       96       97 </v>
   <v type="int" >        2       67       91       92       96 </v>
   <v type="int" >        2       68       72       73       97 </v>
   <v type="int" >        2       67       68       72       97 </v>
[...]
   </energy>
  </scstep>
  <scstep>
   <time name="dav">  298.88  299.03</time>
   <time name="total">  314.78  314.95</time>
   <energy>
    <i name="e_fr_energy">   -304.08954003 </i>
    <i name="e_wo_entrp">   -304.08954003 </i>
    <i name="e_0_energy">   -304.08954003 </i>
   </energy>
  </scstep>
  <scstep>
   <time name="dav">  292.63  292.78</time>
   <time name="total">  294.15  294.30</time>
   <energy>
    <i name="alphaZ">    145.13652845 </i>
    <i name="ewald">  -1830.47720712 </i>
    <i name="hartreedc">  -1940.11875432 </i>
    <i name="XCdc">    409.05537540 </i>
    <i name="pawpsdc">   1783.25451985 </i>
    <i name="pawaedc">  -1814.85143602 </i>
    <i name="eentropy">      0.00000000 </i>
    <i name="bandstr">   -887.51102097 </i>
    <i name="atom">   3831.42245470 </i>
    <i name="e_fr_energy">   -304.08954003 </i>
    <i name="e_wo_entrp">   -304.08954003 </i>
    <i name="e_0_energy">   -304.08954003 </i>
   </energy>
  </scstep>
  <structure>
   <crystal>
    <varray name="basis" >
     <v>       7.30563609       0.00000000       0.00000000 </v>
     <v>       0.00000000       9.30810548       0.00000000 </v>
     <v>       0.00000000       0.00000000       6.65503220 </v>
    </varray>
    <i name="volume">    452.55304651 </i>
    <varray name="rec_basis" >
     <v>       0.13688062       0.00000000       0.00000000 </v>
     <v>       0.00000000       0.10743325       0.00000000 </v>
     <v>       0.00000000       0.00000000       0.15026223 </v>
    </varray>
   </crystal>
   <varray name="positions" >
    <v>       0.94472962       0.14374153       0.00206853 </v>
    <v>       0.05527036       0.85625847      -0.00206851 </v>
    <v>       0.55527038       0.85625847       0.50206850 </v>
    <v>       0.44472965       0.14374153       0.49793147 </v>
    <v>       0.05527036       0.64374153       0.49793147 </v>
    <v>       0.94472962       0.35625847       0.50206850 </v>
    <v>       0.44472965       0.35625847      -0.00206851 </v>
    <v>       0.55527038       0.64374153       0.00206853 </v>
    <v>       0.07911274       0.09579688       0.13641059 </v>
    <v>       0.92088728       0.90420310       0.86358938 </v>
    <v>       0.42088728       0.90420310       0.63641062 </v>
    <v>       0.57911272       0.09579688       0.36358941 </v>
    <v>       0.92088728       0.59579690       0.36358941 </v>
    <v>       0.07911274       0.40420313       0.63641062 </v>
    <v>       0.57911272       0.40420313       0.86358938 </v>
    <v>       0.42088728       0.59579690       0.13641059 </v>
    <v>       0.86503777       0.04778042       0.86635294 </v>
    <v>       0.13496223       0.95221956       0.13364706 </v>
    <v>       0.63496223       0.95221956       0.36635294 </v>
    <v>       0.36503777       0.04778042       0.63364706 </v>
    <v>       0.13496223       0.54778044       0.63364706 </v>
    <v>       0.86503777       0.45221959       0.36635294 </v>
    <v>       0.36503777       0.45221959       0.13364706 </v>
    <v>       0.63496223       0.54778044       0.86635294 </v>
    <v>       0.90234370       0.25605530       0.00107322 </v>
    <v>       0.09765629       0.74394471      -0.00107319 </v>
    <v>       0.59765630       0.74394471       0.50107319 </v>
    <v>       0.40234370       0.25605530       0.49892678 </v>
    <v>       0.09765629       0.75605529       0.49892678 </v>
    <v>       0.90234370       0.24394471       0.50107319 </v>
    <v>       0.40234370       0.24394471      -0.00107319 </v>
    <v>       0.59765630       0.75605529       0.00107322 </v>
    <v>       0.13962700       0.16908731       0.24504809 </v>
    <v>       0.86037298       0.83091268       0.75495189 </v>
    <v>       0.36037298       0.83091268       0.74504811 </v>
    <v>       0.63962702       0.16908731       0.25495189 </v>
    <v>       0.86037298       0.66908732       0.25495189 </v>
    <v>       0.13962700       0.33091268       0.74504811 </v>
    <v>       0.63962702       0.33091268       0.75495189 </v>
    <v>       0.36037298       0.66908732       0.24504809 </v>
    <v>       0.75857547       0.08404843       0.76409596 </v>
    <v>       0.24142452       0.91595158       0.23590406 </v>
    <v>       0.74142453       0.91595158       0.26409596 </v>
    <v>       0.25857547       0.08404843       0.73590404 </v>
    <v>       0.24142452       0.58404842       0.73590404 </v>
    <v>       0.75857547       0.41595158       0.26409596 </v>
    <v>       0.25857547       0.41595158       0.23590406 </v>
    <v>       0.74142453       0.58404842       0.76409596 </v>
   </varray>
  </structure>
  <varray name="forces" >
   <v>       0.07246996      -0.02943078       0.07117446 </v>
   <v>      -0.07246996       0.02943078      -0.07117446 </v>
   <v>      -0.07246996       0.02943078       0.07117446 </v>
   <v>       0.07246996      -0.02943078      -0.07117446 </v>
   <v>      -0.07246996      -0.02943078      -0.07117446 </v>
   <v>       0.07246996       0.02943078       0.07117446 </v>
   <v>       0.07246996       0.02943078      -0.07117446 </v>
   <v>      -0.07246996      -0.02943078       0.07117446 </v>
   <v>      -0.09015679      -0.00814699      -0.11287280 </v>
   <v>       0.09015679       0.00814699       0.11287280 </v>
   <v>       0.09015679       0.00814699      -0.11287280 </v>
   <v>      -0.09015679      -0.00814699       0.11287280 </v>
   <v>       0.09015679      -0.00814699       0.11287280 </v>
   <v>      -0.09015679       0.00814699      -0.11287280 </v>
   <v>      -0.09015679       0.00814699       0.11287280 </v>
   <v>       0.09015679      -0.00814699      -0.11287280 </v>
   <v>       0.10573739      -0.05265376       0.09424422 </v>
   <v>      -0.10573739       0.05265376      -0.09424422 </v>
   <v>      -0.10573739       0.05265376       0.09424422 </v>
   <v>       0.10573739      -0.05265376      -0.09424422 </v>
   <v>      -0.10573739      -0.05265376      -0.09424422 </v>
   <v>       0.10573739       0.05265376       0.09424422 </v>
   <v>       0.10573739       0.05265376      -0.09424422 </v>
   <v>      -0.10573739      -0.05265376       0.09424422 </v>
   <v>       0.00202516       0.00039962       0.09035873 </v>
   <v>      -0.00202516      -0.00039962      -0.09035873 </v>
   <v>      -0.00202516      -0.00039962       0.09035873 </v>
   <v>       0.00202516       0.00039962      -0.09035873 </v>
   <v>      -0.00202516       0.00039962      -0.09035873 </v>
   <v>       0.00202516      -0.00039962       0.09035873 </v>
   <v>       0.00202516      -0.00039962      -0.09035873 </v>
   <v>      -0.00202516       0.00039962       0.09035873 </v>
   <v>       0.02121817       0.06113310      -0.02238675 </v>
   <v>      -0.02121817      -0.06113310       0.02238675 </v>
   <v>      -0.02121817      -0.06113310      -0.02238675 </v>
   <v>       0.02121817       0.06113310       0.02238675 </v>
   <v>      -0.02121817       0.06113310       0.02238675 </v>
   <v>       0.02121817      -0.06113310      -0.02238675 </v>
   <v>       0.02121817      -0.06113310       0.02238675 </v>
   <v>      -0.02121817       0.06113310      -0.02238675 </v>
   <v>      -0.05195151       0.01232993      -0.09948325 </v>
   <v>       0.05195151      -0.01232993       0.09948325 </v>
   <v>       0.05195151      -0.01232993      -0.09948325 </v>
   <v>      -0.05195151       0.01232993       0.09948325 </v>
   <v>       0.05195151       0.01232993       0.09948325 </v>
   <v>      -0.05195151      -0.01232993      -0.09948325 </v>
   <v>      -0.05195151      -0.01232993       0.09948325 </v>
   <v>       0.05195151       0.01232993      -0.09948325 </v>
  </varray>
  <varray name="stress" >
   <v>      -2.99608990       0.00000000       0.00000000 </v>
   <v>       0.00000000       2.20415638       0.00000000 </v>
   <v>       0.00000000       0.00000000      -1.13963233 </v>
  </varray>
  <energy>
   <i name="e_fr_energy">   -307.63054361 </i>
   <i name="e_wo_entrp">   -307.63054361 </i>
   <i name="e_0_energy">      0.00000000 </i>
  </energy>
  <time name="totalsc"> 5269.71 5272.42</time>
 </calculation>
 <calculation>
  <scstep>
   <time name="dav">  410.54  410.75</time>
   <time name="total">  426.87  427.09</time>
   <energy>
    <i name="alphaZ">    145.13652845 </i>
    <i name="ewald">  -1829.35120425 </i>
    <i name="hartreedc">  -1941.20335908 </i>
    <i name="XCdc">    409.06528723 </i>
    <i name="pawpsdc">   1783.25461356 </i>
    <i name="pawaedc">  -1814.85152708 </i>
    <i name="eentropy">      0.00000000 </i>
    <i name="bandstr">   -887.56361902 </i>
    <i name="atom">   3831.42245470 </i>
    <i name="e_fr_energy">   -304.09082548 </i>
    <i name="e_wo_entrp">   -304.09082548 </i>
    <i name="e_0_energy">   -304.09082548 </i>
   </energy>
  </scstep>
  <scstep>
   <time name="dav">  470.98  471.22</time>
   <time name="total">  486.93  487.18</time>
   <energy>
    <i name="e_fr_energy">   -304.09087261 </i>
    <i name="e_wo_entrp">   -304.09087261 </i>
    <i name="e_0_energy">   -304.09087261 </i>
   </energy>
  </scstep>
  <scstep>
   <time name="dav">  464.06  464.29</time>
   <time name="total">  479.97  480.22</time>
   <energy>
    <i name="e_fr_energy">   -304.09084314 </i>
    <i name="e_wo_entrp">   -304.09084314 </i>
    <i name="e_0_energy">   -304.09084314 </i>
   </energy>
  </scstep>
  <scstep>
   <time name="dav">  442.09  442.32</time>
   <time name="total">  458.25  458.49</time>
   <energy>
    <i name="e_fr_energy">   -304.09084102 </i>
    <i name="e_wo_entrp">   -304.09084102 </i>
    <i name="e_0_energy">   -304.09084102 </i>
   </energy>
  </scstep>
  <scstep>
   <time name="dav">  440.42  440.64</time>
   <time name="total">  456.36  456.59</time>
   <energy>
    <i name="e_fr_energy">   -304.09083839 </i>
    <i name="e_wo_entrp">   -304.09083839 </i>
    <i name="e_0_energy">   -304.09083839 </i>
   </energy>
  </scstep>
  <scstep>
   <time name="dav">  463.09  463.33</time>
   <time name="total">  477.69  477.94</time>
   <energy>
    <i name="e_fr_energy">   -304.09083858 </i>
    <i name="e_wo_entrp">   -304.09083858 </i>
    <i name="e_0_energy">   -304.09083858 </i>
   </energy>
  </scstep>
  <scstep>
   <time name="dav">  450.45  450.68</time>
   <time name="total">  466.33  466.57</time>
   <energy>
    <i name="e_fr_energy">   -304.09083859 </i>
    <i name="e_wo_entrp">   -304.09083859 </i>
    <i name="e_0_energy">   -304.09083859 </i>
   </energy>
  </scstep>
  <scstep>
   <time name="dav">  338.28  338.45</time>
   <time name="total">  354.23  354.41</time>
   <energy>
    <i name="e_fr_energy">   -304.09083857 </i>
    <i name="e_wo_entrp">   -304.09083857 </i>
    <i name="e_0_energy">   -304.09083857 </i>
   </energy>
  </scstep>
  <scstep>
   <time name="dav">  301.33  301.48</time>
   <time name="total">  314.64  314.80</time>
   <energy>
    <i name="e_fr_energy">   -304.09083860 </i>
    <i name="e_wo_entrp">   -304.09083860 </i>
    <i name="e_0_energy">   -304.09083860 </i>
   </energy>
  </scstep>
  <scstep>
   <time name="dav">  294.57  294.72</time>
   <time name="total">  296.06  296.22</time>
   <energy>
    <i name="alphaZ">    145.13652845 </i>
    <i name="ewald">  -1829.35120425 </i>
    <i name="hartreedc">  -1941.25129898 </i>
    <i name="XCdc">    409.05798347 </i>
    <i name="pawpsdc">   1783.45790176 </i>
    <i name="pawaedc">  -1815.05568420 </i>
    <i name="eentropy">      0.00000000 </i>
    <i name="bandstr">   -887.50751955 </i>
    <i name="atom">   3831.42245470 </i>
    <i name="e_fr_energy">   -304.09083859 </i>
    <i name="e_wo_entrp">   -304.09083859 </i>
    <i name="e_0_energy">   -304.09083859 </i>
   </energy>
  </scstep>
  <structure>
   <crystal>
    <varray name="basis" >
     <v>       7.30563609       0.00000000       0.00000000 </v>
     <v>       0.00000000       9.30810548       0.00000000 </v>
     <v>       0.00000000       0.00000000       6.65503220 </v>
    </varray>
    <i name="volume">    452.55304651 </i>
    <varray name="rec_basis" >
     <v>       0.13688062       0.00000000       0.00000000 </v>
     <v>       0.00000000       0.10743325       0.00000000 </v>
     <v>       0.00000000       0.00000000       0.15026223 </v>
    </varray>
   </crystal>
   <varray name="positions" >
    <v>       0.94477521       0.14371314       0.00214388 </v>
    <v>       0.05522478       0.85628686      -0.00214385 </v>
    <v>       0.55522479       0.85628686       0.50214385 </v>
    <v>       0.44477524       0.14371314       0.49785612 </v>
    <v>       0.05522478       0.64371314       0.49785612 </v>
    <v>       0.94477521       0.35628686       0.50214385 </v>
    <v>       0.44477524       0.35628686      -0.00214385 </v>
    <v>       0.55522479       0.64371314       0.00214388 </v>
    <v>       0.07903608       0.09580854       0.13631523 </v>
    <v>       0.92096394       0.90419144       0.86368474 </v>
    <v>       0.42096394       0.90419144       0.63631526 </v>
    <v>       0.57903606       0.09580854       0.36368477 </v>
    <v>       0.92096394       0.59580856       0.36368477 </v>
    <v>       0.07903608       0.40419147       0.63631526 </v>
    <v>       0.57903606       0.40419147       0.86368474 </v>
    <v>       0.42096394       0.59580856       0.13631523 </v>
    <v>       0.86513831       0.04775582       0.86641336 </v>
    <v>       0.13486169       0.95224416       0.13358664 </v>
    <v>       0.63486169       0.95224416       0.36641336 </v>
    <v>       0.36513831       0.04775582       0.63358664 </v>
    <v>       0.13486169       0.54775584       0.63358664 </v>
    <v>       0.86513831       0.45224419       0.36641336 </v>
    <v>       0.36513831       0.45224419       0.13358664 </v>
    <v>       0.63486169       0.54775584       0.86641336 </v>
    <v>       0.90234150       0.25603314       0.00090146 </v>
    <v>       0.09765849       0.74396688      -0.00090143 </v>
    <v>       0.59765850       0.74396688       0.50090143 </v>
    <v>       0.40234150       0.25603314       0.49909854 </v>
    <v>       0.09765849       0.75603312       0.49909854 </v>
    <v>       0.90234150       0.24396688       0.50090143 </v>
    <v>       0.40234150       0.24396688      -0.00090143 </v>
    <v>       0.59765850       0.75603312       0.00090146 </v>
    <v>       0.13962856       0.16904175       0.24514825 </v>
    <v>       0.86037142       0.83095823       0.75485173 </v>
    <v>       0.36037142       0.83095823       0.74514827 </v>
    <v>       0.63962858       0.16904175       0.25485173 </v>
    <v>       0.86037142       0.66904177       0.25485173 </v>
    <v>       0.13962856       0.33095823       0.74514827 </v>
    <v>       0.63962858       0.33095823       0.75485173 </v>
    <v>       0.36037142       0.66904177       0.24514825 </v>
    <v>       0.75844191       0.08411068       0.76407083 </v>
    <v>       0.24155807       0.91588934       0.23592919 </v>
    <v>       0.74155809       0.91588934       0.26407083 </v>
    <v>       0.25844191       0.08411068       0.73592917 </v>
    <v>       0.24155807       0.58411066       0.73592917 </v>
    <v>       0.75844191       0.41588934       0.26407083 </v>
    <v>       0.25844191       0.41588934       0.23592919 </v>
    <v>       0.74155809       0.58411066       0.76407083 </v>
   </varray>
  </structure>
  <varray name="forces" >
   <v>       0.03352627      -0.00103081       0.03066109 </v>
   <v>      -0.03352627       0.00103081      -0.03066109 </v>
   <v>      -0.03352627       0.00103081       0.03066109 </v>
   <v>       0.03352627      -0.00103081      -0.03066109 </v>
   <v>      -0.03352627      -0.00103081      -0.03066109 </v>
   <v>       0.03352627       0.00103081       0.03066109 </v>
   <v>       0.03352627       0.00103081      -0.03066109 </v>
   <v>      -0.03352627      -0.00103081       0.03066109 </v>
   <v>      -0.03897065      -0.00391425      -0.05007957 </v>
   <v>       0.03897065       0.00391425       0.05007957 </v>
   <v>       0.03897065       0.00391425      -0.05007957 </v>
   <v>      -0.03897065      -0.00391425       0.05007957 </v>
   <v>       0.03897065      -0.00391425       0.05007957 </v>
   <v>      -0.03897065       0.00391425      -0.05007957 </v>
   <v>      -0.03897065       0.00391425       0.05007957 </v>
   <v>       0.03897065      -0.00391425      -0.05007957 </v>
   <v>       0.05300528      -0.02914597       0.05520560 </v>
   <v>      -0.05300528       0.02914597      -0.05520560 </v>
   <v>      -0.05300528       0.02914597       0.05520560 </v>
   <v>       0.05300528      -0.02914597      -0.05520560 </v>
   <v>      -0.05300528      -0.02914597      -0.05520560 </v>
   <v>       0.05300528       0.02914597       0.05520560 </v>
   <v>       0.05300528       0.02914597      -0.05520560 </v>
   <v>      -0.05300528      -0.02914597       0.05520560 </v>
   <v>       0.00512355      -0.00355562       0.09649189 </v>
   <v>      -0.00512355       0.00355562      -0.09649189 </v>
   <v>      -0.00512355       0.00355562       0.09649189 </v>
   <v>       0.00512355      -0.00355562      -0.09649189 </v>
   <v>      -0.00512355      -0.00355562      -0.09649189 </v>
   <v>       0.00512355       0.00355562       0.09649189 </v>
   <v>       0.00512355       0.00355562      -0.09649189 </v>
   <v>      -0.00512355      -0.00355562       0.09649189 </v>
   <v>       0.01045946       0.04941881      -0.04112622 </v>
   <v>      -0.01045946      -0.04941881       0.04112622 </v>
   <v>      -0.01045946      -0.04941881      -0.04112622 </v>
   <v>       0.01045946       0.04941881       0.04112622 </v>
   <v>      -0.01045946       0.04941881       0.04112622 </v>
   <v>       0.01045946      -0.04941881      -0.04112622 </v>
   <v>       0.01045946      -0.04941881       0.04112622 </v>
   <v>      -0.01045946       0.04941881      -0.04112622 </v>
   <v>      -0.00649114      -0.00886576      -0.06313014 </v>
   <v>       0.00649114       0.00886576       0.06313014 </v>
   <v>       0.00649114       0.00886576      -0.06313014 </v>
   <v>      -0.00649114      -0.00886576       0.06313014 </v>
   <v>       0.00649114      -0.00886576       0.06313014 </v>
   <v>      -0.00649114       0.00886576      -0.06313014 </v>
   <v>      -0.00649114       0.00886576       0.06313014 </v>
   <v>       0.00649114      -0.00886576      -0.06313014 </v>
  </varray>
  <varray name="stress" >
   <v>      -2.88971640       0.00000000       0.00000000 </v>
   <v>       0.00000000       2.41032054       0.00000000 </v>
   <v>      -0.00000000       0.00000000      -1.03930043 </v>
  </varray>
  <energy>
   <i name="e_fr_energy">   -307.63152834 </i>
   <i name="e_wo_entrp">   -307.63152834 </i>
   <i name="e_0_energy">      0.00000000 </i>
  </energy>
  <time name="totalsc"> 4652.40 4654.81</time>
 </calculation>
 <calculation>
  <scstep>
   <time name="dav">  409.84  410.05</time>
   <time name="total">  425.80  426.02</time>
   <energy>
    <i name="alphaZ">    145.13652845 </i>
    <i name="ewald">  -1828.34752501 </i>
    <i name="hartreedc">  -1942.03423095 </i>
    <i name="XCdc">    409.07561085 </i>
    <i name="pawpsdc">   1783.45796796 </i>
    <i name="pawaedc">  -1815.05575142 </i>
    <i name="eentropy">      0.00000000 </i>
    <i name="bandstr">   -887.75176228 </i>
    <i name="atom">   3831.42245470 </i>
    <i name="e_fr_energy">   -304.09670769 </i>
    <i name="e_wo_entrp">   -304.09670769 </i>
    <i name="e_0_energy">   -304.09670769 </i>
   </energy>
  </scstep>
  <scstep>
   <time name="dav">  476.65  476.89</time>
   <time name="total">  492.65  492.91</time>
   <energy>
    <i name="e_fr_energy">   -304.09681030 </i>
    <i name="e_wo_entrp">   -304.09681030 </i>
    <i name="e_0_energy">   -304.09681030 </i>
   </energy>
  </scstep>
  <scstep>
