benzene                                 
           1
     7.305636    0.000000    0.000000
     0.000000    9.308105    0.000000
     0.000000    0.000000    6.655032
   C    H 
  24  24
Direct configuration=     1
   0.94599998  0.13760001  0.99980003
   0.05400000  0.86239999  0.00020000
   0.55400002  0.86239999  0.49980000
   0.44600001  0.13760001  0.50019997
   0.05400000  0.63760001  0.50019997
   0.94599998  0.36239999  0.49980000
   0.44600001  0.36239999  0.00020000
   0.55400002  0.63760001  0.99980003
   0.07680000  0.09030000  0.13240001
   0.92320001  0.90969998  0.86759996
   0.42320001  0.90969998  0.63240004
   0.57679999  0.09030000  0.36759999
   0.92320001  0.59030002  0.36759999
   0.07680000  0.40970001  0.63240004
   0.57679999  0.40970001  0.86759996
   0.42320001  0.59030002  0.13240001
   0.87000001  0.04540000  0.87180000
   0.12999999  0.95459998  0.12820000
   0.62999999  0.95459998  0.37180000
   0.37000001  0.04540000  0.62820000
   0.12999999  0.54540002  0.62820000
   0.87000001  0.45460001  0.37180000
   0.37000001  0.45460001  0.12820000
   0.62999999  0.54540002  0.87180000
   0.91119999  0.23160000  0.99910003
   0.08880000  0.76840001  0.00090000
   0.58880001  0.76840001  0.49910000
   0.41119999  0.23160000  0.50089997
   0.08880000  0.73159999  0.50089997
   0.91119999  0.26840001  0.49910000
   0.41119999  0.26840001  0.00090000
   0.58880001  0.73159999  0.99910003
   0.12650000  0.15199999  0.22240000
   0.87349999  0.84799999  0.77759999
   0.37349999  0.84799999  0.72240001
   0.62650001  0.15199999  0.27759999
   0.87349999  0.65200001  0.27759999
   0.12650000  0.34799999  0.72240001
   0.62650001  0.34799999  0.77759999
   0.37349999  0.65200001  0.22240000
   0.78079999  0.07640000  0.78670001
   0.21920000  0.92360002  0.21330001
   0.71920001  0.92360002  0.28670001
   0.28079999  0.07640000  0.71329999
   0.21920000  0.57639998  0.71329999
   0.78079999  0.42360002  0.28670001
   0.28079999  0.42360002  0.21330001
   0.71920001  0.57639998  0.78670001
Direct configuration=     2
   0.96737142  0.10241451  0.01098693
   0.03262856  0.89758549 -0.01098691
   0.53262858  0.89758549  0.51098690
   0.46737145  0.10241451  0.48901307
   0.03262856  0.60241451  0.48901307
   0.96737142  0.39758549  0.51098690
   0.46737145  0.39758549 -0.01098691
   0.53262858  0.60241451  0.01098693
   0.04827528  0.07452922  0.08907979
   0.95172474  0.92547075  0.91092018
   0.45172474  0.92547075  0.58907982
   0.54827526  0.07452922  0.41092021
   0.95172474  0.57452925  0.41092021
   0.04827528  0.42547078  0.58907982
   0.54827526  0.42547078  0.91092018
   0.45172474  0.57452925  0.08907979
   0.90029189  0.03751518  0.90073396
   0.09970811  0.96248479  0.09926604
   0.59970811  0.96248479  0.40073396
   0.40029189  0.03751518  0.59926604
   0.09970811  0.53751521  0.59926604
   0.90029189  0.46248482  0.40073396
   0.40029189  0.46248482  0.09926604
   0.59970811  0.53751521  0.90073396
   0.89224311  0.28276205  0.99978904
   0.10775687  0.71723797  0.00021099
   0.60775689  0.71723797  0.49978901
   0.39224311  0.28276205  0.50021096
   0.10775687  0.78276203  0.50021096
   0.89224311  0.21723797  0.49978901
   0.39224311  0.21723797  0.00021099
   0.60775689  0.78276203  0.99978904
   0.15508295  0.18770682  0.27336168
   0.84491703  0.81229317  0.72663831
   0.34491703  0.81229317  0.77336169
   0.65508297  0.18770682  0.22663831
   0.84491703  0.68770683  0.22663831
   0.15508295  0.31229317  0.77336169
   0.65508297  0.31229317  0.72663831
   0.34491703  0.68770683  0.27336168
   0.73204599  0.09332652  0.73925076
   0.26795399  0.90667350  0.26074926
   0.76795401  0.90667350  0.23925076
   0.23204599  0.09332652  0.76074924
   0.26795399  0.59332650  0.76074924
   0.73204599  0.40667350  0.23925076
   0.23204599  0.40667350  0.26074926
   0.76795401  0.59332650  0.73925076
Direct configuration=     3
   0.95052883  0.13014379  0.00217066
   0.04947115  0.86985621 -0.00217063
   0.54947117  0.86985621  0.50217063
   0.45052886  0.13014379  0.49782934
   0.04947115  0.63014379  0.49782934
   0.95052883  0.36985621  0.50217063
   0.45052886  0.36985621 -0.00217063
   0.54947117  0.63014379  0.00217066
   0.07075528  0.08695799  0.12321995
   0.92924473  0.91304199  0.87678002
   0.42924473  0.91304199  0.62321998
   0.57075527  0.08695799  0.37678005
   0.92924473  0.58695801  0.37678005
   0.07075528  0.41304202  0.62321998
   0.57075527  0.41304202  0.87678002
   0.42924473  0.58695801  0.12321995
   0.87641921  0.04372912  0.87793144
   0.12358079  0.95627086  0.12206856
   0.62358079  0.95627086  0.37793144
   0.37641921  0.04372912  0.62206856
   0.12358079  0.54372914  0.62206856
   0.87641921  0.45627089  0.37793144
   0.37641921  0.45627089  0.12206856
   0.62358079  0.54372914  0.87793144
   0.90718281  0.24244183  0.99924604
   0.09281718  0.75755818  0.00075399
   0.59281719  0.75755818  0.49924601
   0.40718281  0.24244183  0.50075396
   0.09281718  0.74244182  0.50075396
   0.90718281  0.25755818  0.49924601
   0.40718281  0.25755818  0.00075399
   0.59281719  0.74244182  0.99924604
   0.13255705  0.15956668  0.23319936
   0.86744293  0.84043330  0.76680062
   0.36744293  0.84043330  0.73319938
   0.63255707  0.15956668  0.26680062
   0.86744293  0.65956670  0.26680062
   0.13255705  0.34043330  0.73319938
   0.63255707  0.34043330  0.76680062
   0.36744293  0.65956670  0.23319936
   0.77046845  0.07998692  0.77664497
   0.22953153  0.92001309  0.22335505
   0.72953155  0.92001309  0.27664497
   0.27046845  0.07998692  0.72335503
   0.22953153  0.57998691  0.72335503
   0.77046845  0.42001309  0.27664497
   0.27046845  0.42001309  0.22335505
   0.72953155  0.57998691  0.77664497
Direct configuration=     4
   0.94929059  0.13218242  0.00152250
   0.05070940  0.86781758 -0.00152247
   0.55070941  0.86781758  0.50152247
   0.44929062  0.13218242  0.49847750
   0.05070940  0.63218242  0.49847750
   0.94929059  0.36781758  0.50152247
   0.44929062  0.36781758 -0.00152247
   0.55070941  0.63218242  0.00152250
   0.07240799  0.08787174  0.12572990
   0.92759202  0.91212824  0.87427007
   0.42759202  0.91212824  0.62572993
   0.57240798  0.08787174  0.37427010
   0.92759202  0.58787176  0.37427010
   0.07240799  0.41212827  0.62572993
   0.57240798  0.41212827  0.87427007
   0.42759202  0.58787176  0.12572990
   0.87466411  0.04418596  0.87625503
   0.12533589  0.95581402  0.12374497
   0.62533589  0.95581402  0.37625503
   0.37466411  0.04418596  0.62374497
   0.12533589  0.54418598  0.62374497
   0.87466411  0.45581405  0.37625503
   0.37466411  0.45581405  0.12374497
   0.62533589  0.54418598  0.87625503
   0.90828116  0.23947753  0.99920612
   0.09171883  0.76052248  0.00079391
   0.59171884  0.76052248  0.49920609
   0.40828116  0.23947753  0.50079388
   0.09171883  0.73947752  0.50079388
   0.90828116  0.26052248  0.49920609
   0.40828116  0.26052248  0.00079391
   0.59171884  0.73947752  0.99920612
   0.13090097  0.15749785  0.23024667
   0.86909901  0.84250213  0.76975331
   0.36909901  0.84250213  0.73024669
   0.63090099  0.15749785  0.26975331
   0.86909901  0.65749787  0.26975331
   0.13090097  0.34250213  0.73024669
   0.63090099  0.34250213  0.76975331
   0.36909901  0.65749787  0.23024667
   0.77329323  0.07900621  0.77939415
   0.22670676  0.92099381  0.22060587
   0.72670677  0.92099381  0.27939415
   0.27329323  0.07900621  0.72060585
   0.22670676  0.57900619  0.72060585
   0.77329323  0.42099381  0.27939415
   0.27329323  0.42099381  0.22060587
   0.72670677  0.57900619  0.77939415
Direct configuration=     5
   0.94893485  0.13276809  0.00133629
   0.05106513  0.86723191 -0.00133626
   0.55106515  0.86723191  0.50133626
   0.44893488  0.13276809  0.49866371
   0.05106513  0.63276809  0.49866371
   0.94893485  0.36723191  0.50133626
   0.44893488  0.36723191 -0.00133626
   0.55106515  0.63276809  0.00133629
   0.07288280  0.08813425  0.12645098
   0.92711722  0.91186573  0.87354899
   0.42711722  0.91186573  0.62645101
   0.57288278  0.08813425  0.37354902
   0.92711722  0.58813427  0.37354902
   0.07288280  0.41186576  0.62645101
   0.57288278  0.41186576  0.87354899
   0.42711722  0.58813427  0.12645098
   0.87415989  0.04431720  0.87577341
   0.12584011  0.95568277  0.12422659
   0.62584011  0.95568277  0.37577341
   0.37415989  0.04431720  0.62422659
   0.12584011  0.54431723  0.62422659
   0.87415989  0.45568280  0.37577341
   0.37415989  0.45568280  0.12422659
   0.62584011  0.54431723  0.87577341
   0.90859670  0.23862592  0.99919465
   0.09140328  0.76137409  0.00080538
   0.59140330  0.76137409  0.49919462
   0.40859670  0.23862592  0.50080535
   0.09140328  0.73862591  0.50080535
   0.90859670  0.26137409  0.49919462
   0.40859670  0.26137409  0.00080538
   0.59140330  0.73862591  0.99919465
   0.13042520  0.15690350  0.22939840
   0.86957478  0.84309649  0.77060159
   0.36957478  0.84309649  0.72939841
   0.63042522  0.15690350  0.27060159
   0.86957478  0.65690351  0.27060159
   0.13042520  0.34309649  0.72939841
   0.63042522  0.34309649  0.77060159
   0.36957478  0.65690351  0.22939840
   0.77410476  0.07872446  0.78018396
   0.22589523  0.92127555  0.21981606
   0.72589524  0.92127555  0.28018396
   0.27410476  0.07872446  0.71981604
   0.22589523  0.57872445  0.71981604
   0.77410476  0.42127555  0.28018396
   0.27410476  0.42127555  0.21981606
   0.72589524  0.57872445  0.78018396
Direct configuration=     6
   0.94560544  0.14586005  0.00429305
   0.05439454  0.85413995 -0.00429302
   0.55439456  0.85413995  0.50429302
   0.44560547  0.14586005  0.49570695
   0.05439454  0.64586005  0.49570695
   0.94560544  0.35413995  0.50429302
   0.44560547  0.35413995 -0.00429302
   0.55439456  0.64586005  0.00429305
   0.07813575  0.09905491  0.13669479
   0.92186426  0.90094507  0.86330518
   0.42186426  0.90094507  0.63669482
   0.57813574  0.09905491  0.36330521
   0.92186426  0.59905493  0.36330521
   0.07813575  0.40094510  0.63669482
   0.57813574  0.40094510  0.86330518
   0.42186426  0.59905493  0.13669479
   0.86391215  0.04891128  0.86528524
   0.13608785  0.95108870  0.13471476
   0.63608785  0.95108870  0.36528524
   0.36391215  0.04891128  0.63471476
   0.13608785  0.54891130  0.63471476
   0.86391215  0.45108873  0.36528524
   0.36391215  0.45108873  0.13471476
   0.63608785  0.54891130  0.86528524
   0.90254204  0.25534516  0.00017331
   0.09745795  0.74465485 -0.00017328
   0.59745796  0.74465485  0.50017328
   0.40254204  0.25534516  0.49982669
   0.09745795  0.75534515  0.49982669
   0.90254204  0.24465485  0.50017328
   0.40254204  0.24465485 -0.00017328
   0.59745796  0.75534515  0.00017331
   0.13947893  0.16861407  0.24525553
   0.86052106  0.83138592  0.75474445
   0.36052106  0.83138592  0.74525555
   0.63947894  0.16861407  0.25474445
   0.86052106  0.66861408  0.25474445
   0.13947893  0.33138592  0.74525555
   0.63947894  0.33138592  0.75474445
   0.36052106  0.66861408  0.24525553
   0.75713639  0.08462012  0.76323521
   0.24286360  0.91537989  0.23676480
   0.74286361  0.91537989  0.26323521
   0.25713639  0.08462012  0.73676479
   0.24286360  0.58462011  0.73676479
   0.75713639  0.41537989  0.26323521
   0.25713639  0.41537989  0.23676480
   0.74286361  0.58462011  0.76323521
Direct configuration=     7
   0.94601712  0.14424122  0.00392744
   0.05398286  0.85575878 -0.00392742
   0.55398288  0.85575878  0.50392741
   0.44601715  0.14424122  0.49607256
   0.05398286  0.64424122  0.49607256
   0.94601712  0.35575878  0.50392741
   0.44601715  0.35575878 -0.00392742
   0.55398288  0.64424122  0.00392744
   0.07748622  0.09770456  0.13542813
   0.92251379  0.90229542  0.86457184
   0.42251379  0.90229542  0.63542816
   0.57748621  0.09770456  0.36457187
   0.92251379  0.59770458  0.36457187
   0.07748622  0.40229545  0.63542816
   0.57748621  0.40229545  0.86457184
   0.42251379  0.59770458  0.13542813
   0.86517929  0.04834322  0.86658211
   0.13482071  0.95165676  0.13341789
   0.63482071  0.95165676  0.36658211
   0.36517929  0.04834322  0.63341789
   0.13482071  0.54834324  0.63341789
   0.86517929  0.45165679  0.36658211
   0.36517929  0.45165679  0.13341789
   0.63482071  0.54834324  0.86658211
   0.90329070  0.25327781  0.00005229
   0.09670928  0.74672220 -0.00005227
   0.59670930  0.74672220  0.50005227
   0.40329070  0.25327781  0.49994771
   0.09670928  0.75327780  0.49994771
   0.90329070  0.24672220  0.50005227
   0.40329070  0.24672220 -0.00005227
   0.59670930  0.75327780  0.00005229
   0.13835943  0.16716605  0.24329478
   0.86164056  0.83283394  0.75670520
   0.36164056  0.83283394  0.74329480
   0.63835944  0.16716605  0.25670520
   0.86164056  0.66716606  0.25670520
   0.13835943  0.33283394  0.74329480
   0.63835944  0.33283394  0.75670520
   0.36164056  0.66716606  0.24329478
   0.75923454  0.08389112  0.76533094
   0.24076544  0.91610889  0.23466907
   0.74076546  0.91610889  0.26533094
   0.25923454  0.08389112  0.73466906
   0.24076544  0.58389111  0.73466906
   0.75923454  0.41610889  0.26533094
   0.25923454  0.41610889  0.23466907
   0.74076546  0.58389111  0.76533094
Direct configuration=     8
   0.94120684  0.14376015 -0.00179321
   0.05879315  0.85623985  0.00179324
   0.55879316  0.85623985  0.49820676
   0.44120687  0.14376015  0.50179321
   0.05879315  0.64376015  0.50179321
   0.94120684  0.35623985  0.49820676
   0.44120687  0.35623985  0.00179324
   0.55879316  0.64376015 -0.00179321
   0.08286218  0.09197204  0.13874711
   0.91713784  0.90802793  0.86125286
   0.41713784  0.90802793  0.63874714
   0.58286216  0.09197204  0.36125289
   0.91713784  0.59197207  0.36125289
   0.08286218  0.40802796  0.63874714
   0.58286216  0.40802796  0.86125286
   0.41713784  0.59197207  0.13874711
   0.86731109  0.04582060  0.86781087
   0.13268891  0.95417938  0.13218913
   0.63268891  0.95417938  0.36781087
   0.36731109  0.04582060  0.63218913
   0.13268891  0.54582062  0.63218913
   0.86731109  0.45417941  0.36781087
   0.36731109  0.45417941  0.13218913
   0.63268891  0.54582062  0.86781087
   0.90061754  0.26099341  0.00108366
   0.09938245  0.73900660 -0.00108364
   0.59938246  0.73900660  0.50108364
   0.40061754  0.26099341  0.49891634
   0.09938245  0.76099340  0.49891634
   0.90061754  0.23900660  0.50108364
   0.40061754  0.23900660 -0.00108364
   0.59938246  0.76099340  0.00108366
   0.14212215  0.17243527  0.24974669
   0.85787783  0.82756472  0.75025330
   0.35787783  0.82756472  0.74974670
   0.64212217  0.17243527  0.25025330
   0.85787783  0.67243528  0.25025330
   0.14212215  0.32756472  0.74974670
   0.64212217  0.32756472  0.75025330
   0.35787783  0.67243528  0.24974669
   0.75440298  0.08556052  0.76016990
   0.24559700  0.91443949  0.23983012
   0.74559702  0.91443949  0.26016990
   0.25440298  0.08556052  0.73983010
   0.24559700  0.58556051  0.73983010
   0.75440298  0.41443949  0.26016990
   0.25440298  0.41443949  0.23983012
   0.74559702  0.58556051  0.76016990
Direct configuration=     9
   0.94463729  0.14410322  0.00228647
   0.05536269  0.85589678 -0.00228645
   0.55536271  0.85589678  0.50228644
   0.44463732  0.14410322  0.49771353
   0.05536269  0.64410322  0.49771353
   0.94463729  0.35589678  0.50228644
   0.44463732  0.35589678 -0.00228645
   0.55536271  0.64410322  0.00228647
   0.07902831  0.09606019  0.13638018
   0.92097170  0.90393979  0.86361979
   0.42097170  0.90393979  0.63638021
   0.57902830  0.09606019  0.36361982
   0.92097170  0.59606021  0.36361982
   0.07902831  0.40393982  0.63638021
   0.57902830  0.40393982  0.86361979
   0.42097170  0.59606021  0.13638018
   0.86579080  0.04761960  0.86693458
   0.13420920  0.95238037  0.13306542
   0.63420920  0.95238037  0.36693458
   0.36579080  0.04761960  0.63306542
   0.13420920  0.54761963  0.63306542
   0.86579080  0.45238040  0.36693458
   0.36579080  0.45238040  0.13306542
   0.63420920  0.54761963  0.86693458
   0.90252390  0.25549103  0.00034814
   0.09747608  0.74450898 -0.00034811
   0.59747610  0.74450898  0.50034811
   0.40252390  0.25549103  0.49965186
   0.09747608  0.75549102  0.49965186
   0.90252390  0.24450898  0.50034811
   0.40252390  0.24450898 -0.00034811
   0.59747610  0.75549102  0.00034814
   0.13943877  0.16867752  0.24514551
   0.86056122  0.83132246  0.75485447
   0.36056122  0.83132246  0.74514553
   0.63943878  0.16867752  0.25485447
   0.86056122  0.66867754  0.25485447
   0.13943877  0.33132246  0.74514553
   0.63943878  0.33132246  0.75485447
   0.36056122  0.66867754  0.24514551
   0.75784861  0.08436999  0.76385049
   0.24215138  0.91563003  0.23614952
   0.74215139  0.91563003  0.26385049
   0.25784861  0.08436999  0.73614951
   0.24215138  0.58436997  0.73614951
   0.75784861  0.41563003  0.26385049
   0.25784861  0.41563003  0.23614952
   0.74215139  0.58436997  0.76385049
Direct configuration=    10
   0.94526406  0.14288554  0.00231457
   0.05473592  0.85711446 -0.00231454
   0.55473594  0.85711446  0.50231454
   0.44526409  0.14288554  0.49768543
   0.05473592  0.64288554  0.49768543
   0.94526406  0.35711446  0.50231454
   0.44526409  0.35711446 -0.00231454
   0.55473594  0.64288554  0.00231457
   0.07862622  0.09544011  0.13567714
   0.92137379  0.90455986  0.86432283
   0.42137379  0.90455986  0.63567717
   0.57862621  0.09544011  0.36432286
   0.92137379  0.59544014  0.36432286
   0.07862622  0.40455989  0.63567717
   0.57862621  0.40455989  0.86432283
   0.42137379  0.59544014  0.13567714
   0.86457111  0.04785430  0.86585043
   0.13542889  0.95214568  0.13414957
   0.63542889  0.95214568  0.36585043
   0.36457111  0.04785430  0.63414957
   0.13542889  0.54785432  0.63414957
   0.86457111  0.45214571  0.36585043
   0.36457111  0.45214571  0.13414957
   0.63542889  0.54785432  0.86585043
   0.90201561  0.25684318  0.00090493
   0.09798438  0.74315684 -0.00090491
   0.59798439  0.74315684  0.50090491
   0.40201561  0.25684318  0.49909507
   0.09798438  0.75684316  0.49909507
   0.90201561  0.24315684  0.50090491
   0.40201561  0.24315684 -0.00090491
   0.59798439  0.75684316  0.00090493
   0.13996360  0.16941670  0.24570589
   0.86003639  0.83058328  0.75429410
   0.36003639  0.83058328  0.74570590
   0.63996361  0.16941670  0.25429410
   0.86003639  0.66941672  0.25429410
   0.13996360  0.33058328  0.74570590
   0.63996361  0.33058328  0.75429410
   0.36003639  0.66941672  0.24570589
   0.75872510  0.08400831  0.76431105
   0.24127489  0.91599170  0.23568896
   0.74127490  0.91599170  0.26431105
   0.25872510  0.08400831  0.73568895
   0.24127489  0.58400830  0.73568895
   0.75872510  0.41599170  0.26431105
   0.25872510  0.41599170  0.23568896
   0.74127490  0.58400830  0.76431105
Direct configuration=    11
   0.94486773  0.14365554  0.00229680
   0.05513225  0.85634446 -0.00229678
   0.55513227  0.85634446  0.50229677
   0.44486776  0.14365554  0.49770320
   0.05513225  0.64365554  0.49770320
   0.94486773  0.35634446  0.50229677
   0.44486776  0.35634446 -0.00229678
   0.55513227  0.64365554  0.00229680
   0.07888048  0.09583221  0.13612170
   0.92111953  0.90416776  0.86387827
   0.42111953  0.90416776  0.63612173
   0.57888047  0.09583221  0.36387830
   0.92111953  0.59583224  0.36387830
   0.07888048  0.40416779  0.63612173
   0.57888047  0.40416779  0.86387827
   0.42111953  0.59583224  0.13612170
   0.86534238  0.04770589  0.86653599
   0.13465762  0.95229409  0.13346401
   0.63465762  0.95229409  0.36653599
   0.36534238  0.04770589  0.63346401
   0.13465762  0.54770591  0.63346401
   0.86534238  0.45229412  0.36653599
   0.36534238  0.45229412  0.13346401
   0.63465762  0.54770591  0.86653599
   0.90233703  0.25598815  0.00055285
   0.09766296  0.74401186 -0.00055282
   0.59766297  0.74401186  0.50055282
   0.40233703  0.25598815  0.49944715
   0.09766296  0.75598814  0.49944715
   0.90233703  0.24401186  0.50055282
   0.40233703  0.24401186 -0.00055282
   0.59766297  0.75598814  0.00055285
   0.13963172  0.16894929  0.24535154
   0.86036826  0.83105070  0.75464845
   0.36036826  0.83105070  0.74535155
   0.63963174  0.16894929  0.25464845
   0.86036826  0.66894930  0.25464845
   0.13963172  0.33105070  0.74535155
   0.63963174  0.33105070  0.75464845
   0.36036826  0.66894930  0.24535154
   0.75817085  0.08423702  0.76401982
   0.24182913  0.91576300  0.23598019
   0.74182915  0.91576300  0.26401982
   0.25817085  0.08423702  0.73598018
   0.24182913  0.58423700  0.73598018
   0.75817085  0.41576300  0.26401982
   0.25817085  0.41576300  0.23598019
   0.74182915  0.58423700  0.76401982
Direct configuration=    12
   0.94472962  0.14374153  0.00206853
   0.05527036  0.85625847 -0.00206851
   0.55527038  0.85625847  0.50206850
   0.44472965  0.14374153  0.49793147
   0.05527036  0.64374153  0.49793147
   0.94472962  0.35625847  0.50206850
   0.44472965  0.35625847 -0.00206851
   0.55527038  0.64374153  0.00206853
   0.07911274  0.09579688  0.13641059
   0.92088728  0.90420310  0.86358938
   0.42088728  0.90420310  0.63641062
   0.57911272  0.09579688  0.36358941
   0.92088728  0.59579690  0.36358941
   0.07911274  0.40420313  0.63641062
   0.57911272  0.40420313  0.86358938
   0.42088728  0.59579690  0.13641059
   0.86503777  0.04778042  0.86635294
   0.13496223  0.95221956  0.13364706
   0.63496223  0.95221956  0.36635294
   0.36503777  0.04778042  0.63364706
   0.13496223  0.54778044  0.63364706
   0.86503777  0.45221959  0.36635294
   0.36503777  0.45221959  0.13364706
   0.63496223  0.54778044  0.86635294
   0.90234370  0.25605530  0.00107322
   0.09765629  0.74394471 -0.00107319
   0.59765630  0.74394471  0.50107319
   0.40234370  0.25605530  0.49892678
   0.09765629  0.75605529  0.49892678
   0.90234370  0.24394471  0.50107319
   0.40234370  0.24394471 -0.00107319
   0.59765630  0.75605529  0.00107322
   0.13962700  0.16908731  0.24504809
   0.86037298  0.83091268  0.75495189
   0.36037298  0.83091268  0.74504811
   0.63962702  0.16908731  0.25495189
   0.86037298  0.66908732  0.25495189
   0.13962700  0.33091268  0.74504811
   0.63962702  0.33091268  0.75495189
   0.36037298  0.66908732  0.24504809
   0.75857547  0.08404843  0.76409596
   0.24142452  0.91595158  0.23590406
   0.74142453  0.91595158  0.26409596
   0.25857547  0.08404843  0.73590404
   0.24142452  0.58404842  0.73590404
   0.75857547  0.41595158  0.26409596
   0.25857547  0.41595158  0.23590406
   0.74142453  0.58404842  0.76409596
Direct configuration=    13
   0.94477521  0.14371314  0.00214388
   0.05522478  0.85628686 -0.00214385
   0.55522479  0.85628686  0.50214385
   0.44477524  0.14371314  0.49785612
   0.05522478  0.64371314  0.49785612
   0.94477521  0.35628686  0.50214385
   0.44477524  0.35628686 -0.00214385
   0.55522479  0.64371314  0.00214388
   0.07903608  0.09580854  0.13631523
   0.92096394  0.90419144  0.86368474
   0.42096394  0.90419144  0.63631526
   0.57903606  0.09580854  0.36368477
   0.92096394  0.59580856  0.36368477
   0.07903608  0.40419147  0.63631526
   0.57903606  0.40419147  0.86368474
   0.42096394  0.59580856  0.13631523
   0.86513831  0.04775582  0.86641336
   0.13486169  0.95224416  0.13358664
   0.63486169  0.95224416  0.36641336
   0.36513831  0.04775582  0.63358664
   0.13486169  0.54775584  0.63358664
   0.86513831  0.45224419  0.36641336
   0.36513831  0.45224419  0.13358664
   0.63486169  0.54775584  0.86641336
   0.90234150  0.25603314  0.00090146
   0.09765849  0.74396688 -0.00090143
   0.59765850  0.74396688  0.50090143
   0.40234150  0.25603314  0.49909854
   0.09765849  0.75603312  0.49909854
   0.90234150  0.24396688  0.50090143
   0.40234150  0.24396688 -0.00090143
   0.59765850  0.75603312  0.00090146
   0.13962856  0.16904175  0.24514825
   0.86037142  0.83095823  0.75485173
   0.36037142  0.83095823  0.74514827
   0.63962858  0.16904175  0.25485173
   0.86037142  0.66904177  0.25485173
   0.13962856  0.33095823  0.74514827
   0.63962858  0.33095823  0.75485173
   0.36037142  0.66904177  0.24514825
   0.75844191  0.08411068  0.76407083
   0.24155807  0.91588934  0.23592919
   0.74155809  0.91588934  0.26407083
   0.25844191  0.08411068  0.73592917
   0.24155807  0.58411066  0.73592917
   0.75844191  0.41588934  0.26407083
   0.25844191  0.41588934  0.23592919
   0.74155809  0.58411066  0.76407083
