  16  16   0   0
  0.6331625E+01  0.5232590E-09  0.5232590E-09  0.5232590E-09  0.5000000E-15
  1.000000000000000E-004
  CAR 
 diamond                                 
     19.50577728    -13.82862782  301      8.29013890      1.00000000
    -13.829  0.0000E+00  0.0000E+00
    -13.718  0.0000E+00  0.0000E+00
    -13.606  0.0000E+00  0.0000E+00
    -13.495  0.0000E+00  0.0000E+00
    -13.384  0.0000E+00  0.0000E+00
    -13.273  0.0000E+00  0.0000E+00
    -13.162  0.0000E+00  0.0000E+00
    -13.051  0.0000E+00  0.0000E+00
    -12.940  0.0000E+00  0.0000E+00
    -12.829  0.0000E+00  0.0000E+00
    -12.717  0.0000E+00  0.0000E+00
    -12.606  0.0000E+00  0.0000E+00
    -12.495  0.0000E+00  0.0000E+00
    -12.384  0.0000E+00  0.0000E+00
    -12.273  0.0000E+00  0.0000E+00
    -12.162  0.0000E+00  0.0000E+00
    -12.051  0.0000E+00  0.0000E+00
    -11.940  0.0000E+00  0.0000E+00
    -11.829  0.3783E-07  0.8109E-12
    -11.717  0.1131E+00  0.4191E-02
    -11.606  0.3852E+00  0.3233E-01
    -11.495  0.5253E+00  0.8337E-01
    -11.384  0.5960E+00  0.1454E+00
    -11.273  0.6942E+00  0.2171E+00
    -11.162  0.7799E+00  0.2991E+00
    -11.051  0.8364E+00  0.3890E+00
    -10.940  0.9097E+00  0.4858E+00
    -10.829  0.9993E+00  0.5917E+00
    -10.717  0.1123E+01  0.7092E+00
    -10.606  0.1305E+01  0.8433E+00
    -10.495  0.1530E+01  0.1001E+01
    -10.384  0.1802E+01  0.1184E+01
    -10.273  0.1593E+01  0.1380E+01
    -10.162  0.1378E+01  0.1541E+01
    -10.051  0.1303E+01  0.1690E+01
     -9.940  0.1154E+01  0.1828E+01
     -9.828  0.9703E+00  0.1946E+01
     -9.717  0.9454E+00  0.2048E+01
     -9.606  0.1152E+01  0.2161E+01
     -9.495  0.1411E+01  0.2303E+01
     -9.384  0.2008E+01  0.2489E+01
     -9.273  0.2165E+01  0.2731E+01
     -9.162  0.1801E+01  0.2952E+01
     -9.051  0.1591E+01  0.3139E+01
     -8.940  0.1678E+01  0.3317E+01
     -8.828  0.1738E+01  0.3503E+01
     -8.717  0.1895E+01  0.3706E+01
     -8.606  0.1916E+01  0.3918E+01
     -8.495  0.2010E+01  0.4135E+01
     -8.384  0.2102E+01  0.4364E+01
     -8.273  0.2107E+01  0.4598E+01
     -8.162  0.2146E+01  0.4834E+01
     -8.051  0.2235E+01  0.5077E+01
     -7.940  0.2184E+01  0.5325E+01
     -7.828  0.2175E+01  0.5567E+01
     -7.717  0.2154E+01  0.5808E+01
     -7.606  0.2421E+01  0.6056E+01
     -7.495  0.2611E+01  0.6350E+01
     -7.384  0.2595E+01  0.6637E+01
     -7.273  0.2699E+01  0.6926E+01
     -7.162  0.2830E+01  0.7236E+01
     -7.051  0.3041E+01  0.7558E+01
     -6.940  0.3406E+01  0.7917E+01
     -6.828  0.3837E+01  0.8318E+01
     -6.717  0.4404E+01  0.8775E+01
     -6.606  0.4571E+01  0.9315E+01
     -6.495  0.3013E+01  0.9729E+01
     -6.384  0.2017E+01  0.1000E+02
     -6.273  0.1780E+01  0.1021E+02
     -6.162  0.2134E+01  0.1041E+02
     -6.051  0.2332E+01  0.1066E+02
     -5.939  0.2773E+01  0.1094E+02
     -5.828  0.3079E+01  0.1127E+02
     -5.717  0.3149E+01  0.1162E+02
     -5.606  0.2755E+01  0.1195E+02
     -5.495  0.2641E+01  0.1225E+02
     -5.384  0.2493E+01  0.1253E+02
     -5.273  0.2338E+01  0.1281E+02
     -5.162  0.2301E+01  0.1306E+02
     -5.051  0.2388E+01  0.1332E+02
     -4.939  0.2731E+01  0.1360E+02
     -4.828  0.2852E+01  0.1391E+02
     -4.717  0.2951E+01  0.1424E+02
     -4.606  0.2815E+01  0.1456E+02
     -4.495  0.2686E+01  0.1487E+02
     -4.384  0.2329E+01  0.1515E+02
     -4.273  0.1989E+01  0.1539E+02
     -4.162  0.1745E+01  0.1559E+02
     -4.051  0.1323E+01  0.1577E+02
     -3.939  0.6471E+00  0.1587E+02
     -3.828  0.4298E+00  0.1593E+02
     -3.717  0.6368E+00  0.1598E+02
     -3.606  0.1041E+01  0.1608E+02
     -3.495  0.1281E+01  0.1621E+02
     -3.384  0.1558E+01  0.1636E+02
     -3.273  0.1810E+01  0.1655E+02
     -3.162  0.2128E+01  0.1677E+02
     -3.051  0.2651E+01  0.1703E+02
     -2.939  0.3385E+01  0.1736E+02
     -2.828  0.4648E+01  0.1781E+02
     -2.717  0.5307E+01  0.1837E+02
     -2.606  0.5739E+01  0.1898E+02
     -2.495  0.6241E+01  0.1965E+02
     -2.384  0.6053E+01  0.2035E+02
     -2.273  0.5149E+01  0.2097E+02
     -2.162  0.4156E+01  0.2149E+02
     -2.050  0.3317E+01  0.2190E+02
     -1.939  0.2781E+01  0.2224E+02
     -1.828  0.2552E+01  0.2253E+02
     -1.717  0.2351E+01  0.2281E+02
     -1.606  0.2316E+01  0.2306E+02
     -1.495  0.2630E+01  0.2333E+02
     -1.384  0.3127E+01  0.2365E+02
     -1.273  0.3392E+01  0.2402E+02
     -1.162  0.3423E+01  0.2440E+02
     -1.050  0.3290E+01  0.2477E+02
     -0.939  0.2998E+01  0.2512E+02
     -0.828  0.2742E+01  0.2544E+02
     -0.717  0.2556E+01  0.2574E+02
     -0.606  0.2424E+01  0.2601E+02
     -0.495  0.2410E+01  0.2628E+02
     -0.384  0.2477E+01  0.2655E+02
     -0.273  0.2564E+01  0.2683E+02
     -0.162  0.2595E+01  0.2712E+02
     -0.050  0.2555E+01  0.2740E+02
      0.061  0.2495E+01  0.2768E+02
      0.172  0.2893E+01  0.2798E+02
      0.283  0.3742E+01  0.2835E+02
      0.394  0.3729E+01  0.2878E+02
      0.505  0.3673E+01  0.2917E+02
      0.616  0.4253E+01  0.2962E+02
      0.727  0.4302E+01  0.3009E+02
      0.839  0.5016E+01  0.3067E+02
      0.950  0.4034E+01  0.3119E+02
      1.061  0.3116E+01  0.3157E+02
      1.172  0.4431E+01  0.3199E+02
      1.283  0.4973E+01  0.3251E+02
      1.394  0.4801E+01  0.3306E+02
      1.505  0.4577E+01  0.3358E+02
      1.616  0.4677E+01  0.3409E+02
      1.727  0.4925E+01  0.3462E+02
      1.839  0.5374E+01  0.3519E+02
      1.950  0.5366E+01  0.3583E+02
      2.061  0.5117E+01  0.3640E+02
      2.172  0.5784E+01  0.3701E+02
      2.283  0.6070E+01  0.3766E+02
      2.394  0.6792E+01  0.3838E+02
      2.505  0.6848E+01  0.3915E+02
      2.616  0.6859E+01  0.3991E+02
      2.727  0.8091E+01  0.4073E+02
      2.839  0.6851E+01  0.4156E+02
      2.950  0.6744E+01  0.4231E+02
      3.061  0.6123E+01  0.4304E+02
      3.172  0.6229E+01  0.4367E+02
      3.283  0.4847E+01  0.4431E+02
      3.394  0.4550E+01  0.4483E+02
      3.505  0.5305E+01  0.4538E+02
      3.616  0.5654E+01  0.4599E+02
      3.727  0.5951E+01  0.4663E+02
      3.839  0.7139E+01  0.4735E+02
      3.950  0.7003E+01  0.4816E+02
      4.061  0.7478E+01  0.4896E+02
      4.172  0.7473E+01  0.4980E+02
      4.283  0.7600E+01  0.5063E+02
      4.394  0.7052E+01  0.5146E+02
      4.505  0.6595E+01  0.5222E+02
      4.616  0.5717E+01  0.5290E+02
      4.728  0.5091E+01  0.5350E+02
      4.839  0.5571E+01  0.5408E+02
      4.950  0.6225E+01  0.5474E+02
      5.061  0.6055E+01  0.5542E+02
      5.172  0.5831E+01  0.5608E+02
      5.283  0.5885E+01  0.5675E+02
      5.394  0.5475E+01  0.5739E+02
      5.505  0.4376E+01  0.5793E+02
      5.616  0.4001E+01  0.5839E+02
      5.728  0.4727E+01  0.5886E+02
      5.839  0.5144E+01  0.5943E+02
      5.950  0.3728E+01  0.5990E+02
      6.061  0.3510E+01  0.6030E+02
      6.172  0.3384E+01  0.6068E+02
      6.283  0.3244E+01  0.6106E+02
      6.394  0.2989E+01  0.6140E+02
      6.505  0.2758E+01  0.6172E+02
      6.616  0.2549E+01  0.6201E+02
      6.728  0.2466E+01  0.6229E+02
      6.839  0.2387E+01  0.6257E+02
      6.950  0.2120E+01  0.6282E+02
      7.061  0.1839E+01  0.6304E+02
      7.172  0.1579E+01  0.6323E+02
      7.283  0.1348E+01  0.6339E+02
      7.394  0.1199E+01  0.6353E+02
      7.505  0.1035E+01  0.6365E+02
      7.617  0.9001E+00  0.6376E+02
      7.728  0.7624E+00  0.6385E+02
      7.839  0.5303E+00  0.6393E+02
      7.950  0.2795E+00  0.6397E+02
      8.061  0.1059E+00  0.6399E+02
      8.172  0.1458E-01  0.6400E+02
      8.283  0.0000E+00  0.6400E+02
      8.394  0.0000E+00  0.6400E+02
      8.505  0.0000E+00  0.6400E+02
      8.617  0.0000E+00  0.6400E+02
      8.728  0.0000E+00  0.6400E+02
      8.839  0.0000E+00  0.6400E+02
      8.950  0.0000E+00  0.6400E+02
      9.061  0.0000E+00  0.6400E+02
      9.172  0.0000E+00  0.6400E+02
      9.283  0.0000E+00  0.6400E+02
      9.394  0.0000E+00  0.6400E+02
      9.505  0.0000E+00  0.6400E+02
      9.617  0.0000E+00  0.6400E+02
      9.728  0.0000E+00  0.6400E+02
      9.839  0.0000E+00  0.6400E+02
      9.950  0.0000E+00  0.6400E+02
     10.061  0.0000E+00  0.6400E+02
     10.172  0.0000E+00  0.6400E+02
     10.283  0.0000E+00  0.6400E+02
     10.394  0.0000E+00  0.6400E+02
     10.505  0.0000E+00  0.6400E+02
     10.617  0.0000E+00  0.6400E+02
     10.728  0.0000E+00  0.6400E+02
     10.839  0.0000E+00  0.6400E+02
     10.950  0.0000E+00  0.6400E+02
     11.061  0.0000E+00  0.6400E+02
     11.172  0.0000E+00  0.6400E+02
     11.283  0.0000E+00  0.6400E+02
     11.394  0.0000E+00  0.6400E+02
     11.506  0.0000E+00  0.6400E+02
     11.617  0.0000E+00  0.6400E+02
     11.728  0.0000E+00  0.6400E+02
     11.839  0.0000E+00  0.6400E+02
     11.950  0.0000E+00  0.6400E+02
     12.061  0.0000E+00  0.6400E+02
     12.172  0.4135E-02  0.6400E+02
     12.283  0.8760E-01  0.6400E+02
     12.394  0.3715E+00  0.6403E+02
     12.506  0.7450E+00  0.6409E+02
     12.617  0.1157E+01  0.6419E+02
     12.728  0.1566E+01  0.6435E+02
     12.839  0.1760E+01  0.6453E+02
     12.950  0.2041E+01  0.6474E+02
     13.061  0.2332E+01  0.6498E+02
     13.172  0.2825E+01  0.6527E+02
     13.283  0.3398E+01  0.6561E+02
     13.394  0.3828E+01  0.6601E+02
     13.506  0.4156E+01  0.6646E+02
     13.617  0.4251E+01  0.6693E+02
     13.728  0.4069E+01  0.6739E+02
     13.839  0.4036E+01  0.6786E+02
     13.950  0.4066E+01  0.6831E+02
     14.061  0.3926E+01  0.6875E+02
     14.172  0.4017E+01  0.6919E+02
     14.283  0.3787E+01  0.6962E+02
     14.395  0.4651E+01  0.7009E+02
     14.506  0.4856E+01  0.7061E+02
     14.617  0.5884E+01  0.7120E+02
     14.728  0.5879E+01  0.7187E+02
     14.839  0.6159E+01  0.7255E+02
     14.950  0.6699E+01  0.7324E+02
     15.061  0.6558E+01  0.7400E+02
     15.172  0.6497E+01  0.7472E+02
     15.283  0.6705E+01  0.7545E+02
     15.395  0.6514E+01  0.7618E+02
     15.506  0.6357E+01  0.7690E+02
     15.617  0.6268E+01  0.7760E+02
     15.728  0.6192E+01  0.7830E+02
     15.839  0.5585E+01  0.7895E+02
     15.950  0.4805E+01  0.7954E+02
     16.061  0.4169E+01  0.8003E+02
     16.172  0.3683E+01  0.8047E+02
     16.283  0.3355E+01  0.8086E+02
     16.395  0.2628E+01  0.8120E+02
     16.506  0.2161E+01  0.8146E+02
     16.617  0.1556E+01  0.8167E+02
     16.728  0.9021E+00  0.8180E+02
     16.839  0.6153E+00  0.8189E+02
     16.950  0.3820E+00  0.8194E+02
     17.061  0.1922E+00  0.8197E+02
     17.172  0.1048E+00  0.8199E+02
     17.283  0.4430E-01  0.8200E+02
     17.395  0.9521E-02  0.8200E+02
     17.506  0.5696E-09  0.8200E+02
     17.617  0.0000E+00  0.8200E+02
     17.728  0.0000E+00  0.8200E+02
     17.839  0.0000E+00  0.8200E+02
     17.950  0.0000E+00  0.8200E+02
     18.061  0.0000E+00  0.8200E+02
     18.172  0.0000E+00  0.8200E+02
     18.284  0.0000E+00  0.8200E+02
     18.395  0.0000E+00  0.8200E+02
     18.506  0.0000E+00  0.8200E+02
     18.617  0.0000E+00  0.8200E+02
     18.728  0.0000E+00  0.8200E+02
     18.839  0.0000E+00  0.8200E+02
     18.950  0.0000E+00  0.8200E+02
     19.061  0.0000E+00  0.8200E+02
     19.172  0.0000E+00  0.8200E+02
     19.284  0.0000E+00  0.8200E+02
     19.395  0.0000E+00  0.8200E+02
     19.506  0.0000E+00  0.8200E+02
