   16   16    1    1
  0.6331625E+01  0.5232590E-09  0.5232590E-09  0.5232590E-09  0.5000000E-15
  1.000000000000000E-004
  CAR 
 diamond                                 
     64     72     41
 
  0.0000000E+00  0.0000000E+00  0.0000000E+00  0.6944444E-02
    1      -11.828628
    2       -6.668837
    3       -6.657285
    4       -6.657235
    5       -6.646238
    6       -4.001561
    7       -3.990164
    8       -3.989962
    9       -3.980528
   10       -3.818005
   11       -3.804203
   12       -3.800423
   13       -3.800280
   14       -3.796282
   15       -3.780215
   16        2.553668
   17        2.563450
   18        2.564185
   19        2.564251
   20        2.564969
   21        2.574618
   22        5.667908
   23        5.689115
   24        5.695648
   25        5.696127
   26        5.698635
   27        5.699100
   28        5.705826
   29        5.726736
   30        8.207478
   31        8.224598
   32        8.242127
   33       12.728540
   34       12.739901
   35       12.748876
   36       12.749019
   37       12.757565
   38       12.767868
   39       13.497329
   40       13.512814
   41       13.528514
 
  0.1666667E+00  0.1387779E-16 -0.1387779E-16  0.1388889E-01
    1      -11.650633
    2       -7.637300
    3       -6.671928
    4       -6.665568
    5       -6.656754
    6       -4.918600
    7       -4.911555
    8       -4.904317
    9       -3.679799
   10       -3.670071
   11       -3.667258
   12       -2.712642
   13       -2.521587
   14       -2.513911
   15       -2.506629
   16        2.073864
   17        2.076965
   18        2.086481
   19        2.709286
   20        2.716351
   21        2.717095
   22        5.071953
   23        5.077182
   24        5.098931
   25        5.375003
   26        5.384913
   27        5.389302
   28        5.800532
   29        5.813307
   30        7.109696
   31        7.925305
   32        7.940481
   33       12.736675
   34       12.741776
   35       12.752652
   36       13.798747
   37       13.811125
   38       13.818357
   39       13.886442
   40       13.901324
   41       14.091517
 
  0.3333333E+00 -0.2775558E-16 -0.6938894E-16  0.1388889E-01
    1      -11.119399
    2       -9.052792
    3       -6.601708
    4       -6.595148
    5       -6.587238
    6       -5.763319
    7       -5.756606
    8       -5.749187
    9       -2.850517
   10       -2.841113
   11       -2.837941
   12       -1.483298
   13       -1.474298
   14       -1.469935
   15       -0.433233
   16        1.358940
   17        1.361552
   18        1.373628
   19        3.152744
   20        3.160734
   21        3.160979
   22        3.624529
   23        3.629678
   24        3.647914
   25        4.650928
   26        4.660262
   27        4.662721
   28        4.763535
   29        6.127951
   30        6.141171
   31        7.301484
   32        7.315305
   33       13.192049
   34       13.195526
   35       13.206719
   36       14.704869
   37       14.719880
   38       14.856828
   39       14.860118
   40       14.871829
   41       14.904369
 
  0.5000000E+00 -0.5551115E-16 -0.1387779E-15  0.6944444E-02
    1      -10.252294
    2      -10.237152
    3       -6.330027
    4       -6.315617
    5       -6.314834
    6       -6.312083
    7       -6.310834
    8       -6.294153
    9       -1.835517
   10       -1.817449
   11       -1.815711
   12       -1.810627
   13       -1.810160
   14       -1.805787
   15        2.046811
   16        2.049340
   17        2.050059
   18        2.054115
   19        2.059811
   20        2.079771
   21        2.126209
   22        2.151581
   23        3.821282
   24        3.836888
   25        3.843747
   26        3.849751
   27        3.853698
   28        3.854866
   29        6.633994
   30        6.659866
   31        6.665155
   32        6.665924
   33       13.927035
   34       13.930883
   35       13.949715
   36       13.951395
   37       13.951859
   38       13.955017
   39       15.344443
   40       15.357679
   41       15.512642
 
  0.0000000E+00  0.1666667E+00 -0.1387779E-16  0.1388889E-01
    1      -11.650627
    2       -7.636114
    3       -6.674576
    4       -6.665601
    5       -6.656931
    6       -4.922336
    7       -4.911728
    8       -4.901256
    9       -3.679615
   10       -3.669904
   11       -3.660346
   12       -2.718059
   13       -2.524245
   14       -2.513292
   15       -2.501774
   16        2.070003
   17        2.075529
   18        2.080964
   19        2.710496
   20        2.717078
   21        2.723769
   22        5.067146
   23        5.074085
   24        5.080449
   25        5.382033
   26        5.390187
   27        5.398760
   28        5.797990
   29        5.820574
   30        7.097324
   31        7.926668
   32        7.953318
   33       12.735810
   34       12.746483
   35       12.756557
   36       13.797243
   37       13.808383
   38       13.816882
   39       13.874604
   40       13.899489
   41       14.102195
 
  0.1666667E+00  0.1666667E+00 -0.2775558E-16  0.1388889E-01
    1      -11.591325
    2       -7.044240
    3       -7.033773
    4       -7.031141
    5       -7.021141
    6       -6.119682
    7       -3.680529
    8       -3.668961
    9       -3.668899
   10       -3.658166
   11       -3.216355
   12       -3.206835
   13       -3.203987
   14       -3.193731
   15       -1.264482
   16        2.099235
   17        2.103755
   18        2.107531
   19        2.111963
   20        2.787056
   21        2.795271
   22        4.876899
   23        4.886037
   24        4.893819
   25        4.902678
   26        5.633611
   27        5.649705
   28        5.652302
   29        5.668705
   30        7.415666
   31        7.434436
   32        7.601410
   33       12.211716
   34       13.319749
   35       13.651240
   36       13.664663
   37       13.668121
   38       13.680373
   39       13.838957
   40       14.497167
   41       14.513873
 
  0.3333333E+00  0.1666667E+00 -0.1110223E-15  0.1388889E-01
    1      -11.177853
    2       -8.445935
    3       -7.200618
    4       -7.190832
    5       -7.059671
    6       -6.244047
    7       -4.615377
    8       -4.605032
    9       -3.270505
   10       -2.439609
   11       -2.429132
   12       -2.351735
   13       -2.342636
   14       -1.120936
   15       -0.059975
   16        1.048504
   17        1.056676
   18        2.465811
   19        2.472005
   20        2.653963
   21        3.158051
   22        3.200942
   23        3.903872
   24        3.912462
   25        4.948139
   26        4.992517
   27        5.149641
   28        5.163855
   29        5.559498
   30        6.114837
   31        6.700899
   32        7.327587
   33       12.557520
   34       13.573871
   35       13.926900
   36       13.938647
   37       15.065408
   38       15.241217
   39       15.393638
   40       15.471458
   41       15.816568
 
  0.5000000E+00  0.1666667E+00 -0.1110223E-15  0.1388889E-01
    1      -10.417414
    2       -9.726414
    3       -7.689216
    4       -7.085686
    5       -7.076014
    6       -5.402399
    7       -5.316739
    8       -5.306023
    9       -2.891092
   10       -2.147522
   11       -2.137879
   12       -1.290833
   13       -1.280794
   14        0.120307
   15        1.002031
   16        1.014470
   17        1.345303
   18        1.375488
   19        2.722386
   20        2.730525
   21        2.973605
   22        3.060393
   23        3.136747
   24        3.143972
   25        3.787729
   26        4.113160
   27        4.124170
   28        4.179865
   29        5.256372
   30        6.049419
   31        6.728678
   32        6.743408
   33       13.434706
   34       14.333759
   35       14.380912
   36       14.503156
   37       14.515194
   38       14.856506
   39       14.868673
   40       15.497696
   41       15.858463
 
 -0.3333333E+00  0.1666667E+00  0.9020562E-16  0.1388889E-01
    1      -10.708928
    2       -9.328721
    3       -7.992074
    4       -6.664382
    5       -6.654701
    6       -5.818855
    7       -5.807759
    8       -4.569212
    9       -2.942833
   10       -2.932639
   11       -2.579509
   12       -0.836981
   13       -0.601828
   14       -0.591333
   15        0.228007
   16        0.494610
   17        1.910267
   18        1.915833
   19        2.341017
   20        2.357649
   21        3.121793
   22        3.129980
   23        3.451604
   24        3.914895
   25        4.029311
   26        4.037554
   27        4.280816
   28        4.584265
   29        5.587142
   30        5.806965
   31        6.057379
   32        7.414146
   33       13.632361
   34       13.966561
   35       13.978973
   36       14.464759
   37       14.685579
   38       15.032271
   39       15.288198
   40       15.300681
   41       15.506644
 
 -0.1666667E+00  0.1666667E+00  0.1025096E-16  0.1388889E-01
    1      -11.354888
    2       -7.976399
    3       -7.962907
    4       -6.236936
    5       -6.225640
    6       -5.934261
    7       -5.924324
    8       -3.791480
    9       -3.593786
   10       -3.583392
   11       -3.361875
   12       -1.893849
   13       -1.880022
   14       -1.288626
   15       -1.278072
   16        0.838854
   17        2.242450
   18        2.244745
   19        2.509115
   20        2.521179
   21        2.942147
   22        3.890737
   23        3.907684
   24        4.918559
   25        4.927324
   26        5.350399
   27        5.369993
   28        5.477907
   29        5.487787
   30        6.139854
   31        6.681601
   32        7.915674
   33       13.127430
   34       13.158449
   35       13.171508
   36       13.992507
   37       14.622607
   38       14.685052
   39       14.699506
   40       14.924742
   41       15.451004
 
  0.0000000E+00  0.3333333E+00  0.0000000E+00  0.1388889E-01
    1      -11.119360
    2       -9.052494
    3       -6.605015
    4       -6.595308
    5       -6.586020
    6       -5.767025
    7       -5.756847
    8       -5.746530
    9       -2.851022
   10       -2.840419
   11       -2.830031
   12       -1.483750
   13       -1.472109
   14       -1.460447
   15       -0.438396
   16        1.351904
   17        1.357943
   18        1.363946
   19        3.154657
   20        3.161561
   21        3.168334
   22        3.618108
   23        3.626520
   24        3.634725
   25        4.655298
   26        4.663537
   27        4.670704
   28        4.756099
   29        6.125988
   30        6.148650
   31        7.301366
   32        7.325706
   33       13.191398
   34       13.201695
   35       13.211404
   36       14.694715
   37       14.721340
   38       14.857995
   39       14.867354
   40       14.878864
   41       14.909029
 
  0.1666667E+00  0.3333333E+00  0.0000000E+00  0.1388889E-01
    1      -11.177829
    2       -8.445520
    3       -7.200699
    4       -7.190837
    5       -7.059852
    6       -6.246775
    7       -4.615888
    8       -4.605439
    9       -3.263375
   10       -2.438328
   11       -2.427712
   12       -2.350407
   13       -2.341968
   14       -1.125958
   15       -0.055876
   16        1.044541
   17        1.050246
   18        2.468867
   19        2.476286
   20        2.649293
   21        3.158420
   22        3.194260
   23        3.898682
   24        3.908138
   25        4.955012
   26        4.994928
   27        5.151336
   28        5.171987
   29        5.548612
   30        6.111488
   31        6.699719
   32        7.342156
   33       12.558907
   34       13.569340
   35       13.931162
   36       13.944574
   37       15.064477
   38       15.241577
   39       15.393553
   40       15.473417
   41       15.805012
 
  0.3333333E+00  0.3333333E+00 -0.1387779E-15  0.1388889E-01
    1      -10.883167
    2       -8.114859
    3       -7.542215
    4       -7.532691
    5       -7.528669
    6       -7.519146
    7       -3.372090
    8       -3.360495
    9       -3.360210
   10       -3.349022
   11       -1.537303
   12       -1.527399
   13       -1.523279
   14       -1.513240
   15        1.234163
   16        1.237911
   17        1.242114
   18        1.246044
   19        1.336874
   20        3.015818
   21        3.024749
   22        3.030475
   23        3.039384
   24        3.457867
   25        3.466804
   26        5.543402
   27        5.559960
   28        5.562388
   29        5.578173
   30        5.933337
   31        5.946394
   32        5.998218
   33       12.133876
   34       12.868301
   35       15.526611
   36       15.651847
   37       15.662569
   38       15.664783
   39       15.676556
   40       15.910313
   41       15.927212
 
  0.5000000E+00  0.3333333E+00 -0.1110223E-15  0.1388889E-01
    1      -10.240363
    2       -8.875190
    3       -8.856349
    4       -7.563408
    5       -7.553939
    6       -6.360717
    7       -4.201911
    8       -4.190896
    9       -2.485813
   10       -2.477300
   11       -1.675572
   12       -0.546296
   13       -0.535739
   14        0.452136
   15        0.459506
   16        0.760888
   17        1.026168
   18        1.892995
   19        1.900850
   20        2.020634
   21        2.028223
   22        2.117899
   23        3.174053
   24        3.883145
   25        3.918386
   26        4.025707
   27        4.762599
   28        5.029510
   29        5.047314
   30        5.255783
   31        5.717187
   32        6.263639
   33       12.697755
   34       13.094050
   35       14.933524
   36       15.989897
   37       16.237374
   38       16.243476
   39       16.290421
   40       16.300192
   41       16.395188
 
 -0.3333333E+00  0.3333333E+00  0.7601307E-16  0.1388889E-01
    1       -9.954217
    2       -9.270340
    3       -9.256747
    4       -7.272146
    5       -7.262621
    6       -5.081398
    7       -4.995832
    8       -4.984239
    9       -2.634911
   10       -2.625146
   11       -2.068823
   12       -0.181192
   13       -0.018968
   14       -0.007519
   15        1.058712
   16        1.071476
   17        1.503145
   18        1.517176
   19        1.628096
   20        1.634337
   21        2.883367
   22        2.927483
   23        2.935402
   24        3.897604
   25        3.906081
   26        3.924371
   27        4.011991
   28        4.778902
   29        4.798479
   30        5.033168
   31        5.046413
   32        6.971455
   33       13.840130
   34       13.849503
   35       14.200089
   36       15.358492
   37       15.366864
   38       15.382503
   39       16.032202
   40       16.605435
   41       16.639863
 
 -0.1666667E+00  0.3333333E+00  0.6245005E-16  0.1388889E-01
    1      -10.708882
    2       -9.328525
    3       -7.992644
    4       -6.664488
    5       -6.654772
    6       -5.819030
    7       -5.807780
    8       -4.572109
    9       -2.942240
   10       -2.931987
   11       -2.572224
   12       -0.830636
   13       -0.599747
   14       -0.588918
   15        0.223026
   16        0.488748
   17        1.902371
   18        1.907816
   19        2.339601
   20        2.352821
   21        3.124407
   22        3.139400
   23        3.452062
   24        3.908125
   25        4.032460
   26        4.039751
   27        4.271620
   28        4.586275
   29        5.584329
   30        5.814681
   31        6.067909
   32        7.412645
   33       13.632837
   34       13.969235
   35       13.982756
   36       14.466428
   37       14.689054
   38       15.030349
   39       15.300549
   40       15.308728
   41       15.661394
 
  0.0000000E+00  0.5000000E+00 -0.5551115E-16  0.1388889E-01
    1      -10.244724
    2      -10.244556
    3       -6.335056
    4       -6.317361
    5       -6.313464
    6       -6.313448
    7       -6.309570
    8       -6.292086
    9       -1.834890
   10       -1.817356
   11       -1.812040
   12       -1.812022
   13       -1.806751
   14       -1.789392
   15        2.035465
   16        2.048070
   17        2.050774
   18        2.050869
   19        2.053216
   20        2.064164
   21        2.127677
   22        2.129477
   23        3.833515
   24        3.847250
   25        3.847509
   26        3.847567
   27        3.847869
   28        3.861840
   29        6.636131
   30        6.658899
   31        6.660569
   32        6.684008
   33       13.927310
   34       13.946302
   35       13.948500
   36       13.948527
   37       13.950173
   38       13.967629
   39       15.353337
   40       15.360087
   41       15.500232
 
  0.1666667E+00  0.5000000E+00 -0.1110223E-15  0.2777778E-01
    1      -10.417271
    2       -9.726401
    3       -7.689600
    4       -7.085798
    5       -7.076076
    6       -5.405293
    7       -5.317068
    8       -5.306627
    9       -2.882663
   10       -2.145367
   11       -2.135665
   12       -1.289492
   13       -1.279462
   14        0.128364
   15        0.998906
   16        1.007628
   17        1.341397
   18        1.367130
   19        2.714927
   20        2.723509
   21        2.964449
   22        3.051536
   23        3.140276
   24        3.147262
   25        3.789026
   26        4.115788
   27        4.134138
   28        4.180658
   29        5.264090
   30        6.047401
   31        6.733894
   32        6.747737
   33       13.436608
   34       14.328697
   35       14.381774
   36       14.508644
   37       14.521334
   38       14.861009
   39       14.874197
   40       15.505939
   41       15.904306
 
  0.3333333E+00  0.5000000E+00 -0.1110223E-15  0.2777778E-01
    1      -10.240290
    2       -8.877884
    3       -8.853659
    4       -7.563434
    5       -7.553949
    6       -6.361474
    7       -4.202407
    8       -4.191274
    9       -2.484428
   10       -2.475843
   11       -1.670392
   12       -0.545605
   13       -0.535035
   14        0.450181
   15        0.455655
   16        0.756235
   17        1.020900
   18        1.895859
   19        1.902540
   20        2.018142
   21        2.026707
   22        2.126438
   23        3.179473
   24        3.875850
   25        3.905474
   26        4.026434
   27        4.763133
   28        5.029981
   29        5.048589
   30        5.255073
   31        5.730499
   32        6.262283
   33       12.699445
   34       13.091720
   35       14.933729
   36       15.990479
   37       16.240894
   38       16.253571
   39       16.297736
   40       16.309563
   41       16.375934
 
  0.5000000E+00  0.5000000E+00 -0.1110223E-15  0.1388889E-01
    1       -9.723129
    2       -9.709562
    3       -7.732387
    4       -7.722980
    5       -7.718669
    6       -7.709371
    7       -3.184423
    8       -3.172697
    9       -3.172148
   10       -3.160825
   11        0.027414
   12        0.039260
   13        0.039542
   14        0.051012
   15        0.803368
   16        0.807101
   17        0.810855
   18        0.814425
   19        1.347816
   20        1.353321
   21        1.355516
   22        1.360856
   23        3.820316
   24        3.822061
   25        4.525489
   26        4.535919
   27        4.545230
   28        4.555590
   29        5.500814
   30        5.516568
   31        5.518913
   32        5.535496
   33       12.398632
   34       12.406007
   35       15.541427
   36       15.551849
   37       15.554337
   38       15.564277
   39       17.468695
   40       17.489504
   41       17.497034
 
  0.0000000E+00  0.0000000E+00  0.2500000E+00  0.1388889E-01
    1      -11.428764
    2       -8.359113
    3       -6.659486
    4       -6.650127
    5       -6.641108
    6       -5.380240
    7       -5.369849
    8       -5.359453
    9       -3.313674
   10       -3.303506
   11       -3.293520
   12       -1.910427
   13       -1.898884
   14       -1.887510
   15       -1.631716
   16        1.637314
   17        1.643233
   18        1.649093
   19        2.898268
   20        2.904968
   21        2.911706
   22        4.400624
   23        4.408498
   24        4.415983
   25        5.049228
   26        5.057218
   27        5.065345
   28        5.935602
   29        5.958110
   30        5.998211
   31        7.633425
   32        7.658811
   33       12.921633
   34       12.932017
   35       12.941838
   36       14.261262
   37       14.286751
   38       14.542180
   39       14.805248
   40       14.814980
   41       14.827785
 
  0.1666667E+00  0.1387779E-16  0.2500000E+00  0.1388889E-01
    1      -11.428583
    2       -7.729461
    3       -7.150201
    4       -7.140145
    5       -6.656107
    6       -6.627030
    7       -4.175088
    8       -4.164713
    9       -3.289020
   10       -3.022944
   11       -3.012275
   12       -2.821741
   13       -2.812441
   14       -2.244484
   15       -0.621750
   16        1.557023
   17        1.562984
   18        2.245360
   19        2.253046
   20        2.790949
   21        2.937187
   22        4.095381
   23        4.438272
   24        4.447533
   25        4.895789
   26        5.361202
   27        5.506712
   28        5.527024
   29        5.853177
   30        6.638424
   31        7.062503
   32        7.515116
   33       12.275961
   34       13.343439
   35       13.752903
   36       13.766496
   37       14.317411
   38       14.617831
   39       14.630507
   40       14.959352
   41       14.979271
 
  0.3333333E+00 -0.2775558E-16  0.2500000E+00  0.1388889E-01
    1      -11.074494
    2       -8.025002
    3       -7.624508
    4       -7.404109
    5       -7.394423
    6       -6.824923
    7       -3.987313
    8       -3.976854
    9       -2.912495
   10       -2.902367
   11       -2.525581
   12       -1.977002
   13       -1.967271
   14       -1.356801
   15        0.654111
   16        1.082003
   17        1.089305
   18        1.865175
   19        1.871882
   20        3.080647
   21        3.154886
   22        3.271625
   23        3.517077
   24        3.525850
   25        4.035082
   26        5.248005
   27        5.453357
   28        5.470467
   29        5.841023
   30        5.885665
   31        6.318476
   32        6.776707
   33       12.240920
   34       13.118107
   35       14.805489
   36       14.817836
   37       15.156184
   38       15.450042
   39       15.825130
   40       15.844187
   41       15.945879
 
  0.5000000E+00 -0.5551115E-16  0.2500000E+00  0.1388889E-01
    1      -10.372571
    2       -9.341160
    3       -8.308022
    4       -7.362969
    5       -7.353417
    6       -5.725348
    7       -4.763002
    8       -4.752130
    9       -2.488016
   10       -2.290898
   11       -2.281909
   12       -0.938669
   13       -0.928441
   14        0.630933
   15        0.641420
   16        1.031211
   17        1.130171
   18        1.150587
   19        2.466670
   20        2.475475
   21        2.540281
   22        2.547039
   23        3.461515
   24        3.512351
   25        3.870726
   26        4.250239
   27        4.444068
   28        4.549855
   29        4.565721
   30        5.656434
   31        6.314723
   32        6.558052
   33       13.072515
   34       13.690837
   35       14.641331
   36       15.285647
   37       15.298690
   38       15.658329
   39       15.672560
   40       15.819512
   41       16.029551
 
 -0.3333333E+00  0.2775558E-16  0.2500000E+00  0.1388889E-01
    1      -10.373757
    2       -9.339095
    3       -8.659940
    4       -7.006989
    5       -6.997399
    6       -5.404386
    7       -5.392993
    8       -4.584289
    9       -2.827941
   10       -2.817774
   11       -2.511470
   12       -0.234213
   13       -0.223087
   14       -0.119398
   15        0.315665
   16        1.009469
   17        1.672394
   18        1.686955
   19        1.840040
   20        1.844732
   21        3.378508
   22        3.392138
   23        3.481770
   24        3.502156
   25        3.511018
   26        3.702035
   27        4.648767
   28        4.659629
   29        4.790503
   30        5.199087
   31        5.615452
   32        7.247271
   33       13.891379
   34       14.192178
   35       14.458053
   36       14.666130
   37       14.679939
   38       14.958365
   39       15.877584
   40       15.959670
   41       15.976759
 
 -0.1666667E+00 -0.1387779E-16  0.2500000E+00  0.1388889E-01
    1      -11.075087
    2       -8.675332
    3       -8.021457
    4       -6.337442
    5       -6.327713
    6       -6.029064
    7       -6.017537
    8       -4.142472
    9       -3.326683
   10       -3.316248
   11       -2.888409
   12       -1.374485
   13       -0.793671
   14       -0.782710
   15       -0.737364
   16        0.345538
   17        1.987071
   18        1.991562
   19        2.745487
   20        2.759256
   21        3.130354
   22        3.145626
   23        3.165043
   24        4.499492
   25        4.507672
   26        4.936801
   27        4.994033
   28        5.127184
   29        5.440743
   30        5.758920
   31        6.183697
   32        7.705664
   33       13.347557
   34       13.555449
   35       13.568763
   36       14.294778
   37       14.980811
   38       15.098003
   39       15.269367
   40       15.326676
   41       15.588781
 
  0.0000000E+00  0.1666667E+00  0.2500000E+00  0.1388889E-01
    1      -11.428584
    2       -7.729388
    3       -7.152581
    4       -7.139443
    5       -6.653593
    6       -6.627052
    7       -4.177416
    8       -4.162271
    9       -3.295562
   10       -3.025779
   11       -3.009726
   12       -2.823237
   13       -2.805105
   14       -2.244686
   15       -0.622566
   16        1.555736
   17        1.567565
   18        2.241790
   19        2.253372
   20        2.787673
   21        2.941507
   22        4.094876
   23        4.439426
   24        4.456720
   25        4.887824
   26        5.367004
   27        5.503192
   28        5.513464
   29        5.862778
   30        6.639652
   31        7.071239
   32        7.504224
   33       12.275924
   34       13.345198
   35       13.752926
   36       13.761995
   37       14.316827
   38       14.620980
   39       14.631769
   40       14.966146
   41       14.971357
 
  0.1666667E+00  0.1666667E+00  0.2500000E+00  0.1388889E-01
    1      -11.546980
    2       -7.838781
    3       -7.253994
    4       -6.455548
    5       -6.444345
    6       -5.459685
    7       -5.449833
    8       -4.249956
    9       -3.704967
   10       -3.694568
   11       -3.064555
   12       -2.913673
   13       -2.345901
   14       -1.892221
   15       -1.881942
   16        1.459634
   17        2.174204
   18        2.181768
   19        2.648553
   20        2.652988
   21        2.798816
   22        4.548538
   23        4.567637
   24        5.232582
   25        5.244239
   26        5.246159
   27        5.356954
   28        5.657524
   29        5.795135
   30        6.702955
   31        7.409139
   32        8.021086
   33       12.837492
   34       12.849615
   35       12.965625
   36       13.825648
   37       14.108374
   38       14.122886
   39       14.230035
   40       14.460215
   41       14.518442
 
  0.3333333E+00  0.1666667E+00  0.2500000E+00  0.1388889E-01
    1      -11.310577
    2       -8.245911
    3       -7.618358
    4       -6.548333
    5       -6.524972
    6       -6.237437
    7       -5.279775
    8       -4.147604
    9       -3.503607
   10       -3.202698
   11       -2.974634
   12       -2.152008
   13       -1.875831
   14       -1.548324
   15       -0.666478
   16        0.889748
   17        1.702055
   18        2.411896
   19        2.443222
   20        2.813507
   21        2.903090
   22        3.669135
   23        3.896508
   24        4.738026
   25        4.983662
   26        4.995232
   27        5.255993
   28        5.369477
   29        5.918999
   30        5.927882
   31        6.785793
   32        7.731135
   33       12.729935
   34       13.347851
   35       13.646657
   36       13.777109
   37       14.761709
   38       14.938576
   39       14.992061
   40       15.061380
   41       15.476792
 
  0.5000000E+00  0.1666667E+00  0.2500000E+00  0.1388889E-01
    1      -10.723211
    2       -9.003935
    3       -8.334468
    4       -7.310105
    5       -6.050179
    6       -6.013135
    7       -5.715721
    8       -4.226865
    9       -3.044360
   10       -2.755891
   11       -2.745335
   12       -1.010379
   13       -0.522689
   14        0.021395
   15        0.151921
   16        0.206219
   17        1.487080
   18        2.179475
   19        2.389176
   20        2.405720
   21        2.621230
   22        3.275177
   23        3.298161
   24        4.098410
   25        4.166574
   26        4.296400
   27        4.348032
   28        4.972914
   29        5.125193
   30        5.468228
   31        5.882357
   32        7.361139
   33       13.554611
   34       13.811602
   35       14.305584
   36       14.675013
   37       14.770050
   38       15.041360
   39       15.507947
   40       15.784020
   41       15.954239
 
 -0.3333333E+00  0.1666667E+00  0.2500000E+00  0.1388889E-01
    1      -10.141629
    2       -9.796651
    3       -8.091977
    4       -7.773543
    5       -6.526042
    6       -5.641318
    7       -5.212361
    8       -4.886391
    9       -2.681113
   10       -2.580523
   11       -1.862313
   12       -1.424809
   13       -0.236032
   14        0.469213
   15        0.651570
   16        0.840181
   17        1.268027
   18        1.823512
   19        1.902016
   20        2.664615
   21        2.925150
   22        2.988591
   23        3.286744
   24        3.302367
   25        3.686040
   26        3.978110
   27        4.084553
   28        4.331137
   29        4.853047
   30        5.399682
   31        6.548208
   32        6.708988
   33       13.684497
   34       14.333297
   35       14.501255
   36       14.573747