   32   32    1    1
  0.8730593E+01  0.4932875E-09  0.4932875E-09  0.1326350E-08  0.5000000E-15
  1.000000000000000E-004
  CAR 
 graphite                                
    128     76     84
 
  0.0000000E+00  0.0000000E+00  0.0000000E+00  0.6944444E-02
    1      -14.863993
    2      -14.706003
    3      -14.705426
    4      -14.535566
    5       -9.533931
    6       -9.525697
    7       -9.523148
    8       -9.467145
    9       -9.466881
   10       -9.459152
   11       -9.455464
   12       -9.455411
   13       -9.453422
   14       -9.412426
   15       -9.401662
   16       -9.398430
   17       -8.454573
   18       -8.451117
   19       -8.449035
   20       -8.421957
   21       -8.418229
   22       -8.416267
   23       -8.415597
   24       -8.415540
   25       -8.412006
   26       -8.362597
   27       -8.357732
   28       -8.355706
   29       -3.772227
   30       -2.835283
   31       -2.833580
   32       -1.687800
   33       -1.628445
   34       -1.625701
   35       -1.606486
   36       -1.599384
   37       -1.595303
   38       -1.595296
   39       -1.594535
   40       -1.576593
   41       -1.574451
   42       -1.565963
   43       -1.563573
   44       -1.544179
   45        1.764614
   46        1.776479
   47        1.781624
   48        1.788847
   49        1.790423
   50        1.797773
   51        1.802063
   52        1.813485
   53        1.986053
   54        1.987314
   55        1.988523
   56        2.420069
   57        2.422261
   58        2.424143
   59        2.428142
   60        2.428472
   61        2.430094
   62        2.705887
   63        2.720310
   64        2.723087
   65        6.298258
   66        6.301415
   67        6.302629
   68        6.425568
   69        6.431070
   70        6.435643
   71        6.436584
   72        6.436901
   73        6.442042
   74        6.989958
   75        7.003430
   76        7.005821
   77        9.185311
   78       11.913429
   79       11.917874
   80       11.959821
   81       11.963742
   82       11.997037
   83       12.169336
   84       12.175673
 
  0.1666667E+00  0.0000000E+00  0.0000000E+00  0.1388889E-01
    1      -14.698211
    2      -14.541700
    3      -14.541131
    4      -14.373019
    5      -10.840341
    6      -10.719898
    7      -10.719350
    8      -10.592584
    9       -9.966707
   10       -9.959822
   11       -9.860620
   12       -9.859961
   13       -9.852982
   14       -9.852612
   15       -9.750039
   16       -9.742443
   17       -7.843025
   18       -7.835007
   19       -7.759358
   20       -7.756607
   21       -7.749829
   22       -7.749526
   23       -7.666258
   24       -7.657953
   25       -6.995689
   26       -6.908791
   27       -6.907326
   28       -6.816299
   29       -3.571040
   30       -2.639749
   31       -2.638046
   32       -2.119220
   33       -2.100142
   34       -2.081462
   35       -2.080992
   36       -2.063114
   37       -2.060932
   38       -2.042383
   39       -2.023205
   40       -1.500393
   41       -1.464960
   42       -1.435909
   43       -1.432932
   44       -1.403587
   45        0.886773
   46        1.124601
   47        1.141803
   48        1.145895
   49        1.163751
   50        1.427031
   51        1.441955
   52        1.446923
   53        1.460843
   54        1.578686
   55        1.581098
   56        1.755822
   57        1.758393
   58        2.312551
   59        2.314259
   60        2.318383
   61        2.320627
   62        2.328516
   63        2.811498
   64        2.823056
   65        6.461348
   66        6.463998
   67        6.706799
   68        6.712102
   69        6.716929
   70        6.718642
   71        7.128416
   72        7.269617
   73        7.279425
   74        7.538222
   75        7.541490
   76        8.175409
   77        9.384063
   78       12.052862
   79       12.080055
   80       12.084264
   81       12.255133
   82       12.256921
   83       12.460344
   84       12.694592
 
  0.3333333E+00  0.0000000E+00  0.0000000E+00  0.1388889E-01
    1      -14.202650
    2      -14.050604
    3      -14.050053
    4      -13.887127
    5      -12.252278
    6      -12.117779
    7      -12.117304
    8      -11.974566
    9      -10.390705
   10      -10.387087
   11      -10.275383
   12      -10.274159
   13      -10.270972
   14      -10.270465
   15      -10.152666
   16      -10.148873
   17       -6.668852
   18       -6.658114
   19       -6.590607
   20       -6.587838
   21       -6.578790
   22       -6.578159
   23       -6.506257
   24       -6.495735
   25       -4.877849
   26       -4.805912
   27       -4.804249
   28       -4.729897
   29       -3.277400
   30       -3.261442
   31       -3.228048
   32       -3.227907
   33       -3.212961
   34       -3.210656
   35       -3.176578
   36       -3.160370
   37       -2.971588
   38       -2.058335
   39       -2.056642
   40       -0.991139
   41       -0.963305
   42       -0.960019
   43       -0.944669
   44       -0.932087
   45       -0.663689
   46       -0.532392
   47       -0.498202
   48       -0.494831
   49       -0.460269
   50        0.156615
   51        0.158489
   52        0.628230
   53        0.649246
   54        0.653670
   55        0.674534
   56        1.128244
   57        1.445216
   58        1.447744
   59        2.123634
   60        2.124604
   61        2.127251
   62        2.129908
   63        2.862074
   64        2.867805
   65        6.942981
   66        6.948158
   67        7.284113
   68        7.289105
   69        7.292482
   70        7.294114
   71        7.735321
   72        7.739803
   73        9.264278
   74        9.678077
   75        9.680588
   76        9.982007
   77       10.221863
   78       12.190103
   79       12.414189
   80       12.487886
   81       12.490069
   82       12.539671
   83       12.542470
   84       12.821734
 
  0.5000000E+00  0.5551115E-16  0.0000000E+00  0.6944444E-02
    1      -13.384702
    2      -13.381870
    3      -13.241307
    4      -13.238128
    5      -13.238093
    6      -13.235586
    7      -13.085012
    8      -13.082114
    9      -10.539648
   10      -10.537912
   11      -10.422494
   12      -10.420307
   13      -10.420257
   14      -10.418921
   15      -10.296985
   16      -10.295190
   17       -5.753505
   18       -5.751110
   19       -5.711821
   20       -5.707672
   21       -5.706859
   22       -5.706847
   23       -5.667870
   24       -5.666042
   25       -4.156755
   26       -4.155649
   27       -4.129677
   28       -4.129659
   29       -4.128682
   30       -4.125868
   31       -4.093942
   32       -4.092227
   33       -2.654482
   34       -2.651726
   35       -2.600639
   36       -2.599817
   37       -2.599791
   38       -2.594430
   39       -2.544325
   40       -2.540786
   41       -1.990499
   42       -1.988224
   43       -1.111745
   44       -1.108251
   45       -1.108154
   46       -1.105919
   47       -0.259693
   48       -0.252863
   49       -0.234447
   50       -0.226497
   51       -0.226481
   52       -0.225390
   53       -0.202628
   54       -0.198908
   55       -0.046893
   56       -0.044242
   57        1.323716
   58        1.325590
   59        2.039195
   60        2.040623
   61        2.041088
   62        2.044608
   63        2.854902
   64        2.857405
   65        7.267941
   66        7.270546
   67        7.589932
   68        7.595188
   69        7.595839
   70        7.596790
   71        7.919362
   72        7.922253
   73       10.970230
   74       10.971294
   75       11.701363
   76       11.704775
   77       11.957791
   78       11.960940
   79       11.962432
   80       11.967177
   81       12.381970
   82       12.385035
   83       12.709388
   84       12.715653
 
  0.0000000E+00  0.1666667E+00  0.0000000E+00  0.1388889E-01
    1      -14.698214
    2      -14.541707
    3      -14.541132
    4      -14.373023
    5      -10.840350
    6      -10.719905
    7      -10.719350
    8      -10.592580
    9       -9.966808
   10       -9.959881
   11       -9.860902
   12       -9.859964
   13       -9.852980
   14       -9.852641
   15       -9.750065
   16       -9.742589
   17       -7.843190
   18       -7.833844
   19       -7.759777
   20       -7.756608
   21       -7.749575
   22       -7.747211
   23       -7.666369
   24       -7.656682
   25       -6.996568
   26       -6.909166
   27       -6.908742
   28       -6.817214
   29       -3.571030
   30       -2.639733
   31       -2.638036
   32       -2.120513
   33       -2.100148
   34       -2.083830
   35       -2.081000
   36       -2.063114
   37       -2.061101
   38       -2.043580
   39       -2.023334
   40       -1.500377
   41       -1.463484
   42       -1.433283
   43       -1.432924
   44       -1.402386
   45        0.887347
   46        1.122581
   47        1.140907
   48        1.141803
   49        1.160275
   50        1.430978
   51        1.446864
   52        1.446944
   53        1.462767
   54        1.579789
   55        1.581485
   56        1.755398
   57        1.757844
   58        2.312197
   59        2.313958
   60        2.317543
   61        2.319714
   62        2.329539
   63        2.811516
   64        2.821586
   65        6.461952
   66        6.465543
   67        6.707218
   68        6.712073
   69        6.717638
   70        6.721739
   71        7.126599
   72        7.269807
   73        7.281349
   74        7.537337
   75        7.539301
   76        8.173965
   77        9.384074
   78       12.053396
   79       12.080141
   80       12.084350
   81       12.256115
   82       12.256980
   83       12.460856
   84       12.707067
 
  0.1666667E+00  0.1666667E+00  0.0000000E+00  0.1388889E-01
    1      -14.367302
    2      -14.213768
    3      -14.213213
    4      -14.048569
    5      -11.463188
    6      -11.460196
    7      -11.337560
    8      -11.334169
    9      -11.334142
   10      -11.331529
   11      -11.201229
   12      -11.198176
   13       -9.108049
   14       -9.044303
   15       -9.043175
   16       -8.991483
   17       -8.050216
   18       -8.022132
   19       -8.018595
   20       -7.969516
   21       -5.886187
   22       -5.882788
   23       -5.808687
   24       -5.805598
   25       -5.805572
   26       -5.801720
   27       -5.725132
   28       -5.721523
   29       -3.448529
   30       -3.397387
   31       -3.395604
   32       -3.342753
   33       -3.170359
   34       -2.250897
   35       -2.249197
   36       -1.792151
   37       -1.789011
   38       -1.757540
   39       -1.753225
   40       -1.753219
   41       -1.751772
   42       -1.717966
   43       -1.715238
   44       -1.128374
   45        0.090273
   46        0.107323
   47        0.111088
   48        0.127411
   49        0.239133
   50        0.241759
   51        0.751272
   52        0.763449
   53        0.768086
   54        0.780450
   55        1.004318
   56        1.007545
   57        1.007661
   58        1.010015
   59        1.889536
   60        1.892107
   61        2.585869
   62        3.017411
   63        3.020300
   64        3.289085
   65        6.213168
   66        6.218544
   67        6.231749
   68        6.530502
   69        8.068762
   70        8.071403
   71        8.488506
   72        8.490771
   73        8.491216
   74        8.494551
   75        9.036707
   76        9.039133
   77        9.784290
   78       12.418399
   79       12.422122
   80       12.853192
   81       12.857246
   82       13.066352
   83       13.070940
   84       13.074224
 
  0.3333333E+00  0.1666667E+00  0.0000000E+00  0.1388889E-01
    1      -13.709589
    2      -13.561962
    3      -13.561432
    4      -13.403625
    5      -12.735716
    6      -12.596842
    7      -12.596335
    8      -12.448616
    9      -11.779082
   10      -11.649044
   11      -11.648458
   12      -11.510740
   13       -9.096908
   14       -8.999308
   15       -8.999005
   16       -8.898590
   17       -7.199106
   18       -7.134691
   19       -7.131680
   20       -7.064377
   21       -4.882033
   22       -4.832747
   23       -4.830828
   24       -4.776129
   25       -4.724225
   26       -4.667851
   27       -4.665947
   28       -4.609082
   29       -3.739723
   30       -3.680165
   31       -3.678543
   32       -3.617485
   33       -2.689005
   34       -2.651135
   35       -2.649779
   36       -2.609065
   37       -2.378461
   38       -1.643442
   39       -1.609293
   40       -1.605755
   41       -1.566970
   42       -1.482294
   43       -1.480184
   44       -1.221214
   45       -1.152700
   46       -1.121402
   47       -1.118420
   48       -1.086366
   49       -0.399111
   50       -0.371749
   51       -0.370037
   52       -0.256005
   53       -0.233560
   54       -0.228782
   55       -0.205535
   56       -0.098082
   57        0.646439
   58        0.700180
   59        0.701840
   60        1.641504
   61        2.870318
   62        3.425126
   63        3.427645
   64        3.934874
   65        5.842539
   66        6.072766
   67        6.076839
   68        6.425509
   69        8.879039
   70        9.203931
   71        9.206678
   72        9.551391
   73       10.366666
   74       10.584043
   75       10.699644
   76       10.702113
   77       11.109074
   78       11.766150
   79       12.637091
   80       12.777487
   81       12.786602
   82       12.954517
   83       13.115588
   84       13.124768
 
  0.5000000E+00  0.1666667E+00  0.0000000E+00  0.1388889E-01
    1      -13.710821
    2      -13.563205
    3      -13.562647
    4      -13.404850
    5      -12.733987
    6      -12.595097
    7      -12.594628
    8      -12.446892
    9      -11.780322
   10      -11.650301
   11      -11.649691
   12      -11.511989
   13       -9.094446
   14       -8.996631
   15       -8.996243
   16       -8.895533
   17       -7.192725
   18       -7.127446
   19       -7.126167
   20       -7.058117
   21       -4.891541
   22       -4.841933
   23       -4.841509
   24       -4.786428
   25       -4.734992
   26       -4.678828
   27       -4.675629
   28       -4.618917
   29       -3.742731
   30       -3.683531
   31       -3.681207
   32       -3.620476
   33       -2.676474
   34       -2.638959
   35       -2.636044
   36       -2.595718
   37       -2.379643
   38       -1.643334
   39       -1.608402
   40       -1.606854
   41       -1.567317
   42       -1.483421
   43       -1.481358
   44       -1.219647
   45       -1.150084
   46       -1.119080
   47       -1.115301
   48       -1.083587
   49       -0.400212
   50       -0.370281
   51       -0.368487
   52       -0.255461
   53       -0.232678
   54       -0.229987
   55       -0.206043
   56       -0.099111
   57        0.647898
   58        0.698972
   59        0.700676
   60        1.640074
   61        2.870232
   62        3.427728
   63        3.429510
   64        3.942376
   65        5.841113
   66        6.075129
   67        6.077655
   68        6.426078
   69        8.874109
   70        9.199776
   71        9.203171
   72        9.549946
   73       10.368020
   74       10.582416
   75       10.699100
   76       10.702045
   77       11.107324
   78       11.768348
   79       12.633376
   80       12.778041
   81       12.787136
   82       12.959938
   83       13.117761
   84       13.128050
 
 -0.3333333E+00  0.1666667E+00  0.0000000E+00  0.1388889E-01
    1      -14.368039
    2      -14.214512
    3      -14.213939
    4      -14.049301
    5      -11.465395
    6      -11.459422
    7      -11.338419
    8      -11.337823
    9      -11.332365
   10      -11.331898
   11      -11.203555
   12      -11.197551
   13       -9.099135
   14       -9.033821
   15       -9.033372
   16       -8.979957
   17       -8.047890
   18       -8.017508
   19       -8.017118
   20       -7.965726
   21       -5.896801
   22       -5.887303
   23       -5.818880
   24       -5.816486
   25       -5.809101
   26       -5.807466
   27       -5.735592
   28       -5.726332
   29       -3.464100
   30       -3.412337
   31       -3.411930
   32       -3.358447
   33       -3.171088
   34       -2.251603
   35       -2.249920
   36       -1.789017
   37       -1.770663
   38       -1.754002
   39       -1.750853
   40       -1.735298
   41       -1.732955
   42       -1.715150
   43       -1.696841
   44       -1.129068
   45        0.080345
   46        0.098899
   47        0.099671
   48        0.117013
   49        0.237727
   50        0.242011
   51        0.762887
   52        0.775342
   53        0.775631
   54        0.789699
   55        1.003177
   56        1.005061
   57        1.007907
   58        1.009971
   59        1.886819
   60        1.891840
   61        2.585171
   62        3.023455
   63        3.025284
   64        3.304585
   65        6.219420
   66        6.221428
   67        6.227468
   68        6.537208
   69        8.061327
   70        8.070810
   71        8.480337
   72        8.484109
   73        8.489419
   74        8.492308
   75        9.030945
   76        9.036411
   77        9.783271
   78       12.417744
   79       12.421436
   80       12.851858
   81       12.885135
   82       13.068119
   83       13.074209
   84       13.104119
 
 -0.1666667E+00  0.1666667E+00  0.0000000E+00  0.1388889E-01
    1      -14.698460
    2      -14.541955
    3      -14.541374
    4      -14.373266
    5      -10.846629
    6      -10.726240
    7      -10.725722
    8      -10.599013
    9       -9.958641
   10       -9.956648
   11       -9.853219
   12       -9.850553
   13       -9.850514
   14       -9.849036
   15       -9.741510
   16       -9.739338
   17       -7.838138
   18       -7.836345
   19       -7.753533
   20       -7.752416
   21       -7.752386
   22       -7.749861
   23       -7.661276
   24       -7.659408
   25       -7.005591
   26       -6.919020
   27       -6.916841
   28       -6.826118
   29       -3.571276
   30       -2.639974
   31       -2.638281
   32       -2.120348
   33       -2.117815
   34       -2.084119
   35       -2.080162
   36       -2.080153
   37       -2.079484
   38       -2.043272
   39       -2.041108
   40       -1.500612
   41       -1.443854
   42       -1.414510
   43       -1.412304
   44       -1.382584
   45        0.883218
   46        1.106476
   47        1.124081
   48        1.129154
   49        1.146244
   50        1.445446
   51        1.459675
   52        1.463879
   53        1.478942
   54        1.574337
   55        1.576465
   56        1.758005
   57        1.760059
   58        2.315710
   59        2.320153
   60        2.320330
   61        2.320602
   62        2.323159
   63        2.821164
   64        2.823831
   65        6.463187
   66        6.466158
   67        6.715114
   68        6.716626
   69        6.716916
   70        6.721771
   71        7.120703
   72        7.277276
   73        7.279842
   74        7.527740
   75        7.531769
   76        8.165544
   77        9.383722
   78       12.079818
   79       12.083977
   80       12.087539
   81       12.290175
   82       12.291042
   83       12.494753
   84       12.693409
 
 -0.2710505E-19  0.3333333E+00  0.0000000E+00  0.1388889E-01
    1      -14.202664
    2      -14.050627
    3      -14.050058
    4      -13.887141
    5      -12.252332
    6      -12.117871
    7      -12.117319
    8      -11.974620
    9      -10.391001
   10      -10.386804
   11      -10.276147
   12      -10.274163
   13      -10.270928
   14      -10.269682
   15      -10.152894
   16      -10.148580
   17       -6.668882
   18       -6.656970
   19       -6.590761
   20       -6.587837
   21       -6.578180
   22       -6.576071
   23       -6.506163
   24       -6.494390
   25       -4.878827
   26       -4.806315
   27       -4.805879
   28       -4.730956
   29       -3.278761
   30       -3.261711
   31       -3.230534
   32       -3.227995
   33       -3.212963
   34       -3.211208
   35       -3.177817
   36       -3.160665
   37       -2.971544
   38       -2.058268
   39       -2.056599
   40       -0.989489
   41       -0.960438
   42       -0.960012
   43       -0.944592
   44       -0.930801
   45       -0.663446
   46       -0.534030
   47       -0.498563
   48       -0.498189
   49       -0.462422
   50        0.157042
   51        0.158707
   52        0.630897
   53        0.653317
   54        0.653677
   55        0.676236
   56        1.128685
   57        1.444473
   58        1.447615
   59        2.122217
   60        2.124467
   61        2.127352
   62        2.129236
   63        2.861660
   64        2.866868
   65        6.943169
   66        6.949988
   67        7.284788
   68        7.289097
   69        7.293373
   70        7.296858
   71        7.735814
   72        7.741695
   73        9.263068
   74        9.677183
   75        9.679440
   76        9.982032
   77       10.220862
   78       12.190529
   79       12.414704
   80       12.489232
   81       12.490207
   82       12.540130
   83       12.542834
   84       12.822249
 
  0.1666667E+00  0.3333333E+00  0.0000000E+00  0.1388889E-01
    1      -13.709596
    2      -13.561974
    3      -13.561434
    4      -13.403631
    5      -12.735776
    6      -12.596946
    7      -12.596351
    8      -12.448676
    9      -11.779023
   10      -11.648941
   11      -11.648444
   12      -11.510682
   13       -9.096955
   14       -8.999349
   15       -8.999074
   16       -8.898654
   17       -7.198700
   18       -7.133864
   19       -7.131676
   20       -7.063945
   21       -4.882428
   22       -4.832750
   23       -4.831637
   24       -4.776553
   25       -4.722799
   26       -4.665954
   27       -4.664966
   28       -4.607629
   29       -3.741034
   30       -3.681275
   31       -3.680156
   32       -3.618900
   33       -2.690709
   34       -2.653169
   35       -2.651135
   36       -2.610748
   37       -2.378423
   38       -1.644333
   39       -1.609297
   40       -1.607800
   41       -1.568194
   42       -1.482238
   43       -1.480184
   44       -1.221022
   45       -1.150804
   46       -1.118423
   47       -1.117884
   48       -1.084715
   49       -0.398947
   50       -0.371528
   51       -0.369878
   52       -0.254419
   53       -0.231387
   54       -0.228780
   55       -0.204663
   56       -0.098371
   57        0.646767
   58        0.699786
   59        0.701493
   60        1.641012
   61        2.869879
   62        3.424954
   63        3.426866
   64        3.934476
   65        5.842758
   66        6.074078
   67        6.076932
   68        6.426567
   69        8.880198
   70        9.205640
   71        9.207316
   72        9.552645
   73       10.365572
   74       10.584037
   75       10.698662
   76       10.701125
   77       11.108028
   78       11.766225
   79       12.636738
   80       12.777636
   81       12.786718
   82       12.954816
   83       13.110196
   84       13.121378
 
  0.3333333E+00  0.3333333E+00  0.0000000E+00  0.1388889E-01
    1      -12.900362
    2      -12.897649
    3      -12.895033
    4      -12.761844
    5      -12.757847
    6      -12.757824
    7      -12.756941
    8      -12.754934
    9      -12.752950
   10      -12.610064
   11      -12.607388
   12      -12.604702
   13       -7.883253
   14       -7.783352
   15       -7.782916
   16       -7.776459
   17       -7.774488
   18       -7.771240
   19       -7.769665
   20       -7.672892
   21       -5.733493
   22       -5.733137
   23       -5.728021
   24       -5.726767
   25       -2.977582
   26       -2.973649
   27       -2.970492
   28       -2.948291
   29       -2.942575
   30       -2.942328
   31       -2.942293
   32       -2.941457
   33       -2.936628
   34       -2.914840
   35       -2.912552
   36       -2.908865
   37       -1.615236
   38       -1.609339
   39       -1.606480
   40       -1.596184
   41       -1.590587
   42       -1.589246
   43       -1.588094
   44       -1.588087
   45       -1.582212
   46       -1.568765
   47       -1.564660
   48       -1.559375
   49       -1.411080
   50       -1.408926
   51       -1.406629
   52       -0.553947
   53       -0.550375
   54       -0.550107
   55       -0.548886
   56       -0.547527
   57       -0.545049
   58        0.480320
   59        0.482803
   60        0.485000
   61        4.101793
   62        4.750734
   63        4.760012
   64        4.770152
   65        4.773459
   66        4.793706
   67        4.794249
   68        5.546055
   69       10.891407
   70       10.894555
   71       10.901309
   72       11.141950
   73       11.147591
   74       11.148095
   75       11.148640
   76       11.149596
   77       11.152741
   78       11.411248
   79       11.414213
   80       11.416727
   81       11.582282
   82       11.583978
   83       11.588327
   84       13.903835
 
  0.5000000E+00  0.3333333E+00  0.0000000E+00  0.1388889E-01
    1      -13.711565
    2      -13.563964
    3      -13.563373
    4      -13.405592
    5      -12.737717
    6      -12.598894
    7      -12.598286
    8      -12.450612
    9      -11.775109
   10      -11.645009
   11      -11.644553
   12      -11.506775
   13       -9.087304
   14       -8.989673
   15       -8.989072
   16       -8.888614
   17       -7.199375
   18       -7.134175
   19       -7.133667
   20       -7.065707
   21       -4.891427
   22       -4.842249
   23       -4.841028
   24       -4.786377
   25       -4.727844
   26       -4.671814
   27       -4.669323
   28       -4.612783
   29       -3.754852
   30       -3.695852
   31       -3.692726
   32       -3.632192
   33       -2.688511
   34       -2.651674
   35       -2.647948
   36       -2.608341
   37       -2.380319
   38       -1.656483
   39       -1.621292
   40       -1.618832
   41       -1.579510
   42       -1.484287
   43       -1.482326
   44       -1.222808
   45       -1.133109
   46       -1.101761
   47       -1.098807
   48       -1.066609
   49       -0.400880
   50       -0.373343
   51       -0.371646
   52       -0.241192
   53       -0.217728
   54       -0.215827
   55       -0.191212
   56       -0.095013
   57        0.644833
   58        0.702853
   59        0.704783
   60        1.643981
   61        2.873884
   62        3.430527
   63        3.432677
   64        3.943129
   65        5.847265
   66        6.074070
   67        6.076051
   68        6.418319
   69        8.883788
   70        9.204872
   71        9.207317
   72        9.547867
   73       10.357182
   74       10.581442
   75       10.691400
   76       10.694527
   77       11.104180
   78       11.764044
   79       12.627959
   80       12.773547
   81       12.782647
   82       12.959416
   83       13.110889
   84       13.123029
 
 -0.3333333E+00  0.3333333E+00  0.0000000E+00  0.1388889E-01
    1      -14.203641
    2      -14.051618
    3      -14.051024
    4      -13.888116
    5      -12.256249
    6      -12.121820
    7      -12.121213
    8      -11.978545
    9      -10.383424
   10      -10.381650
   11      -10.268394
   12      -10.266190
   13      -10.266153
   14      -10.264736
   15      -10.145297
   16      -10.143446
   17       -6.664602
   18       -6.662789
   19       -6.585666
   20       -6.584654
   21       -6.584635
   22       -6.581848
   23       -6.502482
   24       -6.500485
   25       -4.890803
   26       -4.819153
   27       -4.816706
   28       -4.742639
   29       -3.277077
   30       -3.274980
   31       -3.229452
   32       -3.225638
   33       -3.225567
   34       -3.225483
   35       -3.176100
   36       -3.174257
   37       -2.972513
   38       -2.059214
   39       -2.057563
   40       -0.970567
   41       -0.945532
   42       -0.942422
   43       -0.939991
   44       -0.911640
   45       -0.666905
   46       -0.549594
   47       -0.515509
   48       -0.511514
   49       -0.477180
   50        0.153433
   51        0.155135
   52        0.647174
   53        0.668217
   54        0.671856
   55        0.693302
   56        1.124762
   57        1.449360
   58        1.451367
   59        2.126727
   60        2.130910
   61        2.131179
   62        2.132339
   63        2.867762
   64        2.870311
   65        6.948996
   66        6.951629
   67        7.289474
   68        7.290942
   69        7.291201
   70        7.295897
   71        7.734062
   72        7.736775
   73        9.253531
   74        9.667801
   75        9.671331
   76        9.980721
   77       10.214584
   78       12.201405
   79       12.438969
   80       12.520529
   81       12.521855
   82       12.540932
   83       12.543728
   84       12.847055
 
 -0.1666667E+00  0.3333333E+00  0.0000000E+00  0.1388889E-01
    1      -14.368050
    2      -14.214530
    3      -14.213942
    4      -14.049312
    5      -11.465765
    6      -11.459139
    7      -11.339565
    8      -11.337859
    9      -11.332003
   10      -11.331072
   11      -11.203851
   12      -11.197166
   13       -9.099867
   14       -9.035309
   15       -9.033391
   16       -8.980694
   17       -8.046449
   18       -8.017119
   19       -8.014211
   20       -7.964000
   21       -5.897103
   22       -5.887931
   23       -5.819694
   24       -5.816486
   25       -5.809106
   26       -5.808191
   27       -5.735708
   28       -5.726856
   29       -3.465254
   30       -3.414516
   31       -3.411945
   32       -3.359498
   33       -3.171057
   34       -2.251558
   35       -2.249889
   36       -1.787813
   37       -1.770887
   38       -1.751817
   39       -1.750849
   40       -1.735299
   41       -1.733016
   42       -1.713941
   43       -1.696806
   44       -1.129018
   45        0.077105
   46        0.094640
   47        0.099664
   48        0.115400
   49        0.237442