diamond                                 
           1
     5.232590    0.000000    0.000000
     2.616295    4.531556    0.000000
     2.616295    1.510519    4.272392
   C 
  16
Direct configuration=     1
   0.00191110  0.00000000  0.00000000
   0.50000000  0.00000000  0.00000000
   0.00000000  0.50000000  0.00000000
   0.50000000  0.50000000  0.00000000
   0.00000000  0.00000000  0.50000000
   0.50000000  0.00000000  0.50000000
   0.00000000  0.50000000  0.50000000
   0.50000000  0.50000000  0.50000000
   0.12500000  0.12500000  0.12499999
   0.62500000  0.12500000  0.12499999
   0.12500000  0.62500000  0.12499999
   0.62500000  0.62500000  0.12499999
   0.12500000  0.12500000  0.62499999
   0.62500000  0.12500000  0.62499999
   0.12500000  0.62500000  0.62499999
   0.62500000  0.62500000  0.62499999
