 running on    6 total cores
 distrk:  each k-point on    6 cores,    1 groups
 distr:  one band on    1 cores,    6 groups
 using from now: INCAR     
 vasp.5.3.5 31Mar14 (build Nov 02 2014 15:17:37) complex                        
  
 POSCAR found :  1 types and      32 ions
 scaLAPACK will be used

 ----------------------------------------------------------------------------- 
|                                                                             |
|           W    W    AA    RRRRR   N    N  II  N    N   GGGG   !!!           |
|           W    W   A  A   R    R  NN   N  II  NN   N  G    G  !!!           |
|           W    W  A    A  R    R  N N  N  II  N N  N  G       !!!           |
|           W WW W  AAAAAA  RRRRR   N  N N  II  N  N N  G  GGG   !            |
|           WW  WW  A    A  R   R   N   NN  II  N   NN  G    G                |
|           W    W  A    A  R    R  N    N  II  N    N   GGGG   !!!           |
|                                                                             |
|      For optimal performance we recommend to set                            |
|        NCORE= 4 - approx SQRT( number of cores)                             |
|      NCORE specifies how many cores store one orbital (NPAR=cpu/NCORE).     |
|      This setting can  greatly improve the performance of VASP for DFT.     |
|      The default, NPAR=number of cores might be grossly inefficient         |
|      on modern multi-core architectures or massively parallel machines.     |
|      Do your own testing !!!!                                               |
|      Unfortunately you need to use the default for GW and RPA calculations. |
|      (for HF NCORE is supported but not extensively tested yet)             |
|                                                                             |
 ----------------------------------------------------------------------------- 


 ----------------------------------------------------------------------------- 
|                                                                             |
|  ADVICE TO THIS USER RUNNING 'VASP/VAMP'   (HEAR YOUR MASTER'S VOICE ...):  |
|                                                                             |
|      You have a (more or less) 'large supercell' and for larger cells       |
|      it might be more efficient to use real space projection operators      |
|      So try LREAL= Auto  in the INCAR   file.                               |
|      Mind: If you want to do a very accurate calculations keep the          |
|      reciprocal projection scheme          (i.e. LREAL=.FALSE.)             |
|                                                                             |
 ----------------------------------------------------------------------------- 

 LDA part: xc-table for Pade appr. of Perdew
 POSCAR, INCAR and KPOINTS ok, starting setup
 FFT: planning ...
 WAVECAR not read
 WARNING: random wavefunctions but no delay for mixing, default for NELMDL
 entering main loop
       N       E                     dE             d eps       ncg     rms          rms(c)
DAV:   1     0.688109036549E+03    0.68811E+03   -0.84875E+04 12768   0.202E+03
DAV:   2    -0.256565656126E+03   -0.94467E+03   -0.91017E+03 15792   0.341E+02
DAV:   3    -0.312047298734E+03   -0.55482E+02   -0.54870E+02 15552   0.808E+01
DAV:   4    -0.313118681127E+03   -0.10714E+01   -0.10690E+01 15864   0.121E+01
DAV:   5    -0.313149242132E+03   -0.30561E-01   -0.30549E-01 16116   0.193E+00    0.221E+01
DAV:   6    -0.298924798872E+03    0.14224E+02   -0.14674E+01 14592   0.107E+01    0.116E+01
DAV:   7    -0.294457201096E+03    0.44676E+01   -0.15216E+01 14556   0.109E+01    0.192E+00
DAV:   8    -0.294517871714E+03   -0.60671E-01   -0.59610E-01 14856   0.207E+00    0.710E-01
DAV:   9    -0.294512954951E+03    0.49168E-02   -0.45103E-02 15012   0.755E-01    0.326E-01
DAV:  10    -0.294511222472E+03    0.17325E-02   -0.43436E-02 18708   0.469E-01    0.132E-01
DAV:  11    -0.294511920553E+03   -0.69808E-03   -0.11367E-02 14556   0.257E-01    0.984E-02
DAV:  12    -0.294511839467E+03    0.81086E-04   -0.88945E-04 14988   0.938E-02    0.765E-02
DAV:  13    -0.294511944870E+03   -0.10540E-03   -0.26958E-03 16356   0.882E-02    0.800E-02
DAV:  14    -0.294512257312E+03   -0.31244E-03   -0.21476E-03 17424   0.967E-02    0.916E-02
DAV:  15    -0.294512146448E+03    0.11086E-03   -0.15217E-04 14688   0.417E-02    0.855E-02
DAV:  16    -0.294511934972E+03    0.21148E-03   -0.35481E-04 21816   0.577E-02    0.538E-02
DAV:  17    -0.294511901940E+03    0.33032E-04   -0.11521E-04 15072   0.258E-02    0.296E-02
DAV:  18    -0.294511897051E+03    0.48892E-05   -0.10861E-04 17040   0.142E-02    0.352E-02
DAV:  19    -0.294511917656E+03   -0.20605E-04   -0.10454E-04 20784   0.165E-02    0.458E-02
DAV:  20    -0.294511892345E+03    0.25311E-04   -0.62656E-05 17028   0.139E-02    0.188E-02
DAV:  21    -0.294511898209E+03   -0.58638E-05   -0.14805E-04 18708   0.101E-02    0.325E-02
DAV:  22    -0.294511892973E+03    0.52363E-05   -0.16269E-05 15696   0.649E-03    0.232E-02
DAV:  23    -0.294511899341E+03   -0.63686E-05   -0.26496E-05 17664   0.633E-03    0.335E-02
DAV:  24    -0.294511892770E+03    0.65709E-05   -0.10124E-05 15336   0.462E-03    0.220E-02
DAV:  25    -0.294511891232E+03    0.15382E-05   -0.35221E-05 19956   0.495E-03    0.135E-02
DAV:  26    -0.294511890792E+03    0.43979E-06   -0.52133E-06 14544   0.286E-03    0.136E-03
DAV:  27    -0.294511890868E+03   -0.76141E-07   -0.10794E-06 15156   0.109E-03    0.624E-03
DAV:  28    -0.294511890828E+03    0.40491E-07   -0.64334E-08 11064   0.537E-04    0.533E-03
DAV:  29    -0.294511890746E+03    0.81492E-07   -0.53639E-07 13728   0.695E-04    0.109E-03
DAV:  30    -0.294511890807E+03   -0.60697E-07   -0.44736E-07  9936   0.511E-04    0.489E-03
DAV:  31    -0.294511890798E+03    0.87621E-08   -0.21317E-08 11724   0.393E-04
   1 F= -.29976961E+03 E0= -.29976961E+03  d E =0.000000E+00
