   2   2   0   0
  0.1053187E+03  0.2466437E-09  0.2466437E-09  0.4000000E-08  0.5000000E-15
  1.000000000000000E-004
  CAR 
 graphite                                
     11.39762554    -25.01321084  301     -3.50088985      1.00000000
    -25.013  0.0000E+00  0.0000E+00
    -24.892  0.0000E+00  0.0000E+00
    -24.770  0.0000E+00  0.0000E+00
    -24.649  0.0000E+00  0.0000E+00
    -24.528  0.0000E+00  0.0000E+00
    -24.406  0.0000E+00  0.0000E+00
    -24.285  0.0000E+00  0.0000E+00
    -24.164  0.0000E+00  0.0000E+00
    -24.042  0.0000E+00  0.0000E+00
    -23.921  0.0000E+00  0.0000E+00
    -23.800  0.0000E+00  0.0000E+00
    -23.678  0.0000E+00  0.0000E+00
    -23.557  0.0000E+00  0.0000E+00
    -23.435  0.0000E+00  0.0000E+00
    -23.314  0.0000E+00  0.0000E+00
    -23.193  0.0000E+00  0.0000E+00
    -23.071  0.0000E+00  0.0000E+00
    -22.950  0.1960E+00  0.6202E-02
    -22.829  0.2601E+00  0.4698E-01
    -22.707  0.2917E+00  0.8046E-01
    -22.586  0.3233E+00  0.1178E+00
    -22.464  0.3217E+00  0.1580E+00
    -22.343  0.2898E+00  0.1948E+00
    -22.222  0.3011E+00  0.2306E+00
    -22.100  0.3124E+00  0.2678E+00
    -21.979  0.3237E+00  0.3064E+00
    -21.858  0.3089E+00  0.3461E+00
    -21.736  0.3070E+00  0.3834E+00
    -21.615  0.3051E+00  0.4206E+00
    -21.493  0.3067E+00  0.4576E+00
    -21.372  0.3126E+00  0.4952E+00
    -21.251  0.3186E+00  0.5335E+00
    -21.129  0.3245E+00  0.5725E+00
    -21.008  0.3212E+00  0.6120E+00
    -20.887  0.3105E+00  0.6502E+00
    -20.765  0.3121E+00  0.6880E+00
    -20.644  0.3138E+00  0.7260E+00
    -20.523  0.3155E+00  0.7641E+00
    -20.401  0.3176E+00  0.8025E+00
    -20.280  0.3216E+00  0.8413E+00
    -20.158  0.3255E+00  0.8806E+00
    -20.037  0.3294E+00  0.9203E+00
    -19.916  0.3242E+00  0.9602E+00
    -19.794  0.3232E+00  0.9995E+00
    -19.673  0.3222E+00  0.1039E+01
    -19.552  0.3243E+00  0.1078E+01
    -19.430  0.3272E+00  0.1117E+01
    -19.309  0.3302E+00  0.1157E+01
    -19.187  0.3332E+00  0.1198E+01
    -19.066  0.3362E+00  0.1238E+01
    -18.945  0.3421E+00  0.1279E+01
    -18.823  0.3491E+00  0.1321E+01
    -18.702  0.3554E+00  0.1364E+01
    -18.581  0.3592E+00  0.1407E+01
    -18.459  0.3752E+00  0.1452E+01
    -18.338  0.3912E+00  0.1498E+01
    -18.217  0.4073E+00  0.1547E+01
    -18.095  0.6474E+00  0.1617E+01
    -17.974  0.5133E+00  0.1687E+01
    -17.852  0.3791E+00  0.1741E+01
    -17.731  0.2810E+00  0.1780E+01
    -17.610  0.2525E+00  0.1812E+01
    -17.488  0.2239E+00  0.1841E+01
    -17.367  0.1954E+00  0.1867E+01
    -17.246  0.1299E+00  0.1925E+01
    -17.124  0.1162E+00  0.1940E+01
    -17.003  0.1026E+00  0.1953E+01
    -16.881  0.8891E-01  0.1965E+01
    -16.760  0.7525E-01  0.1975E+01
    -16.639  0.9407E-01  0.1985E+01
    -16.517  0.1237E+00  0.1998E+01
    -16.396  0.1534E+00  0.2015E+01
    -16.275  0.2892E+00  0.2038E+01
    -16.153  0.5457E+00  0.2089E+01
    -16.032  0.3200E+00  0.2155E+01
    -15.911  0.3907E+00  0.2198E+01
    -15.789  0.4614E+00  0.2250E+01
    -15.668  0.5321E+00  0.2310E+01
    -15.546  0.6028E+00  0.2379E+01
    -15.425  0.3655E+00  0.2450E+01
    -15.304  0.3540E+00  0.2494E+01
    -15.182  0.3435E+00  0.2536E+01
    -15.061  0.3348E+00  0.2577E+01
    -14.940  0.3261E+00  0.2617E+01
    -14.818  0.3167E+00  0.2656E+01
    -14.697  0.3070E+00  0.2694E+01
    -14.575  0.2974E+00  0.2731E+01
    -14.454  0.2877E+00  0.2766E+01
    -14.333  0.2780E+00  0.2801E+01
    -14.211  0.2683E+00  0.2834E+01
    -14.090  0.2584E+00  0.2866E+01
    -13.969  0.2687E+00  0.2897E+01
    -13.847  0.2922E+00  0.2931E+01
    -13.726  0.3157E+00  0.2968E+01
    -13.604  0.3392E+00  0.3008E+01
    -13.483  0.3628E+00  0.3050E+01
    -13.362  0.3863E+00  0.3096E+01
    -13.240  0.4098E+00  0.3144E+01
    -13.119  0.4156E+00  0.3195E+01
    -12.998  0.4149E+00  0.3245E+01
    -12.876  0.3826E+00  0.3292E+01
    -12.755  0.3824E+00  0.3338E+01
    -12.634  0.3823E+00  0.3385E+01
    -12.512  0.3821E+00  0.3431E+01
    -12.391  0.3858E+00  0.3478E+01
    -12.269  0.3939E+00  0.3525E+01
    -12.148  0.4021E+00  0.3573E+01
    -12.027  0.4103E+00  0.3623E+01
    -11.905  0.4152E+00  0.3673E+01
    -11.784  0.4194E+00  0.3723E+01
    -11.663  0.4320E+00  0.3775E+01
    -11.541  0.4520E+00  0.3828E+01
    -11.420  0.4563E+00  0.3884E+01
    -11.298  0.4599E+00  0.3939E+01
    -11.177  0.4666E+00  0.3995E+01
    -11.056  0.6062E+00  0.4056E+01
    -10.934  0.9004E+00  0.4147E+01
    -10.813  0.7673E+00  0.4240E+01
    -10.692  0.8205E+00  0.4336E+01
    -10.570  0.8738E+00  0.4439E+01
    -10.449  0.9266E+00  0.4548E+01
    -10.328  0.1113E+01  0.4673E+01
    -10.206  0.1075E+01  0.4805E+01
    -10.085  0.1037E+01  0.4934E+01
     -9.963  0.9563E+00  0.5055E+01
     -9.842  0.1041E+01  0.5161E+01
     -9.721  0.8694E+00  0.5294E+01
     -9.599  0.9081E+00  0.5402E+01
     -9.478  0.9469E+00  0.5514E+01
     -9.357  0.1157E+01  0.5655E+01
     -9.235  0.2248E+00  0.5721E+01
     -9.114  0.1966E+00  0.5747E+01
     -8.992  0.1684E+00  0.5769E+01
     -8.871  0.1401E+00  0.5788E+01
     -8.750  0.5324E+00  0.5820E+01
     -8.628  0.1334E+01  0.5924E+01
     -8.507  0.8551E+00  0.6115E+01
     -8.386  0.7776E+00  0.6214E+01
     -8.264  0.7002E+00  0.6304E+01
     -8.143  0.6246E+00  0.6384E+01
     -8.021  0.6031E+00  0.6458E+01
     -7.900  0.5919E+00  0.6531E+01
     -7.779  0.5808E+00  0.6602E+01
     -7.657  0.5726E+00  0.6672E+01
     -7.536  0.5994E+00  0.6743E+01
     -7.415  0.5841E+00  0.6815E+01
     -7.293  0.5689E+00  0.6885E+01
     -7.172  0.6058E+00  0.6954E+01
     -7.051  0.5737E+00  0.7025E+01
     -6.929  0.5416E+00  0.7093E+01
     -6.808  0.5904E+00  0.7163E+01
     -6.686  0.4928E+00  0.7228E+01
     -6.565  0.4033E+00  0.7283E+01
     -6.444  0.3857E+00  0.7329E+01
     -6.322  0.4033E+00  0.7377E+01
     -6.201  0.4226E+00  0.7427E+01
     -6.080  0.4692E+00  0.7481E+01
     -5.958  0.1350E+01  0.7549E+01
     -5.837  0.4034E+00  0.7644E+01
     -5.715  0.3622E+00  0.7691E+01
     -5.594  0.3210E+00  0.7732E+01
     -5.473  0.2798E+00  0.7769E+01
     -5.351  0.2386E+00  0.7800E+01
     -5.230  0.2130E+00  0.7827E+01
     -5.109  0.2296E+00  0.7854E+01
     -4.987  0.2461E+00  0.7883E+01
     -4.866  0.2626E+00  0.7914E+01
     -4.745  0.1133E+00  0.7930E+01
     -4.623  0.1022E+00  0.7943E+01
     -4.502  0.9113E-01  0.7954E+01
     -4.380  0.8007E-01  0.7965E+01
     -4.259  0.6901E-01  0.7974E+01
     -4.138  0.5794E-01  0.7982E+01
     -4.016  0.4688E-01  0.7988E+01
     -3.895  0.3582E-01  0.7993E+01
     -3.774  0.2475E-01  0.7997E+01
     -3.652  0.1369E-01  0.7999E+01
     -3.531  0.2627E-02  0.8000E+01
     -3.409  0.8855E-02  0.8000E+01
     -3.288  0.2092E-01  0.8002E+01
     -3.167  0.3299E-01  0.8005E+01
     -3.045  0.4505E-01  0.8010E+01
     -2.924  0.5712E-01  0.8016E+01
     -2.803  0.6919E-01  0.8024E+01
     -2.681  0.8125E-01  0.8033E+01
     -2.560  0.9332E-01  0.8044E+01
     -2.438  0.1054E+00  0.8056E+01
     -2.317  0.1175E+00  0.8069E+01
     -2.196  0.5714E+00  0.8088E+01
     -2.074  0.2650E+00  0.8139E+01
     -1.953  0.2538E+00  0.8166E+01
     -1.832  0.3225E+00  0.8201E+01
     -1.710  0.5742E+00  0.8255E+01
     -1.589  0.8436E+00  0.8341E+01
     -1.468  0.4509E+00  0.8415E+01
     -1.346  0.4200E+00  0.8468E+01
     -1.225  0.3891E+00  0.8517E+01
     -1.103  0.3582E+00  0.8563E+01
     -0.982  0.3274E+00  0.8604E+01
     -0.861  0.3045E+00  0.8643E+01
     -0.739  0.2816E+00  0.8678E+01
     -0.618  0.2706E+00  0.8712E+01
     -0.497  0.2651E+00  0.8744E+01
     -0.375  0.2597E+00  0.8776E+01
     -0.254  0.2542E+00  0.8807E+01
     -0.132  0.4077E+00  0.8845E+01
     -0.011  0.6063E+00  0.8907E+01
      0.110  0.4409E+00  0.8961E+01
      0.232  0.4524E+00  0.9015E+01
      0.353  0.4646E+00  0.9071E+01
      0.474  0.4662E+00  0.9127E+01
      0.596  0.5270E+00  0.9185E+01
      0.717  0.7109E+00  0.9259E+01
      0.838  0.7240E+00  0.9345E+01
      0.960  0.1047E+01  0.9449E+01
      1.081  0.1158E+01  0.9582E+01
      1.203  0.1086E+01  0.9717E+01
      1.324  0.1107E+01  0.9850E+01
      1.445  0.1123E+01  0.9984E+01
      1.567  0.1182E+01  0.1012E+02
      1.688  0.1205E+01  0.1027E+02
      1.809  0.1218E+01  0.1042E+02
      1.931  0.1172E+01  0.1056E+02
      2.052  0.1127E+01  0.1070E+02
      2.174  0.1131E+01  0.1084E+02
      2.295  0.1155E+01  0.1098E+02
      2.416  0.1173E+01  0.1112E+02
      2.538  0.1001E+01  0.1124E+02
      2.659  0.9676E+00  0.1136E+02
      2.780  0.8913E+00  0.1147E+02
      2.902  0.8282E+00  0.1158E+02
      3.023  0.8159E+00  0.1168E+02
      3.145  0.8048E+00  0.1177E+02
      3.266  0.7885E+00  0.1187E+02
      3.387  0.7778E+00  0.1197E+02
      3.509  0.7890E+00  0.1206E+02
      3.630  0.8067E+00  0.1216E+02
      3.751  0.8231E+00  0.1226E+02
      3.873  0.8664E+00  0.1236E+02
      3.994  0.1078E+01  0.1248E+02
      4.115  0.1076E+01  0.1261E+02
      4.237  0.1076E+01  0.1274E+02
      4.358  0.1080E+01  0.1287E+02
      4.480  0.1019E+01  0.1300E+02
      4.601  0.9202E+00  0.1312E+02
      4.722  0.8437E+00  0.1322E+02
      4.844  0.8096E+00  0.1332E+02
      4.965  0.7934E+00  0.1342E+02
      5.086  0.7771E+00  0.1352E+02
      5.208  0.7519E+00  0.1361E+02
      5.329  0.7337E+00  0.1370E+02
      5.451  0.7265E+00  0.1379E+02
      5.572  0.7193E+00  0.1388E+02
      5.693  0.7122E+00  0.1396E+02
      5.815  0.7118E+00  0.1405E+02
      5.936  0.7151E+00  0.1413E+02
      6.057  0.7149E+00  0.1422E+02
      6.179  0.7150E+00  0.1431E+02
      6.300  0.7183E+00  0.1440E+02
      6.421  0.7248E+00  0.1448E+02
      6.543  0.7433E+00  0.1457E+02
      6.664  0.8816E+00  0.1467E+02
      6.786  0.8524E+00  0.1477E+02
      6.907  0.8240E+00  0.1488E+02
      7.028  0.7984E+00  0.1497E+02
      7.150  0.8434E+00  0.1507E+02
      7.271  0.1120E+01  0.1519E+02
      7.392  0.5890E+00  0.1533E+02
      7.514  0.8218E+00  0.1543E+02
      7.635  0.6396E+00  0.1552E+02
      7.757  0.4743E+00  0.1558E+02
      7.878  0.6716E+00  0.1565E+02
      7.999  0.4524E+00  0.1572E+02
      8.121  0.2440E+00  0.1576E+02
      8.242  0.2270E+00  0.1579E+02
      8.363  0.2348E+00  0.1582E+02
      8.485  0.2426E+00  0.1585E+02
      8.606  0.2503E+00  0.1588E+02
      8.727  0.2748E+00  0.1591E+02
      8.849  0.2248E+00  0.1594E+02
      8.970  0.1748E+00  0.1596E+02
      9.092  0.1248E+00  0.1598E+02
      9.213  0.7480E-01  0.1599E+02
      9.334  0.2481E-01  0.1600E+02
      9.456  0.0000E+00  0.1600E+02
      9.577  0.0000E+00  0.1600E+02
      9.698  0.0000E+00  0.1600E+02
      9.820  0.0000E+00  0.1600E+02
      9.941  0.0000E+00  0.1600E+02
     10.063  0.0000E+00  0.1600E+02
     10.184  0.0000E+00  0.1600E+02
     10.305  0.0000E+00  0.1600E+02
     10.427  0.0000E+00  0.1600E+02
     10.548  0.0000E+00  0.1600E+02
     10.669  0.0000E+00  0.1600E+02
     10.791  0.0000E+00  0.1600E+02
     10.912  0.0000E+00  0.1600E+02
     11.034  0.0000E+00  0.1600E+02
     11.155  0.0000E+00  0.1600E+02
     11.276  0.0000E+00  0.1600E+02
     11.398  0.0000E+00  0.1600E+02
