    2    2    1    1
  0.1053187E+03  0.2466437E-09  0.2466437E-09  0.4000000E-08  0.5000000E-15
  1.000000000000000E-004
  CAR 
 graphite                                
      8    215      8
 
  0.0000000E+00  0.0000000E+00  0.0000000E+00  0.8680556E-03
    1      -23.013209
    2      -11.116238
    3       -6.543746
    4       -6.519506
    5       -0.227110
    6        0.542731
    7        0.766295
    8        0.917005
 
  0.8333333E-01  0.6938894E-17  0.0000000E+00  0.3472222E-02
    1      -22.849106
    2      -10.920364
    3       -7.177290
    4       -6.875968
    5       -0.004340
    6        0.768861
    7        0.995390
    8        1.145629
 
  0.1666667E+00  0.1387779E-16  0.0000000E+00  0.3472222E-02
    1      -22.358574
    2      -10.338029
    3       -8.816311
    4       -7.668797
    5        0.663914
    6        1.446013
    7        1.682674
    8        1.831337
 
  0.2500000E+00  0.0000000E+00  0.0000000E+00  0.3472222E-02
    1      -21.547436
    2      -10.916301
    3       -9.388433
    4       -8.548528
    5        1.775441
    6        2.560050
    7        2.828125
    8        2.971327
 
  0.3333333E+00  0.2775558E-16  0.0000000E+00  0.3472222E-02
    1      -20.427933
    2      -13.121006
    3       -9.281721
    4       -8.121850
    5        1.409236
    6        3.317300
    7        4.164801
    8        4.205409
 
  0.4166667E+00  0.5551115E-16  0.0000000E+00  0.3472222E-02
    1      -19.031650
    2      -15.221999
    3       -9.754443
    4       -6.701282
    5       -0.722323
    6        3.943822
    7        5.327300
    8        6.167082
 
  0.5000000E+00  0.0000000E+00  0.0000000E+00  0.1736111E-02
    1      -17.771301
    2      -16.725111
    3       -9.916711
    4       -5.858255
    5       -1.818016
    6        3.864107
    7        7.627477
    8        7.779561
 
  0.8333333E-01  0.8333333E-01  0.0000000E+00  0.1736111E-02
    1      -22.521553
    2      -10.530923
    3       -8.208415
    4       -7.557108
    5        0.441695
    6        1.220915
    7        1.453891
    8        1.603122
 
  0.1666667E+00  0.8333333E-01  0.0000000E+00  0.3472222E-02
    1      -21.870491
    2       -9.922454
    3       -9.763559
    4       -8.552525
    5        1.332801
    6        2.121550
    7        2.370582
    8        2.517376
 
  0.2500000E+00  0.8333333E-01  0.0000000E+00  0.3472222E-02
    1      -20.904767
    2      -11.998474
    3       -9.437542
    4       -8.648838
    5        2.418776
    6        2.664633
    7        3.489248
    8        3.745414
 
  0.3333333E+00  0.8333333E-01  0.0000000E+00  0.3472222E-02
    1      -19.643458
    2      -14.122921
    3      -10.072252
    4       -7.271086
    5        0.221955
    6        4.404150
    7        4.807008
    8        5.264581
 
  0.4166667E+00  0.8333333E-01  0.0000000E+00  0.3472222E-02
    1      -18.164420
    2      -16.064018
    3      -10.401049
    4       -5.964263
    5       -1.543461
    6        4.602920
    7        6.625582
    8        7.439842
 
  0.5000000E+00  0.8333333E-01  0.0000000E+00  0.3472222E-02
    1      -18.166545
    2      -16.061663
    3      -10.401611
    4       -5.965236
    5       -1.542672
    6        4.603888
    7        6.621984
    8        7.436971
 
 -0.4166667E+00  0.8333333E-01  0.0000000E+00  0.3472222E-02
    1      -19.645505
    2      -14.120400
    3      -10.073663
    4       -7.272651
    5        0.222816
    6        4.401876
    7        4.809334
    8        5.261973
 
 -0.3333333E+00  0.8333333E-01  0.0000000E+00  0.3472222E-02
    1      -20.906409
    2      -11.997091
    3       -9.438649
    4       -8.650276
    5        2.418591
    6        2.662507
    7        3.487140
    8        3.743253
 
 -0.2500000E+00  0.8333333E-01  0.0000000E+00  0.3472222E-02
    1      -21.871680
    2       -9.925500
    3       -9.764664
    4       -8.549702
    5        1.331294
    6        2.120067
    7        2.369039
    8        2.515842
 
 -0.1666667E+00  0.8333333E-01  0.0000000E+00  0.3472222E-02
    1      -22.522271
    2      -10.531612
    3       -8.222862
    4       -7.542812
    5        0.440799
    6        1.220015
    7        1.452965
    8        1.602200
 
 -0.8333333E-01  0.8333333E-01  0.0000000E+00  0.1736111E-02
    1      -22.849346
    2      -10.920597
    3       -7.195440
    4       -6.857746
    5       -0.004638
    6        0.768560
    7        0.995081
    8        1.145322
 
  0.1666667E+00  0.1666667E+00  0.0000000E+00  0.1736111E-02
    1      -21.064797
    2      -11.254673
    3       -9.914496
    4       -8.827179
    5        2.445274
    6        2.873723
    7        3.241857
    8        3.516679
 
  0.2500000E+00  0.1666667E+00  0.0000000E+00  0.3472222E-02
    1      -19.955760
    2      -12.984990
    3      -10.969869
    4       -7.575519
    5        0.928187
    6        3.993284
    7        4.790041
    8        5.120895
 
  0.3333333E+00  0.1666667E+00  0.0000000E+00  0.3472222E-02
    1      -18.579082
    2      -14.897180
    3      -11.545827
    4       -6.150922
    5       -0.981411
    6        5.947716
    7        6.521591
    8        6.690885
 
  0.4166667E+00  0.1666667E+00  0.0000000E+00  0.3472222E-02
    1      -17.349681
    2      -16.327013
    3      -11.731239
    4       -5.261201
    5       -2.046699
    6        6.413105
    7        8.112264
    8        8.186887
 
  0.5000000E+00  0.1666667E+00  0.0000000E+00  0.3472222E-02
    1      -18.583359
    2      -14.892756
    3      -11.546585
    4       -6.153770
    5       -0.979918
    6        5.941607
    7        6.524208
    8        6.685922
 
 -0.4166667E+00  0.1666667E+00  0.0000000E+00  0.3472222E-02
    1      -19.959414
    2      -12.983517
    3      -10.968761
    4       -7.578550
    5        0.927944
    6        3.988342
    7        4.785465
    8        5.115955
 
 -0.3333333E+00  0.1666667E+00  0.0000000E+00  0.3472222E-02
    1      -21.067604
    2      -11.262942
    3       -9.904592
    4       -8.829714
    5        2.441622
    6        2.870622
    7        3.238331
    8        3.512975
 
 -0.2500000E+00  0.1666667E+00  0.0000000E+00  0.3472222E-02
    1      -21.872383
    2       -9.938886
    3       -9.765346
    4       -8.534827
    5        1.330398
    6        2.119154
    7        2.368113
    8        2.514917
 
 -0.1666667E+00  0.1666667E+00  0.0000000E+00  0.1736111E-02
    1      -22.359524
    2      -10.338946
    3       -8.834553
    4       -7.649460
    5        0.662720
    6        1.444810
    7        1.681440
    8        1.830106
 
  0.2500000E+00  0.2500000E+00  0.0000000E+00  0.1736111E-02
    1      -18.726366
    2      -14.022765
    3      -12.452881
    4       -6.234507
    5       -0.685540
    6        5.741182
    7        6.406173
    8        6.954378
 
  0.3333333E+00  0.2500000E+00  0.0000000E+00  0.3472222E-02
    1      -17.304358
    2      -15.444969
    3      -13.159879
    4       -4.851489
    5       -2.204109
    6        7.380840
    7        7.832356
    8        8.685842
 
  0.4166667E+00  0.2500000E+00  0.0000000E+00  0.3472222E-02
    1      -17.310053
    2      -15.440768
    3      -13.158406
    4       -4.854608
    5       -2.202553
    6        7.380315
    7        7.821239
    8        8.687081
 
  0.5000000E+00  0.2500000E+00  0.0000000E+00  0.3472222E-02
    1      -18.732148
    2      -14.025841
    3      -12.444045
    4       -6.238958
    5       -0.685974
    6        5.732697
    7        6.400234
    8        6.946041
 
 -0.4166667E+00  0.2500000E+00  0.0000000E+00  0.3472222E-02
    1      -19.960498
    2      -12.995702
    3      -10.954236
    4       -7.579623
    5        0.924096
    6        3.986872
    7        4.784181
    8        5.114412
 
 -0.3333333E+00  0.2500000E+00  0.0000000E+00  0.3472222E-02
    1      -20.908228
    2      -12.012982
    3       -9.418829
    4       -8.652030
    5        2.411659
    6        2.660161
    7        3.484893
    8        3.740786
 
 -0.2500000E+00  0.2500000E+00  0.0000000E+00  0.1736111E-02
    1      -21.549534
    2      -10.933236
    3       -9.390435
    4       -8.528131
    5        1.772778
    6        2.557253
    7        2.825347
    8        2.968529
 
  0.3333333E+00  0.3333333E+00  0.0000000E+00  0.1736111E-02
    1      -16.091804
    2      -16.090838
    3      -14.048051
    4       -3.501995
    5       -3.498513
    6        7.121790
    7        9.379366
    8        9.397625
 
  0.4166667E+00  0.3333333E+00  0.0000000E+00  0.3472222E-02
    1      -17.310887
    2      -15.451546
    3      -13.146027
    4       -4.856475
    5       -2.204569
    6        7.382947
    7        7.819806
    8        8.726904
 
  0.5000000E+00  0.3333333E+00  0.0000000E+00  0.3472222E-02
    1      -18.585629
    2      -14.906617
    3      -11.528324
    4       -6.156293
    5       -0.985842
    6        5.939270
    7        6.563424
    8        6.683776
 
 -0.4166667E+00  0.3333333E+00  0.0000000E+00  0.3472222E-02
    1      -19.648710
    2      -14.135120
    3      -10.052480
    4       -7.275767
    5        0.214284
    6        4.400715
    7        4.843558
    8        5.257833
 
 -0.3333333E+00  0.3333333E+00  0.0000000E+00  0.1736111E-02
    1      -20.431531
    2      -13.135860
    3       -9.260425
    4       -8.125224
    5        1.400197
    6        3.313269
    7        4.160158
    8        4.241005
 
  0.4166667E+00  0.4166667E+00  0.0000000E+00  0.1736111E-02
    1      -17.352704
    2      -16.340187
    3      -11.712804
    4       -5.265939
    5       -2.051956
    6        6.455682
    7        8.115807
    8        8.174515
 
  0.5000000E+00  0.4166667E+00  0.0000000E+00  0.3472222E-02
    1      -18.170554
    2      -16.075164
    3      -10.380334
    4       -5.969838
    5       -1.551127
    6        4.643787
    7        6.614704
    8        7.431337
 
 -0.4166667E+00  0.4166667E+00  0.0000000E+00  0.1736111E-02
    1      -19.036757
    2      -15.234809
    3       -9.732556
    4       -6.706052
    5       -0.731479
    6        3.982518
    7        5.319870
    8        6.160107
 
  0.5000000E+00  0.5000000E+00  0.0000000E+00  0.8680556E-03
    1      -17.775093
    2      -16.739021
    3       -9.894622
    4       -5.863738
    5       -1.826898
    6        3.903653
    7        7.614346
    8        7.770784
 
  0.0000000E+00  0.0000000E+00  0.1250000E+00  0.1736111E-02
    1      -23.013210
    2      -11.116239
    3       -6.543760
    4       -6.519512
    5       -0.227110
    6        0.542647
    7        0.768222
    8        0.908484
 
  0.8333333E-01  0.6938894E-17  0.1250000E+00  0.6944444E-02
    1      -22.849106
    2      -10.920367
    3       -7.177289
    4       -6.875971
    5       -0.004340
    6        0.768781
    7        0.997297
    8        1.137169
 
  0.1666667E+00  0.1387779E-16  0.1250000E+00  0.6944444E-02
    1      -22.358574
    2      -10.338031
    3       -8.816319
    4       -7.668799
    5        0.663914
    6        1.445945
    7        1.684519
    8        1.823096
 
  0.2500000E+00  0.0000000E+00  0.1250000E+00  0.6944444E-02
    1      -21.547435
    2      -10.916299
    3       -9.388431
    4       -8.548526
    5        1.775441
    6        2.560009
    7        2.829768
    8        2.964020
 
  0.3333333E+00  0.2775558E-16  0.1250000E+00  0.6944444E-02
    1      -20.427932
    2      -13.121006
    3       -9.281722
    4       -8.121846
    5        1.409239
    6        3.317300
    7        4.164759
    8        4.205413
 
  0.4166667E+00  0.5551115E-16  0.1250000E+00  0.6944444E-02
    1      -19.031651
    2      -15.222001
    3       -9.754450
    4       -6.701283
    5       -0.722324
    6        3.943822
    7        5.327300
    8        6.167065
 
  0.5000000E+00  0.0000000E+00  0.1250000E+00  0.3472222E-02
    1      -17.771301
    2      -16.725112
    3       -9.916716
    4       -5.858258
    5       -1.818020
    6        3.864104
    7        7.627476
    8        7.779561
 
  0.8333333E-01  0.8333333E-01  0.1250000E+00  0.3472222E-02
    1      -22.521553
    2      -10.530925
    3       -8.208419
    4       -7.557113
    5        0.441695
    6        1.220843
    7        1.455758
    8        1.594801
 
  0.1666667E+00  0.8333333E-01  0.1250000E+00  0.6944444E-02
    1      -21.870491
    2       -9.922453
    3       -9.763558
    4       -8.552516
    5        1.332801
    6        2.121494
    7        2.372353
    8        2.509417
 
  0.2500000E+00  0.8333333E-01  0.1250000E+00  0.6944444E-02
    1      -20.904766
    2      -11.998475
    3       -9.437541
    4       -8.648835
    5        2.418781
    6        2.664633
    7        3.489200
    8        3.747143
 
  0.3333333E+00  0.8333333E-01  0.1250000E+00  0.6944444E-02
    1      -19.643457
    2      -14.122920
    3      -10.072253
    4       -7.271082
    5        0.221964
    6        4.404150
    7        4.807010
    8        5.264560
 
  0.4166667E+00  0.8333333E-01  0.1250000E+00  0.6944444E-02
    1      -18.164420
    2      -16.064019
    3      -10.401047
    4       -5.964262
    5       -1.543456
    6        4.602920
    7        6.625582
    8        7.439838
 
  0.5000000E+00  0.8333333E-01  0.1250000E+00  0.6944444E-02
    1      -18.166544
    2      -16.061663
    3      -10.401607
    4       -5.965235
    5       -1.542664
    6        4.603891
    7        6.621984
    8        7.436967
 
 -0.4166667E+00  0.8333333E-01  0.1250000E+00  0.6944444E-02
    1      -19.645505
    2      -14.120401
    3      -10.073663
    4       -7.272651
    5        0.222819
    6        4.401876
    7        4.809336
    8        5.261952
 
 -0.3333333E+00  0.8333333E-01  0.1250000E+00  0.6944444E-02
    1      -20.906409
    2      -11.997093
    3       -9.438651
    4       -8.650275
    5        2.418593
    6        2.662507
    7        3.487091
    8        3.744982
 
 -0.2500000E+00  0.8333333E-01  0.1250000E+00  0.6944444E-02
    1      -21.871680
    2       -9.925497
    3       -9.764664
    4       -8.549701
    5        1.331294
    6        2.120011
    7        2.370810
    8        2.507882
 
 -0.1666667E+00  0.8333333E-01  0.1250000E+00  0.6944444E-02
    1      -22.522271
    2      -10.531611
    3       -8.222866
    4       -7.542814
    5        0.440798
    6        1.219943
    7        1.454832
    8        1.593879
 
 -0.8333333E-01  0.8333333E-01  0.1250000E+00  0.3472222E-02
    1      -22.849346
    2      -10.920601
    3       -7.195443
    4       -6.857749
    5       -0.004638
    6        0.768480
    7        0.996988
    8        1.136862
 
  0.1666667E+00  0.1666667E+00  0.1250000E+00  0.3472222E-02
    1      -21.064798
    2      -11.254676
    3       -9.914495
    4       -8.827179
    5        2.445274
    6        2.873718
    7        3.241819
    8        3.518314
 
  0.2500000E+00  0.1666667E+00  0.1250000E+00  0.6944444E-02
    1      -19.955759
    2      -12.984987
    3      -10.969867
    4       -7.575515
    5        0.928183
    6        3.993284
    7        4.790024
    8        5.122288
 
  0.3333333E+00  0.1666667E+00  0.1250000E+00  0.6944444E-02
    1      -18.579083
    2      -14.897184
    3      -11.545831
    4       -6.150932
    5       -0.981414
    6        5.947715
    7        6.521589
    8        6.690882
 
  0.4166667E+00  0.1666667E+00  0.1250000E+00  0.6944444E-02
    1      -17.349681
    2      -16.327012
    3      -11.731238
    4       -5.261200
    5       -2.046701
    6        6.413101
    7        8.112264
    8        8.186887
 
  0.5000000E+00  0.1666667E+00  0.1250000E+00  0.6944444E-02
    1      -18.583359
    2      -14.892757
    3      -11.546588
    4       -6.153781
    5       -0.979921
    6        5.941606
    7        6.524207
    8        6.685919
 
 -0.4166667E+00  0.1666667E+00  0.1250000E+00  0.6944444E-02
    1      -19.959414
    2      -12.983516
    3      -10.968761
    4       -7.578548
    5        0.927939
    6        3.988342
    7        4.785448
    8        5.117349
 
 -0.3333333E+00  0.1666667E+00  0.1250000E+00  0.6944444E-02
    1      -21.067604
    2      -11.262945
    3       -9.904593
    4       -8.829715
    5        2.441622
    6        2.870615
    7        3.238293
    8        3.514611
 
 -0.2500000E+00  0.1666667E+00  0.1250000E+00  0.6944444E-02
    1      -21.872382
    2       -9.938882
    3       -9.765344
    4       -8.534831
    5        1.330398
    6        2.119098
    7        2.369884
    8        2.506957
 
 -0.1666667E+00  0.1666667E+00  0.1250000E+00  0.3472222E-02
    1      -22.359524
    2      -10.338947
    3       -8.834548
    4       -7.649455
    5        0.662720
    6        1.444741
    7        1.683284
    8        1.821865
 
  0.2500000E+00  0.2500000E+00  0.1250000E+00  0.3472222E-02
    1      -18.726366
    2      -14.022764
    3      -12.452878
    4       -6.234511
    5       -0.685545
    6        5.741182
    7        6.406171
    8        6.955111
 
  0.3333333E+00  0.2500000E+00  0.1250000E+00  0.6944444E-02
    1      -17.304358
    2      -15.444967
    3      -13.159879
    4       -4.851489
    5       -2.204108
    6        7.380839
    7        7.832356
    8        8.685842
 
  0.4166667E+00  0.2500000E+00  0.1250000E+00  0.6944444E-02
    1      -17.310053
    2      -15.440770
    3      -13.158406
    4       -4.854608
    5       -2.202553
    6        7.380315
    7        7.821239
    8        8.687078
 
  0.5000000E+00  0.2500000E+00  0.1250000E+00  0.6944444E-02
    1      -18.732148
    2      -14.025841
    3      -12.444045
    4       -6.238961
    5       -0.685980
    6        5.732697
    7        6.400232
    8        6.946780
 
 -0.4166667E+00  0.2500000E+00  0.1250000E+00  0.6944444E-02
    1      -19.960498
    2      -12.995702
    3      -10.954237
    4       -7.579623
    5        0.924088
    6        3.986872
    7        4.784164
    8        5.115808
 
 -0.3333333E+00  0.2500000E+00  0.1250000E+00  0.6944444E-02
    1      -20.908228
    2      -12.012980
    3       -9.418827
    4       -8.652026
    5        2.411662
    6        2.660161
    7        3.484844
    8        3.742516
 
 -0.2500000E+00  0.2500000E+00  0.1250000E+00  0.3472222E-02
    1      -21.549534
    2      -10.933234
    3       -9.390432
    4       -8.528127
    5        1.772778
    6        2.557212
    7        2.826990
    8        2.961228
 
  0.3333333E+00  0.3333333E+00  0.1250000E+00  0.3472222E-02
    1      -16.091803
    2      -16.090838
    3      -14.048050
    4       -3.501997
    5       -3.498511
    6        7.121791
    7        9.379367
    8        9.397626
 
  0.4166667E+00  0.3333333E+00  0.1250000E+00  0.6944444E-02
    1      -17.310887
    2      -15.451543
    3      -13.146025
    4       -4.856473
    5       -2.204565
    6        7.382949
    7        7.819806
    8        8.726906
 
  0.5000000E+00  0.3333333E+00  0.1250000E+00  0.6944444E-02
    1      -18.585631
    2      -14.906619
    3      -11.528327
    4       -6.156302
    5       -0.985847
    6        5.939269
    7        6.563423
    8        6.683773
 
 -0.4166667E+00  0.3333333E+00  0.1250000E+00  0.6944444E-02
    1      -19.648709
    2      -14.135120
    3      -10.052480
    4       -7.275762
    5        0.214288
    6        4.400715
    7        4.843560
    8        5.257812
 
 -0.3333333E+00  0.3333333E+00  0.1250000E+00  0.3472222E-02
    1      -20.431530
    2      -13.135859
    3       -9.260421
    4       -8.125216
    5        1.400201
    6        3.313270
    7        4.160116
    8        4.241010
 
  0.4166667E+00  0.4166667E+00  0.1250000E+00  0.3472222E-02
    1      -17.352705
    2      -16.340186
    3      -11.712798
    4       -5.265937
    5       -2.051958
    6        6.455677
    7        8.115807
    8        8.174515
 
  0.5000000E+00  0.4166667E+00  0.1250000E+00  0.6944444E-02
    1      -18.170554
    2      -16.075165
    3      -10.380332
    4       -5.969836
    5       -1.551118
    6        4.643788
    7        6.614704
    8        7.431333
 
 -0.4166667E+00  0.4166667E+00  0.1250000E+00  0.3472222E-02
    1      -19.036756
    2      -15.234808
    3       -9.732560
    4       -6.706053
    5       -0.731475
    6        3.982519
    7        5.319870
    8        6.160089
 
  0.5000000E+00  0.5000000E+00  0.1250000E+00  0.1736111E-02
    1      -17.775096
    2      -16.739021
    3       -9.894628
    4       -5.863738
    5       -1.826901
    6        3.903646
    7        7.614346
    8        7.770784
 
  0.0000000E+00  0.0000000E+00  0.2500000E+00  0.1736111E-02
    1      -23.013210
    2      -11.116239
    3       -6.543776
    4       -6.519537
    5       -0.227110
    6        0.542445
    7        0.773363
    8        0.890856
 
  0.8333333E-01  0.6938894E-17  0.2500000E+00  0.6944444E-02
    1      -22.849106
    2      -10.920370
    3       -7.177288
    4       -6.875970
    5       -0.004340
    6        0.768588
    7        1.002386
    8        1.119656
 
  0.1666667E+00  0.1387779E-16  0.2500000E+00  0.6944444E-02
    1      -22.358573
    2      -10.338031
    3       -8.816318
    4       -7.668797
    5        0.663915
    6        1.445781
    7        1.689434
    8        1.805987
 
  0.2500000E+00  0.0000000E+00  0.2500000E+00  0.6944444E-02
    1      -21.547435
    2      -10.916299
    3       -9.388421
    4       -8.548526
    5        1.775442
    6        2.559910
    7        2.834122
    8        2.948595
 
  0.3333333E+00  0.2775558E-16  0.2500000E+00  0.6944444E-02
    1      -20.427932
    2      -13.121006
    3       -9.281723
    4       -8.121842
    5        1.409238
    6        3.317300
    7        4.164659
    8        4.205412
 
  0.4166667E+00  0.5551115E-16  0.2500000E+00  0.6944444E-02
    1      -19.031651
    2      -15.222001
    3       -9.754447
    4       -6.701280
    5       -0.722323
    6        3.943819
    7        5.327300
    8        6.167023
 
  0.5000000E+00  0.0000000E+00  0.2500000E+00  0.3472222E-02
    1      -17.771304
    2      -16.725114
    3       -9.916720
    4       -5.858270
    5       -1.818026
    6        3.864097
    7        7.627474
    8        7.779560
 
  0.8333333E-01  0.8333333E-01  0.2500000E+00  0.3472222E-02
    1      -22.521554
    2      -10.530927
    3       -8.208421
    4       -7.557122
    5        0.441695
    6        1.220669
    7        1.460735
    8        1.577545
 
  0.1666667E+00  0.8333333E-01  0.2500000E+00  0.6944444E-02
    1      -21.870491
    2       -9.922454
    3       -9.763559
    4       -8.552519
    5        1.332801
    6        2.121360
    7        2.377065
    8        2.492827
 
  0.2500000E+00  0.8333333E-01  0.2500000E+00  0.6944444E-02
    1      -20.904766
    2      -11.998473
    3       -9.437537
    4       -8.648835
    5        2.418777
    6        2.664633
    7        3.489083
    8        3.751743
 
  0.3333333E+00  0.8333333E-01  0.2500000E+00  0.6944444E-02
    1      -19.643455
    2      -14.122921
    3      -10.072256
    4       -7.271084
    5        0.221960
    6        4.404150
    7        4.807007
    8        5.264510
 
  0.4166667E+00  0.8333333E-01  0.2500000E+00  0.6944444E-02
    1      -18.164420
    2      -16.064020
    3      -10.401046
    4       -5.964265
    5       -1.543455
    6        4.602922
    7        6.625582
    8        7.439827
 
  0.5000000E+00  0.8333333E-01  0.2500000E+00  0.6944444E-02
    1      -18.166544
    2      -16.061664
    3      -10.401604
    4       -5.965237
    5       -1.542663
    6        4.603894
    7        6.621984
    8        7.436957
 
 -0.4166667E+00  0.8333333E-01  0.2500000E+00  0.6944444E-02
    1      -19.645503
    2      -14.120399
    3      -10.073664
    4       -7.272651
    5        0.222822
    6        4.401877
    7        4.809336
    8        5.261901
 
 -0.3333333E+00  0.8333333E-01  0.2500000E+00  0.6944444E-02
    1      -20.906409
    2      -11.997091
    3       -9.438650
    4       -8.650273
    5        2.418589
    6        2.662507
    7        3.486974
    8        3.749583
 
 -0.2500000E+00  0.8333333E-01  0.2500000E+00  0.6944444E-02
    1      -21.871680
    2       -9.925497
    3       -9.764666
    4       -8.549700
    5        1.331294
    6        2.119877
    7        2.375523
    8        2.491288
 
 -0.1666667E+00  0.8333333E-01  0.2500000E+00  0.6944444E-02
    1      -22.522271
    2      -10.531616
    3       -8.222868
    4       -7.542821
    5        0.440798
    6        1.219769
    7        1.459810
    8        1.576621
 
 -0.8333333E-01  0.8333333E-01  0.2500000E+00  0.3472222E-02
    1      -22.849346
    2      -10.920602
    3       -7.195439
    4       -6.857746
    5       -0.004638
    6        0.768287
    7        1.002077
    8        1.119348
 
  0.1666667E+00  0.1666667E+00  0.2500000E+00  0.3472222E-02
    1      -21.064797
    2      -11.254674
    3       -9.914494
    4       -8.827163
    5        2.445275
    6        2.873723
    7        3.241729
    8        3.522648
 
  0.2500000E+00  0.1666667E+00  0.2500000E+00  0.6944444E-02
    1      -19.955759
    2      -12.984984
    3      -10.969867
    4       -7.575516
    5        0.928184
    6        3.993284
    7        4.789984
    8        5.125949
 
  0.3333333E+00  0.1666667E+00  0.2500000E+00  0.6944444E-02
    1      -18.579082
    2      -14.897184
    3      -11.545831
    4       -6.150935
    5       -0.981413
    6        5.947715
    7        6.521588
    8        6.690878
 
  0.4166667E+00  0.1666667E+00  0.2500000E+00  0.6944444E-02
    1      -17.349683
    2      -16.327014
    3      -11.731238
    4       -5.261205
    5       -2.046704
    6        6.413096
    7        8.112262
    8        8.186886
 
  0.5000000E+00  0.1666667E+00  0.2500000E+00  0.6944444E-02
    1      -18.583359
    2      -14.892757
    3      -11.546590
    4       -6.153783
    5       -0.979919
    6        5.941605
    7        6.524206
    8        6.685914
 
 -0.4166667E+00  0.1666667E+00  0.2500000E+00  0.6944444E-02
    1      -19.959414
    2      -12.983514
    3      -10.968759
    4       -7.578546
    5        0.927940
    6        3.988342
    7        4.785408
    8        5.121015
 
 -0.3333333E+00  0.1666667E+00  0.2500000E+00  0.6944444E-02
    1      -21.067604
    2      -11.262945
    3       -9.904592
    4       -8.829702
    5        2.441623
    6        2.870620
    7        3.238203
    8        3.518947
 
 -0.2500000E+00  0.1666667E+00  0.2500000E+00  0.6944444E-02
    1      -21.872383
    2       -9.938882
    3       -9.765344
    4       -8.534832
    5        1.330398
    6        2.118964
    7        2.374597
    8        2.490363
 
 -0.1666667E+00  0.1666667E+00  0.2500000E+00  0.3472222E-02
    1      -22.359524
    2      -10.338950
    3       -8.834552
    4       -7.649460
    5        0.662720
    6        1.444578
    7        1.688200
    8        1.804755
 
  0.2500000E+00  0.2500000E+00  0.2500000E+00  0.3472222E-02
    1      -18.726366
    2      -14.022760
    3      -12.452878
    4       -6.234511
    5       -0.685541
    6        5.741181
    7        6.406169
    8        6.956971
 
  0.3333333E+00  0.2500000E+00  0.2500000E+00  0.6944444E-02
    1      -17.304358
    2      -15.444967
    3      -13.159880
    4       -4.851488
    5       -2.204107
    6        7.380838
    7        7.832356
    8        8.685842
 
  0.4166667E+00  0.2500000E+00  0.2500000E+00  0.6944444E-02
    1      -17.310052
    2      -15.440770
    3      -13.158406
    4       -4.854606
    5       -2.202549
    6        7.380314
    7        7.821239
    8        8.687079
 
  0.5000000E+00  0.2500000E+00  0.2500000E+00  0.6944444E-02
    1      -18.732148
    2      -14.025836
    3      -12.444042
    4       -6.238962
    5       -0.685979
    6        5.732697
    7        6.400230
    8        6.948657
 
 -0.4166667E+00  0.2500000E+00  0.2500000E+00  0.6944444E-02
    1      -19.960498
    2      -12.995703
    3      -10.954237
    4       -7.579620
    5        0.924089
    6        3.986872
    7        4.784124
    8        5.119476
 
 -0.3333333E+00  0.2500000E+00  0.2500000E+00  0.6944444E-02
    1      -20.908229
    2      -12.012977
    3       -9.418827
    4       -8.652026
    5        2.411658
    6        2.660161
    7        3.484727
    8        3.747120
 
 -0.2500000E+00  0.2500000E+00  0.2500000E+00  0.3472222E-02
    1      -21.549534
    2      -10.933237
    3       -9.390425
    4       -8.528127
    5        1.772778
    6        2.557113
    7        2.831343
    8        2.945814
 
  0.3333333E+00  0.3333333E+00  0.2500000E+00  0.3472222E-02
    1      -16.091802
    2      -16.090838
    3      -14.048051
    4       -3.501998
    5       -3.498511
    6        7.121790
    7        9.379367
    8        9.397624
 
  0.4166667E+00  0.3333333E+00  0.2500000E+00  0.6944444E-02
    1      -17.310887
    2      -15.451544
    3      -13.146026
    4       -4.856473
    5       -2.204563
    6        7.382948
    7        7.819806
    8        8.726906
 
  0.5000000E+00  0.3333333E+00  0.2500000E+00  0.6944444E-02
    1      -18.585631
    2      -14.906619
    3      -11.528328
    4       -6.156305
    5       -0.985845
    6        5.939268
    7        6.563423
    8        6.683769
 
 -0.4166667E+00  0.3333333E+00  0.2500000E+00  0.6944444E-02
    1      -19.648709
    2      -14.135119
    3      -10.052478
    4       -7.275762
    5        0.214289
    6        4.400715
    7        4.843558
    8        5.257761
 
 -0.3333333E+00  0.3333333E+00  0.2500000E+00  0.3472222E-02
    1      -20.431530
    2      -13.135860
    3       -9.260425
    4       -8.125212