  32  32   0   0
  0.9128901E+01  0.4934311E-09  0.4934311E-09  0.1385503E-08  0.5000000E-15
  1.000000000000000E-004
  CAR 
 graphite                                
     15.18916564    -17.19812918  301      4.39442450      1.00000000
    -17.198  0.0000E+00  0.0000E+00
    -17.090  0.0000E+00  0.0000E+00
    -16.982  0.0000E+00  0.0000E+00
    -16.874  0.0000E+00  0.0000E+00
    -16.766  0.0000E+00  0.0000E+00
    -16.658  0.0000E+00  0.0000E+00
    -16.550  0.0000E+00  0.0000E+00
    -16.442  0.0000E+00  0.0000E+00
    -16.334  0.0000E+00  0.0000E+00
    -16.227  0.0000E+00  0.0000E+00
    -16.119  0.0000E+00  0.0000E+00
    -16.011  0.0000E+00  0.0000E+00
    -15.903  0.0000E+00  0.0000E+00
    -15.795  0.0000E+00  0.0000E+00
    -15.687  0.0000E+00  0.0000E+00
    -15.579  0.0000E+00  0.0000E+00
    -15.471  0.0000E+00  0.0000E+00
    -15.363  0.0000E+00  0.0000E+00
    -15.255  0.0000E+00  0.0000E+00
    -15.147  0.1131E+01  0.2238E-01
    -15.039  0.2753E+01  0.2458E+00
    -14.931  0.5014E+01  0.6553E+00
    -14.823  0.4892E+01  0.1184E+01
    -14.715  0.4936E+01  0.1719E+01
    -14.607  0.4950E+01  0.2251E+01
    -14.499  0.4951E+01  0.2787E+01
    -14.391  0.4911E+01  0.3316E+01
    -14.283  0.5011E+01  0.3852E+01
    -14.175  0.4995E+01  0.4392E+01
    -14.067  0.4972E+01  0.4930E+01
    -13.959  0.5682E+01  0.5501E+01
    -13.851  0.5975E+01  0.6133E+01
    -13.743  0.6621E+01  0.6838E+01
    -13.636  0.4665E+01  0.7427E+01
    -13.528  0.1745E+01  0.7746E+01
    -13.420  0.3667E+01  0.8012E+01
    -13.312  0.4430E+01  0.8480E+01
    -13.204  0.4559E+01  0.8969E+01
    -13.096  0.6316E+01  0.9721E+01
    -12.988  0.6224E+01  0.1046E+02
    -12.880  0.4362E+01  0.1095E+02
    -12.772  0.4516E+01  0.1143E+02
    -12.664  0.4631E+01  0.1193E+02
    -12.556  0.4742E+01  0.1243E+02
    -12.448  0.5244E+01  0.1297E+02
    -12.340  0.5874E+01  0.1356E+02
    -12.232  0.5507E+01  0.1419E+02
    -12.124  0.5576E+01  0.1478E+02
    -12.016  0.5150E+01  0.1536E+02
    -11.908  0.4808E+01  0.1590E+02
    -11.800  0.4914E+01  0.1642E+02
    -11.692  0.5003E+01  0.1696E+02
    -11.584  0.5060E+01  0.1750E+02
    -11.476  0.5155E+01  0.1805E+02
    -11.368  0.5516E+01  0.1863E+02
    -11.260  0.5867E+01  0.1925E+02
    -11.153  0.5747E+01  0.1988E+02
    -11.045  0.5691E+01  0.2050E+02
    -10.937  0.5774E+01  0.2111E+02
    -10.829  0.5311E+01  0.2173E+02
    -10.721  0.4691E+01  0.2225E+02
    -10.613  0.5288E+01  0.2280E+02
    -10.505  0.5352E+01  0.2338E+02
    -10.397  0.5467E+01  0.2396E+02
    -10.289  0.5676E+01  0.2456E+02
    -10.181  0.5918E+01  0.2518E+02
    -10.073  0.7468E+01  0.2589E+02
     -9.965  0.1010E+02  0.2689E+02
     -9.857  0.6717E+01  0.2780E+02
     -9.749  0.5868E+01  0.2842E+02
     -9.641  0.6239E+01  0.2915E+02
     -9.533  0.3604E+01  0.2965E+02
     -9.425  0.3234E+01  0.3002E+02
     -9.317  0.2864E+01  0.3035E+02
     -9.209  0.2495E+01  0.3064E+02
     -9.101  0.2380E+01  0.3089E+02
     -8.993  0.3228E+01  0.3121E+02
     -8.885  0.1751E+01  0.3149E+02
     -8.777  0.1555E+01  0.3164E+02
     -8.669  0.2466E+01  0.3186E+02
     -8.562  0.6334E+01  0.3226E+02
     -8.454  0.4483E+01  0.3302E+02
     -8.346  0.3900E+01  0.3346E+02
     -8.238  0.4230E+01  0.3390E+02
     -8.130  0.7140E+01  0.3452E+02
     -8.022  0.6254E+01  0.3530E+02
     -7.914  0.7327E+01  0.3603E+02
     -7.806  0.8404E+01  0.3688E+02
     -7.698  0.8257E+01  0.3783E+02
     -7.590  0.6312E+01  0.3858E+02
     -7.482  0.6052E+01  0.3925E+02
     -7.374  0.5795E+01  0.3989E+02
     -7.266  0.5558E+01  0.4050E+02
     -7.158  0.5366E+01  0.4109E+02
     -7.050  0.5185E+01  0.4166E+02
     -6.942  0.4991E+01  0.4221E+02
     -6.834  0.4857E+01  0.4274E+02
     -6.726  0.4828E+01  0.4326E+02
     -6.618  0.4798E+01  0.4378E+02
     -6.510  0.4656E+01  0.4430E+02
     -6.402  0.4426E+01  0.4479E+02
     -6.294  0.4372E+01  0.4526E+02
     -6.186  0.4045E+01  0.4568E+02
     -6.078  0.4222E+01  0.4611E+02
     -5.971  0.4853E+01  0.4660E+02
     -5.863  0.5667E+01  0.4717E+02
     -5.755  0.6446E+01  0.4783E+02
     -5.647  0.1058E+02  0.4871E+02
     -5.539  0.8795E+01  0.4978E+02
     -5.431  0.6532E+01  0.5060E+02
     -5.323  0.4269E+01  0.5119E+02
     -5.215  0.2664E+01  0.5154E+02
     -5.107  0.2966E+01  0.5183E+02
     -4.999  0.4180E+01  0.5222E+02
     -4.891  0.5488E+01  0.5274E+02
     -4.783  0.7009E+01  0.5341E+02
     -4.675  0.8133E+01  0.5425E+02
     -4.567  0.6943E+01  0.5506E+02
     -4.459  0.5701E+01  0.5575E+02
     -4.351  0.6869E+01  0.5638E+02
     -4.243  0.7315E+01  0.5719E+02
     -4.135  0.6801E+01  0.5795E+02
     -4.027  0.6288E+01  0.5866E+02
     -3.919  0.5996E+01  0.5931E+02
     -3.811  0.5990E+01  0.5997E+02
     -3.703  0.1317E+02  0.6101E+02
     -3.595  0.9410E+01  0.6217E+02
     -3.488  0.7986E+01  0.6311E+02
     -3.380  0.6912E+01  0.6391E+02
     -3.272  0.6762E+01  0.6463E+02
     -3.164  0.7462E+01  0.6540E+02
     -3.056  0.8502E+01  0.6625E+02
     -2.948  0.1016E+02  0.6725E+02
     -2.840  0.1441E+02  0.6855E+02
     -2.732  0.1330E+02  0.7011E+02
     -2.624  0.1209E+02  0.7142E+02
     -2.516  0.1309E+02  0.7281E+02
     -2.408  0.1424E+02  0.7420E+02
     -2.300  0.1311E+02  0.7577E+02
     -2.192  0.1624E+02  0.7718E+02
     -2.084  0.1300E+02  0.7903E+02
     -1.976  0.1353E+02  0.8032E+02
     -1.868  0.1646E+02  0.8240E+02
     -1.760  0.1801E+02  0.8432E+02
     -1.652  0.1556E+02  0.8620E+02
     -1.544  0.1171E+02  0.8766E+02
     -1.436  0.9893E+01  0.8882E+02
     -1.328  0.9454E+01  0.8983E+02
     -1.220  0.7977E+01  0.9081E+02
     -1.112  0.1070E+02  0.9180E+02
     -1.004  0.1299E+02  0.9314E+02
     -0.897  0.1409E+02  0.9455E+02
     -0.789  0.8974E+01  0.9603E+02
     -0.681  0.1016E+02  0.9708E+02
     -0.573  0.1104E+02  0.9823E+02
     -0.465  0.1041E+02  0.9935E+02
     -0.357  0.1125E+02  0.1005E+03
     -0.249  0.9461E+01  0.1016E+03
     -0.141  0.1009E+02  0.1026E+03
     -0.033  0.9656E+01  0.1037E+03
      0.075  0.9545E+01  0.1048E+03
      0.183  0.9260E+01  0.1058E+03
      0.291  0.9152E+01  0.1068E+03
      0.399  0.9523E+01  0.1078E+03
      0.507  0.9432E+01  0.1088E+03
      0.615  0.9468E+01  0.1098E+03
      0.723  0.9189E+01  0.1108E+03
      0.831  0.9113E+01  0.1118E+03
      0.939  0.9424E+01  0.1128E+03
      1.047  0.9485E+01  0.1138E+03
      1.155  0.9909E+01  0.1149E+03
      1.263  0.1028E+02  0.1159E+03
      1.371  0.7571E+01  0.1169E+03
      1.479  0.6569E+01  0.1177E+03
      1.587  0.5820E+01  0.1183E+03
      1.694  0.4961E+01  0.1189E+03
      1.802  0.3952E+01  0.1194E+03
      1.910  0.3698E+01  0.1198E+03
      2.018  0.6138E+01  0.1203E+03
      2.126  0.9982E+01  0.1212E+03
      2.234  0.5955E+01  0.1221E+03
      2.342  0.9426E+01  0.1230E+03
      2.450  0.6364E+01  0.1238E+03
      2.558  0.5098E+01  0.1244E+03
      2.666  0.4352E+01  0.1250E+03
      2.774  0.3707E+01  0.1254E+03
      2.882  0.3264E+01  0.1258E+03
      2.990  0.3103E+01  0.1261E+03
      3.098  0.2916E+01  0.1264E+03
      3.206  0.2441E+01  0.1267E+03
      3.314  0.2089E+01  0.1270E+03
      3.422  0.1859E+01  0.1272E+03
      3.530  0.1623E+01  0.1274E+03
      3.638  0.1382E+01  0.1275E+03
      3.746  0.1145E+01  0.1277E+03
      3.854  0.9195E+00  0.1278E+03
      3.962  0.6938E+00  0.1279E+03
      4.070  0.4974E+00  0.1279E+03
      4.177  0.3172E+00  0.1280E+03
      4.285  0.1504E+00  0.1280E+03
      4.393  0.1402E-03  0.1280E+03
      4.501  0.1113E+00  0.1280E+03
      4.609  0.2424E+00  0.1280E+03
      4.717  0.3889E+00  0.1281E+03
      4.825  0.5536E+00  0.1281E+03
      4.933  0.7473E+00  0.1282E+03
      5.041  0.9963E+00  0.1283E+03
      5.149  0.1353E+01  0.1284E+03
      5.257  0.1733E+01  0.1286E+03
      5.365  0.2086E+01  0.1288E+03
      5.473  0.2490E+01  0.1290E+03
      5.581  0.2880E+01  0.1293E+03
      5.689  0.3276E+01  0.1296E+03
      5.797  0.4184E+01  0.1300E+03
      5.905  0.6585E+01  0.1306E+03
      6.013  0.8182E+01  0.1317E+03
      6.121  0.8535E+01  0.1326E+03
      6.229  0.8216E+01  0.1335E+03
      6.337  0.7354E+01  0.1344E+03
      6.445  0.6414E+01  0.1351E+03
      6.553  0.6218E+01  0.1357E+03
      6.661  0.5632E+01  0.1364E+03
      6.768  0.5111E+01  0.1370E+03
      6.876  0.4556E+01  0.1375E+03
      6.984  0.3794E+01  0.1379E+03
      7.092  0.3607E+01  0.1383E+03
      7.200  0.3837E+01  0.1387E+03
      7.308  0.4380E+01  0.1392E+03
      7.416  0.4696E+01  0.1397E+03
      7.524  0.4649E+01  0.1402E+03
      7.632  0.4493E+01  0.1407E+03
      7.740  0.4346E+01  0.1412E+03
      7.848  0.4190E+01  0.1416E+03
      7.956  0.4042E+01  0.1421E+03
      8.064  0.3874E+01  0.1425E+03
      8.172  0.3720E+01  0.1429E+03
      8.280  0.3596E+01  0.1433E+03
      8.388  0.3514E+01  0.1437E+03
      8.496  0.3487E+01  0.1441E+03
      8.604  0.3723E+01  0.1444E+03
      8.712  0.3856E+01  0.1449E+03
      8.820  0.3957E+01  0.1453E+03
      8.928  0.4114E+01  0.1457E+03
      9.036  0.4200E+01  0.1462E+03
      9.144  0.4282E+01  0.1466E+03
      9.251  0.4334E+01  0.1471E+03
      9.359  0.4089E+01  0.1475E+03
      9.467  0.4056E+01  0.1480E+03
      9.575  0.4030E+01  0.1484E+03
      9.683  0.4052E+01  0.1488E+03
      9.791  0.4093E+01  0.1493E+03
      9.899  0.4215E+01  0.1497E+03
     10.007  0.4387E+01  0.1502E+03
     10.115  0.4442E+01  0.1507E+03
     10.223  0.4622E+01  0.1512E+03
     10.331  0.5841E+01  0.1517E+03
     10.439  0.5193E+01  0.1523E+03
     10.547  0.5387E+01  0.1528E+03
     10.655  0.4649E+01  0.1534E+03
     10.763  0.4375E+01  0.1539E+03
     10.871  0.3720E+01  0.1544E+03
     10.979  0.4166E+01  0.1548E+03
     11.087  0.3934E+01  0.1553E+03
     11.195  0.3790E+01  0.1557E+03
     11.303  0.2975E+01  0.1561E+03
     11.411  0.2822E+01  0.1564E+03
     11.519  0.4328E+01  0.1567E+03
     11.627  0.4653E+01  0.1572E+03
     11.735  0.6754E+01  0.1579E+03
     11.842  0.1033E+02  0.1588E+03
     11.950  0.1188E+02  0.1600E+03
     12.058  0.1351E+02  0.1614E+03
     12.166  0.1374E+02  0.1629E+03
     12.274  0.1122E+02  0.1643E+03
     12.382  0.8698E+01  0.1654E+03
     12.490  0.6184E+01  0.1662E+03
     12.598  0.5293E+01  0.1668E+03
     12.706  0.4133E+01  0.1673E+03
     12.814  0.2492E+01  0.1677E+03
     12.922  0.1464E+01  0.1679E+03
     13.030  0.4888E+00  0.1680E+03
     13.138  0.1383E-01  0.1680E+03
     13.246  0.0000E+00  0.1680E+03
     13.354  0.0000E+00  0.1680E+03
     13.462  0.0000E+00  0.1680E+03
     13.570  0.0000E+00  0.1680E+03
     13.678  0.0000E+00  0.1680E+03
     13.786  0.0000E+00  0.1680E+03
     13.894  0.0000E+00  0.1680E+03
     14.002  0.0000E+00  0.1680E+03
     14.110  0.0000E+00  0.1680E+03
     14.218  0.0000E+00  0.1680E+03
     14.326  0.0000E+00  0.1680E+03
     14.433  0.0000E+00  0.1680E+03
     14.541  0.0000E+00  0.1680E+03
     14.649  0.0000E+00  0.1680E+03
     14.757  0.0000E+00  0.1680E+03
     14.865  0.0000E+00  0.1680E+03
     14.973  0.0000E+00  0.1680E+03
     15.081  0.0000E+00  0.1680E+03
     15.189  0.0000E+00  0.1680E+03
