   32   32    1    1
  0.9217531E+01  0.4934311E-09  0.4934311E-09  0.1398954E-08  0.5000000E-15
  1.000000000000000E-004
  CAR 
 graphite                                
    128    163     84
 
  0.0000000E+00  0.0000000E+00  0.0000000E+00  0.3086420E-02
    1      -15.272502
    2      -15.167376
    3      -15.167059
    4      -15.056470
    5       -9.973497
    6       -9.971342
    7       -9.969359
    8       -9.933036
    9       -9.929654
   10       -9.929311
   11       -9.928846
   12       -9.928840
   13       -9.925353
   14       -9.893479
   15       -9.892124
   16       -9.889995
   17       -8.909115
   18       -8.905853
   19       -8.904285
   20       -8.885554
   21       -8.882105
   22       -8.880854
   23       -8.880601
   24       -8.880598
   25       -8.876948
   26       -8.848518
   27       -8.845656
   28       -8.843220
   29       -4.015751
   30       -3.294934
   31       -3.293539
   32       -2.432292
   33       -2.082651
   34       -2.079944
   35       -2.076061
   36       -2.065670
   37       -2.062050
   38       -2.062046
   39       -2.061571
   40       -2.058901
   41       -2.055984
   42       -2.045041
   43       -2.043118
   44       -2.038505
   45        1.296830
   46        1.307126
   47        1.310620
   48        1.310689
   49        1.315265
   50        1.315409
   51        1.318730
   52        1.328581
   53        1.648749
   54        1.650860
   55        1.652755
   56        1.957932
   57        1.961507
   58        1.961602
   59        1.961732
   60        1.961835
   61        1.965326
   62        2.194944
   63        2.196454
   64        2.197949
   65        5.816912
   66        5.820884
   67        5.822841
   68        5.967605
   69        5.973295
   70        5.974791
   71        5.975415
   72        5.975665
   73        5.981128
   74        6.388442
   75        6.393079
   76        6.395965
   77        8.304797
   78       10.629714
   79       10.632579
   80       11.552473
   81       11.556198
   82       11.559743
   83       11.695030
   84       11.700512
 
  0.1111111E+00  0.1387779E-16  0.0000000E+00  0.6172840E-02
    1      -15.199146
    2      -15.094413
    3      -15.094098
    4      -14.984042
    5      -10.755028
    6      -10.681618
    7      -10.681220
    8      -10.605648
    9      -10.213974
   10      -10.211757
   11      -10.151721
   12      -10.150130
   13      -10.149392
   14      -10.147331
   15      -10.087117
   16      -10.084871
   17       -8.594268
   18       -8.591117
   19       -8.544561
   20       -8.541738
   21       -8.540184
   22       -8.539804
   23       -8.487952
   24       -8.485001
   25       -8.076357
   26       -8.020034
   27       -8.018209
   28       -7.959346
   29       -3.926753
   30       -3.208000
   31       -3.206608
   32       -2.348281
   33       -2.306375
   34       -2.301929
   35       -2.286182
   36       -2.285466
   37       -2.282387
   38       -2.279532
   39       -2.264847
   40       -2.259823
   41       -2.009422
   42       -1.992213
   43       -1.989753
   44       -1.972420
   45        1.008890
   46        1.016180
   47        1.019581
   48        1.028470
   49        1.081093
   50        1.142827
   51        1.151928
   52        1.155624
   53        1.161910
   54        1.533802
   55        1.535995
   56        1.542823
   57        1.544917
   58        1.908994
   59        1.909967
   60        1.910088
   61        1.913471
   62        1.990806
   63        2.226977
   64        2.228992
   65        5.908951
   66        5.913192
   67        6.098485
   68        6.103936
   69        6.105430
   70        6.107172
   71        6.237493
   72        6.514289
   73        6.517873
   74        6.521673
   75        6.526326
   76        6.980590
   77        8.395026
   78       10.711439
   79       10.714293
   80       11.593065
   81       11.731812
   82       11.733199
   83       11.880361
   84       11.891433
 
  0.2222222E+00 -0.2775558E-16  0.0000000E+00  0.6172840E-02
    1      -14.979196
    2      -14.875895
    3      -14.875586
    4      -14.767078
    5      -11.761574
    6      -11.679034
    7      -11.678787
    8      -11.593460
    9      -10.558311
   10      -10.556396
   11      -10.487037
   12      -10.485427
   13      -10.484869
   14      -10.483260
   15      -10.411665
   16      -10.409722
   17       -7.911582
   18       -7.908497
   19       -7.857304
   20       -7.854750
   21       -7.853058
   22       -7.852694
   23       -7.798210
   24       -7.795273
   25       -6.754406
   26       -6.701785
   27       -6.700095
   28       -6.646306
   29       -3.660567
   30       -2.948128
   31       -2.946742
   32       -2.910800
   33       -2.906634
   34       -2.885331
   35       -2.884821
   36       -2.881939
   37       -2.879128
   38       -2.858651
   39       -2.854033
   40       -2.097042
   41       -1.795067
   42       -1.778137
   43       -1.775542
   44       -1.758698
   45        0.079511
   46        0.185054
   47        0.197888
   48        0.201847
   49        0.215596
   50        0.646873
   51        0.648296
   52        0.726132
   53        0.736767
   54        0.740784
   55        0.749864
   56        1.284439
   57        1.335432
   58        1.337427
   59        1.787827
   60        1.788853
   61        1.788978
   62        1.792291
   63        2.244074
   64        2.246270
   65        6.183714
   66        6.187849
   67        6.431295
   68        6.436449
   69        6.437715
   70        6.439198
   71        6.831590
   72        6.835478
   73        7.396644
   74        7.734043
   75        7.737258
   76        8.191001
   77        8.666322
   78       10.956018
   79       10.958853
   80       11.705041
   81       11.839693
   82       11.841126
   83       11.954026
   84       12.698866
 
  0.3333333E+00 -0.2775558E-16  0.0000000E+00  0.6172840E-02
    1      -14.613844
    2      -14.512873
    3      -14.512573
    4      -14.406693
    5      -12.671380
    6      -12.582919
    7      -12.582662
    8      -12.490712
    9      -10.814060
   10      -10.812296
   11      -10.739260
   12      -10.737577
   13      -10.737235
   14      -10.735740
   15      -10.660278
   16      -10.658491
   17       -7.106165
   18       -7.103005
   19       -7.056737
   20       -7.053961
   21       -7.052207
   22       -7.052019
   23       -7.003121
   24       -7.000161
   25       -5.324885
   26       -5.279667
   27       -5.277788
   28       -5.231767
   29       -3.723672
   30       -3.720046
   31       -3.693207
   32       -3.693107
   33       -3.690612
   34       -3.687739
   35       -3.661610
   36       -3.657561
   37       -3.219910
   38       -2.518372
   39       -2.516998
   40       -1.682541
   41       -1.447134
   42       -1.430885
   43       -1.428082
   44       -1.411832
   45       -0.997478
   46       -0.976836
   47       -0.973855
   48       -0.953276
   49       -0.929725
   50       -0.305199
   51       -0.303898
   52        0.166207
   53        0.178541
   54        0.182292
   55        0.194069
   56        0.421180
   57        1.153217
   58        1.155143
   59        1.663684
   60        1.664777
   61        1.664932
   62        1.668177
   63        2.219191
   64        2.221431
   65        6.559255
   66        6.562864
   67        6.820483
   68        6.825317
   69        6.826214
   70        6.827211
   71        7.151592
   72        7.154656
   73        8.902310
   74        9.118077
   75        9.208641
   76        9.211951
   77        9.608395
   78       11.353814
   79       11.356752
   80       11.486905
   81       11.929792
   82       12.001336
   83       12.002968
   84       12.226134
 
  0.4444444E+00 -0.5551115E-16  0.0000000E+00  0.6172840E-02
    1      -14.104987
    2      -14.007293
    3      -14.007002
    4      -13.904763
    5      -13.455740
    6      -13.362219
    7      -13.361949
    8      -13.264340
    9      -10.946050
   10      -10.944356
   11      -10.870117
   12      -10.868338
   13      -10.868222
   14      -10.866701
   15      -10.789677
   16      -10.787962
   17       -6.364362
   18       -6.361535
   19       -6.329798
   20       -6.326129
   21       -6.325484
   22       -6.324936
   23       -6.291443
   24       -6.289178
   25       -4.473650
   26       -4.471545
   27       -4.448624
   28       -4.447579
   29       -4.447185
   30       -4.443869
   31       -4.419927
   32       -4.417144
   33       -3.848076
   34       -3.811287
   35       -3.809016
   36       -3.771488
   37       -2.610221
   38       -2.379925
   39       -2.351511
   40       -2.348756
   41       -2.319676
   42       -1.924669
   43       -1.923394
   44       -1.840823
   45       -1.179625
   46       -1.178312
   47       -1.112421
   48       -0.982107
   49       -0.966772
   50       -0.963662
   51       -0.948663
   52       -0.428482
   53       -0.414462
   54       -0.411140
   55       -0.401361
   56       -0.397261
   57        1.051493
   58        1.053396
   59        1.588974
   60        1.590110
   61        1.590282
   62        1.593494
   63        2.191604
   64        2.193843
   65        6.849321
   66        6.852165
   67        7.085907
   68        7.090662
   69        7.091031
   70        7.091385
   71        7.336984
   72        7.339525
   73        9.749995
   74       10.513396
   75       10.554350
   76       10.740564
   77       10.744532
   78       11.077959
   79       11.795441
   80       11.803234
   81       12.091765
   82       12.148752
   83       12.158669
   84       12.160774
 
  0.0000000E+00  0.1111111E+00  0.0000000E+00  0.6172840E-02
    1      -15.199148
    2      -15.094416
    3      -15.094100
    4      -14.984043
    5      -10.754949
    6      -10.681470
    7      -10.681198
    8      -10.605557
    9      -10.214125
   10      -10.211890
   11      -10.152032
   12      -10.150130
   13      -10.149393
   14      -10.147617
   15      -10.087218
   16      -10.085097
   17       -8.594433
   18       -8.589924
   19       -8.544895
   20       -8.541739
   21       -8.540177
   22       -8.537203
   23       -8.488106
   24       -8.483588
   25       -8.077245
   26       -8.020126
   27       -8.019952
   28       -7.960293
   29       -3.926748
   30       -3.207994
   31       -3.206604
   32       -2.348275
   33       -2.307528
   34       -2.302006
   35       -2.287985
   36       -2.285466
   37       -2.282387
   38       -2.280091
   39       -2.265768
   40       -2.260236
   41       -2.007961
   42       -1.989784
   43       -1.989722
   44       -1.971339
   45        1.007031
   46        1.015017
   47        1.016182
   48        1.024050
   49        1.081800
   50        1.148210
   51        1.155622
   52        1.156085
   53        1.163496
   54        1.535233
   55        1.536093
   56        1.542095
   57        1.544805
   58        1.907312
   59        1.909977
   60        1.910092
   61        1.912707
   62        1.991864
   63        2.226205
   64        2.228608
   65        5.909107
   66        5.914843
   67        6.099080
   68        6.103887
   69        6.105807
   70        6.110293
   71        6.235796
   72        6.513233
   73        6.515656
   74        6.521846
   75        6.528179
   76        6.978840
   77        8.395031
   78       10.711455
   79       10.714308
   80       11.593526
   81       11.732635
   82       11.733239
   83       11.876792
   84       11.887690
 
  0.1111111E+00  0.1111111E+00  0.0000000E+00  0.6172840E-02
    1      -15.052395
    2      -14.948669
    3      -14.948357
    4      -14.839323
    5      -11.217203
    6      -11.214294
    7      -11.140313
    8      -11.137284
    9      -11.137264
   10      -11.134497
   11      -11.057671
   12      -11.054735
   13       -9.782647
   14       -9.742024
   15       -9.740702
   16       -9.704900
   17       -8.725829
   18       -8.702944
   19       -8.699903
   20       -8.667816
   21       -7.396874
   22       -7.393862
   23       -7.342364
   24       -7.339998
   25       -7.339979
   26       -7.336118
   27       -7.283464
   28       -7.280176
   29       -3.749131
   30       -3.034566
   31       -3.033180
   32       -2.981980
   33       -2.957099
   34       -2.954977
   35       -2.929321
   36       -2.180480
   37       -2.163087
   38       -2.160121
   39       -2.144110
   40       -2.140455
   41       -2.140452
   42       -2.139102
   43       -2.121441
   44       -2.119155
   45        0.478500
   46        0.485848
   47        0.489356
   48        0.498516
   49        0.656708
   50        0.659319
   51        0.829892
   52        0.838545
   53        0.841907
   54        0.847623
   55        1.175551
   56        1.178501
   57        1.178614
   58        1.180287
   59        1.739770
   60        1.742044
   61        1.918803
   62        2.227395
   63        2.229874
   64        2.459561
   65        5.789310
   66        5.894164
   67        5.898819
   68        6.233652
   69        6.736745
   70        6.739053
   71        7.053536
   72        7.055188
   73        7.055527
   74        7.059752
   75        7.506492
   76        7.509096
   77        8.575932
   78       10.875219
   79       10.878058
   80       11.963148
   81       11.967113
   82       12.102540
   83       12.105614
   84       12.108275
 
  0.2222222E+00  0.1111111E+00  0.0000000E+00  0.6172840E-02
    1      -14.759769
    2      -14.657872
    3      -14.657570
    4      -14.550643
    5      -12.179054
    6      -12.093837
    7      -12.093582
    8      -12.005030
    9      -11.555995
   10      -11.474990
   11      -11.474721
   12      -11.390683
   13       -9.828705
   14       -9.768346
   15       -9.767673
   16       -9.706973
   17       -8.249690
   18       -8.203500
   19       -8.200945
   20       -8.151088
   21       -6.615590
   22       -6.564890
   23       -6.564467
   24       -6.512523
   25       -6.017116
   26       -5.968738
   27       -5.967023
   28       -5.917682
   29       -3.886065
   30       -3.854991
   31       -3.852909
   32       -3.820981
   33       -3.395646
   34       -2.689677
   35       -2.688281
   36       -2.685445
   37       -2.660854
   38       -2.660520
   39       -2.635380
   40       -1.876388
   41       -1.857852
   42       -1.855317
   43       -1.847548
   44       -1.836582
   45       -0.471709
   46       -0.458399
   47       -0.454291
   48       -0.440373
   49       -0.370445
   50        0.227738
   51        0.229120
   52        0.286883
   53        0.297691
   54        0.302089
   55        0.310881
   56        0.331068
   57        0.891699
   58        0.892691
   59        0.914760
   60        1.522706
   61        2.063406
   62        2.429326
   63        2.431675
   64        2.747083
   65        5.780768
   66        5.900667
   67        5.904968
   68        6.185259
   69        7.316103
   70        7.622083
   71        7.624184
   72        8.008082
   73        8.102105
   74        8.422798
   75        8.425517
   76        8.834762
   77        8.938767
   78       11.201258
   79       11.204109
   80       12.012274
   81       12.197252
   82       12.239701
   83       12.241094
   84       12.519878
 
  0.3333333E+00  0.1111111E+00  0.0000000E+00  0.6172840E-02
    1      -14.322634
    2      -14.223551
    3      -14.223259
    4      -14.119462
    5      -13.026747
    6      -12.935999
    7      -12.935734
    8      -12.841170
    9      -11.763304
   10      -11.680883
   11      -11.680594
   12      -11.594921
   13       -9.971381
   14       -9.903452
   15       -9.903179
   16       -9.833453
   17       -7.485179
   18       -7.439271
   19       -7.436859
   20       -7.389821
   21       -5.821111
   22       -5.779813
   23       -5.778730
   24       -5.736823
   25       -4.820235
   26       -4.787583
   27       -4.785360
   28       -4.751538
   29       -4.571625
   30       -4.531436
   31       -4.529516
   32       -4.488400
   33       -3.383012
   34       -3.356495
   35       -3.355381
   36       -3.327768
   37       -2.870193
   38       -2.177912
   39       -2.176506
   40       -1.713638
   41       -1.691057
   42       -1.687472
   43       -1.665155
   44       -1.461079
   45       -1.443559
   46       -1.440871
   47       -1.423298
   48       -1.354857
   49       -1.337790
   50       -0.694460
   51       -0.693194
   52       -0.334157
   53       -0.320764
   54       -0.316719
   55       -0.303842
   56        0.058363
   57        0.125201
   58        0.708848
   59        0.709982
   60        1.376441
   61        2.073191
   62        2.518764
   63        2.520701
   64        2.974799
   65        5.815600
   66        6.018035
   67        6.021506
   68        6.282550
   69        7.819603
   70        8.075579
   71        8.077603
   72        8.358229
   73        9.481417
   74        9.660082
   75        9.925481
   76        9.928276
   77       10.269081
   78       11.090398
   79       11.667579
   80       11.671191
   81       12.350110
   82       12.395761
   83       12.397309
   84       12.613780
 
  0.4444444E+00  0.1111111E+00  0.0000000E+00  0.6172840E-02
    1      -13.745031
    2      -13.742331
    3      -13.650885
    4      -13.648196
    5      -13.648061
    6      -13.645458
    7      -13.549685
    8      -13.546935
    9      -11.833072
   10      -11.750041
   11      -11.749741
   12      -11.663545
   13      -10.026856
   14       -9.957703
   15       -9.957499
   16       -9.886037
   17       -6.985923
   18       -6.957499
   19       -6.955240
   20       -6.928018
   21       -5.352300
   22       -5.341813
   23       -5.329305
   24       -5.326436
   25       -5.324538
   26       -5.322222
   27       -5.304282
   28       -5.300978
   29       -3.805615
   30       -3.790048
   31       -3.787216
   32       -3.769100
   33       -3.115346
   34       -3.112864
   35       -3.083025
   36       -3.082570
   37       -3.082507
   38       -3.077152
   39       -3.049609
   40       -3.045906
   41       -2.181033
   42       -2.178852
   43       -1.509413
   44       -1.506532
   45       -1.506358
   46       -1.504186
   47       -0.940457
   48       -0.933135
   49       -0.923286
   50       -0.916756
   51       -0.916716
   52       -0.915438
   53       -0.902053
   54       -0.898889
   55       -0.713985
   56       -0.711532
   57        0.055496
   58        0.646197
   59        0.647438
   60        1.325445
   61        2.065302
   62        2.540628
   63        2.542047
   64        3.053418
   65        5.845844
   66        6.084959
   67        6.087397
   68        6.338020
   69        8.035162
   70        8.253079
   71        8.255396
   72        8.473235
   73       10.201805
   74       10.202689
   75       11.238177
   76       11.241080
   77       11.400983
   78       11.405797
   79       11.406336
   80       11.413217
   81       11.698547
   82       11.701792
   83       12.294383
   84       12.298076
 
 -0.4444444E+00  0.1111111E+00  0.0000000E+00  0.6172840E-02
    1      -14.322742
    2      -14.223662
    3      -14.223364
    4      -14.119570
    5      -13.026580
    6      -12.935831
    7      -12.935568
    8      -12.841002
    9      -11.763526
   10      -11.681110
   11      -11.680810
   12      -11.595141
   13       -9.971257
   14       -9.903305
   15       -9.903095
   16       -9.833346
   17       -7.482696
   18       -7.436082
   19       -7.435314
   20       -7.387557
   21       -5.823723
   22       -5.783021
   23       -5.780522
   24       -5.739225
   25       -4.822918
   26       -4.789585
   27       -4.788958
   28       -4.754470
   29       -4.571619
   30       -4.531572
   31       -4.529311
   32       -4.488329
   33       -3.380042
   34       -3.354192
   35       -3.351397
   36       -3.324405
   37       -2.870225
   38       -2.177928
   39       -2.176533
   40       -1.714593
   41       -1.691543
   42       -1.689287
   43       -1.666659
   44       -1.461274
   45       -1.443824
   46       -1.440777
   47       -1.423328
   48       -1.354861
   49       -1.337754
   50       -0.694466
   51       -0.693152
   52       -0.332259
   53       -0.319016
   54       -0.316220
   55       -0.302966
   56        0.058370
   57        0.125294
   58        0.708897
   59        0.710262
   60        1.376691
   61        2.072612
   62        2.518587
   63        2.519491
   64        2.973968
   65        5.818004
   66        6.020771
   67        6.022568
   68        6.283896
   69        7.817769
   70        8.073666
   71        8.076635
   72        8.357209
   73        9.481348
   74        9.660440
   75        9.925756
   76        9.928807
   77       10.269559
   78       11.090466
   79       11.667711
   80       11.671324
   81       12.349122
   82       12.394369
   83       12.396663
   84       12.612753
 
 -0.3333333E+00  0.1111111E+00  0.0000000E+00  0.6172840E-02
    1      -14.759846
    2      -14.657952
    3      -14.657645
    4      -14.550721
    5      -12.178858
    6      -12.093636
    7      -12.093387
    8      -12.004830
    9      -11.556434
   10      -11.475433
   11      -11.475149
   12      -11.391115
   13       -9.828581
   14       -9.768008
   15       -9.767808
   16       -9.706895
   17       -8.246759
   18       -8.199543
   19       -8.199281
   20       -8.148372
   21       -6.618364
   22       -6.568404
   23       -6.566387
   24       -6.515191
   25       -6.017270
   26       -5.968949
   27       -5.967096
   28       -5.917810
   29       -3.889512
   30       -3.857558
   31       -3.857420
   32       -3.824627
   33       -3.395671
   34       -2.689669
   35       -2.688293
   36       -2.681653
   37       -2.657958
   38       -2.655484
   39       -2.631217
   40       -1.876429
   41       -1.857946
   42       -1.855192
   43       -1.847552
   44       -1.836537
   45       -0.473900
   46       -0.459846
   47       -0.458116
   48       -0.444209
   49       -0.370453
   50        0.227720
   51        0.229189
   52        0.291738
   53        0.301048
   54        0.303573
   55        0.312864
   56        0.331436
   57        0.891843
   58        0.893377
   59        0.914621
   60        1.523227
   61        2.062229
   62        2.429038
   63        2.429477
   64        2.745927
   65        5.784328
   66        5.905214
   67        5.907107
   68        6.188197
   69        7.313160
   70        7.618816
   71        7.622357
   72        8.005935
   73        8.102320
   74        8.422939
   75        8.425937
   76        8.835120
   77        8.938718
   78       11.201327
   79       11.204177
   80       12.011795
   81       12.196814
   82       12.238858
   83       12.240649
   84       12.519810
 
 -0.2222222E+00  0.1111111E+00  0.0000000E+00  0.6172840E-02
    1      -15.052441
    2      -14.948717
    3      -14.948402
    4      -14.839370
    5      -11.216285
    6      -11.215480
    7      -11.138067
    8      -11.137825
    9      -11.137264
   10      -11.137004
   11      -11.056860
   12      -11.056072
   13       -9.782612
   14       -9.741403
   15       -9.741252
   16       -9.704849
   17       -8.722633
   18       -8.698512
   19       -8.698403
   20       -8.664947
   21       -7.398340
   22       -7.395038
   23       -7.343580
   24       -7.341727
   25       -7.340220
   26       -7.338494
   27       -7.284941
   28       -7.281648
   29       -3.749147
   30       -3.034576
   31       -3.033193
   32       -2.985809
   33       -2.960032
   34       -2.959920
   35       -2.933395
   36       -2.180483
   37       -2.162128
   38       -2.156600
   39       -2.142892
   40       -2.140360
   41       -2.137346
   42       -2.134968
   43       -2.120929
   44       -2.115376
   45        0.473841
   46        0.482201
   47        0.482711
   48        0.490848
   49        0.657644
   50        0.658859
   51        0.838686
   52        0.845102
   53        0.845208
   54        0.852151
   55        1.176873
   56        1.178484
   57        1.178575
   58        1.180241
   59        1.740421
   60        1.742161
   61        1.917281
   62        2.227091
   63        2.227293
   64        2.458476
   65        5.793058
   66        5.899472
   67        5.901667
   68        6.237803
   69        6.733513
   70        6.738828
   71        7.049769
   72        7.053716
   73        7.055316
   74        7.058916
   75        7.503931
   76        7.508808
   77        8.575901
   78       10.875253
   79       10.878092
   80       11.964520
   81       11.970377
   82       12.104072
   83       12.108553
   84       12.110291
 
 -0.1111111E+00  0.1111111E+00  0.0000000E+00  0.6172840E-02
    1      -15.199163
    2      -15.094432
    3      -15.094114
    4      -14.984059
    5      -10.755643
    6      -10.682130
    7      -10.681903
    8      -10.606225
    9      -10.213754
   10      -10.211514
   11      -10.151858
   12      -10.149228
   13      -10.149221
   14      -10.147441
   15      -10.086906
   16      -10.084735
   17       -8.591750
   18       -8.590032
   19       -8.541104
   20       -8.540359
   21       -8.540350
   22       -8.537436
   23       -8.485707
   24       -8.483767
   25       -8.079772
   26       -8.023462
   27       -8.021560
   28       -7.962720
   29       -3.926754
   30       -3.207998
   31       -3.206608
   32       -2.348276
   33       -2.308232
   34       -2.305564
   35       -2.288926
   36       -2.285435
   37       -2.285431
   38       -2.284425
   39       -2.266122
   40       -2.264092
   41       -2.003810
   42       -1.986606
   43       -1.984257
   44       -1.966762
   45        0.998546
   46        1.008608
   47        1.012701
   48        1.019639
   49        1.082477
   50        1.152741
   51        1.159135
   52        1.162687
   53        1.171997
   54        1.535858
   55        1.537550
   56        1.541525
   57        1.543979
   58        1.906462
   59        1.909981
   60        1.910041
   61        1.911059
   62        1.992933
   63        2.225796
   64        2.227810
   65        5.912873
   66        5.915059
   67        6.104271
   68        6.105893
   69        6.106130
   70        6.111240
   71        6.231860
   72        6.508497
   73        6.512913
   74        6.525577
   75        6.528553
   76        6.975071
   77        8.395020
   78       10.711465
   79       10.714318
   80       11.598509
   81       11.737532
   82       11.738402
   83       11.880471
   84       11.885949
 
 -0.3388132E-20  0.2222222E+00  0.0000000E+00  0.6172840E-02
    1      -14.979202
    2      -14.875903
    3      -14.875590
    4      -14.767084
    5      -11.761607
    6      -11.679079
    7      -11.678809
    8      -11.593494
    9      -10.558728
   10      -10.556100
   11      -10.487827
   12      -10.485426
   13      -10.484867
   14      -10.482614
   15      -10.412020
   16      -10.409395
   17       -7.911916
   18       -7.907309
   19       -7.857953
   20       -7.854750
   21       -7.853045
   22       -7.850025
   23       -7.798454
   24       -7.793842
   25       -6.755237
   26       -6.701893
   27       -6.701723
   28       -6.647212
   29       -3.660548
   30       -2.948105
   31       -2.946723
   32       -2.912023
   33       -2.906739
   34       -2.887358
   35       -2.884821
   36       -2.881939
   37       -2.879574
   38       -2.859631
   39       -2.854312
   40       -2.097015
   41       -1.793527
   42       -1.775606
   43       -1.775529
   44       -1.757593
   45        0.079959
   46        0.183496
   47        0.197752
   48        0.197892
   49        0.212359
   50        0.647633
   51        0.648619
   52        0.730037
   53        0.740759
   54        0.740795
   55        0.751345
   56        1.285072
   57        1.334542
   58        1.337316
   59        1.786038
   60        1.788902
   61        1.788995
   62        1.791800
   63        2.243205
   64        2.245945
   65        6.183952
   66        6.189569
   67        6.431895
   68        6.436421
   69        6.438095
   70        6.442282
   71        6.831778
   72        6.837369
   73        7.395272
   74        7.733240
   75        7.735498
   76        8.189726
   77        8.666334
   78       10.956076
   79       10.958910
   80       11.705599
   81       11.840784
   82       11.841162
   83       11.954582
   84       12.692488
 
  0.1111111E+00  0.2222222E+00  0.0000000E+00  0.6172840E-02
    1      -14.759773
    2      -14.657878
    3      -14.657573
    4      -14.550648
    5      -12.179104
    6      -12.093906
    7      -12.093612
    8      -12.005080
    9      -11.555960
   10      -11.474943
   11      -11.474700
   12      -11.390650
   13       -9.828697
   14       -9.768346
   15       -9.767659
   16       -9.706967
   17       -8.249628
   18       -8.203384
   19       -8.200945
   20       -8.151032
   21       -6.614653
   22       -6.564486
   23       -6.562929
   24       -6.511517
   25       -6.018033
   26       -5.968970
   27       -5.968711
   28       -5.918688
   29       -3.886135
   30       -3.854991
   31       -3.853066
   32       -3.821070
   33       -3.395631
   34       -2.689676
   35       -2.688294
   36       -2.686817
   37       -2.663107
   38       -2.660847
   39       -2.636576
   40       -1.874817
   41       -1.855325
   42       -1.855153
   43       -1.847526
   44       -1.835383
   45       -0.472345
   46       -0.458399
   47       -0.456130
   48       -0.442219
   49       -0.370086