 running on    6 total cores
 distrk:  each k-point on    6 cores,    1 groups
 distr:  one band on    1 cores,    6 groups
 using from now: INCAR     
 vasp.5.3.5 31Mar14 (build Nov 02 2014 15:17:37) complex                        
  
 POSCAR found :  1 types and      32 ions
 scaLAPACK will be used

 ----------------------------------------------------------------------------- 
|                                                                             |
|           W    W    AA    RRRRR   N    N  II  N    N   GGGG   !!!           |
|           W    W   A  A   R    R  NN   N  II  NN   N  G    G  !!!           |
|           W    W  A    A  R    R  N N  N  II  N N  N  G       !!!           |
|           W WW W  AAAAAA  RRRRR   N  N N  II  N  N N  G  GGG   !            |
|           WW  WW  A    A  R   R   N   NN  II  N   NN  G    G                |
|           W    W  A    A  R    R  N    N  II  N    N   GGGG   !!!           |
|                                                                             |
|      For optimal performance we recommend to set                            |
|        NCORE= 4 - approx SQRT( number of cores)                             |
|      NCORE specifies how many cores store one orbital (NPAR=cpu/NCORE).     |
|      This setting can  greatly improve the performance of VASP for DFT.     |
|      The default, NPAR=number of cores might be grossly inefficient         |
|      on modern multi-core architectures or massively parallel machines.     |
|      Do your own testing !!!!                                               |
|      Unfortunately you need to use the default for GW and RPA calculations. |
|      (for HF NCORE is supported but not extensively tested yet)             |
|                                                                             |
 ----------------------------------------------------------------------------- 


 ----------------------------------------------------------------------------- 
|                                                                             |
|  ADVICE TO THIS USER RUNNING 'VASP/VAMP'   (HEAR YOUR MASTER'S VOICE ...):  |
|                                                                             |
|      You have a (more or less) 'large supercell' and for larger cells       |
|      it might be more efficient to use real space projection operators      |
|      So try LREAL= Auto  in the INCAR   file.                               |
|      Mind: If you want to do a very accurate calculations keep the          |
|      reciprocal projection scheme          (i.e. LREAL=.FALSE.)             |
|                                                                             |
 ----------------------------------------------------------------------------- 

 LDA part: xc-table for Pade appr. of Perdew
 POSCAR, INCAR and KPOINTS ok, starting setup
 WARNING: small aliasing (wrap around) errors must be expected
 FFT: planning ...
 WAVECAR not read
 WARNING: random wavefunctions but no delay for mixing, default for NELMDL
 entering main loop
       N       E                     dE             d eps       ncg     rms          rms(c)
DAV:   1     0.611126869656E+03    0.61113E+03   -0.71254E+04 27384   0.159E+03
DAV:   2    -0.260692795964E+03   -0.87182E+03   -0.84061E+03 34260   0.312E+02
DAV:   3    -0.312978350879E+03   -0.52286E+02   -0.51787E+02 33480   0.770E+01
DAV:   4    -0.313994315489E+03   -0.10160E+01   -0.10141E+01 35184   0.117E+01
DAV:   5    -0.314024023816E+03   -0.29708E-01   -0.29696E-01 35448   0.184E+00    0.220E+01
DAV:   6    -0.299469373867E+03    0.14555E+02   -0.14968E+01 31296   0.107E+01    0.116E+01
DAV:   7    -0.294805544684E+03    0.46638E+01   -0.15990E+01 30828   0.110E+01    0.196E+00
DAV:   8    -0.294877656710E+03   -0.72112E-01   -0.49550E-01 31452   0.205E+00    0.474E-01
DAV:   9    -0.294879253084E+03   -0.15964E-02   -0.34695E-02 31812   0.647E-01    0.234E-01
DAV:  10    -0.294877464354E+03    0.17887E-02   -0.14050E-02 42852   0.391E-01    0.133E-01
DAV:  11    -0.294878469504E+03   -0.10051E-02   -0.12730E-02 31104   0.245E-01    0.126E-01
DAV:  12    -0.294879051550E+03   -0.58205E-03   -0.16420E-02 31716   0.272E-01    0.133E-01
DAV:  13    -0.294878525647E+03    0.52590E-03   -0.22136E-03 31392   0.151E-01    0.445E-02
DAV:  14    -0.294878552356E+03   -0.26710E-04   -0.73196E-04 32844   0.585E-02    0.373E-02
DAV:  15    -0.294878567075E+03   -0.14719E-04   -0.16545E-04 31896   0.239E-02    0.528E-02
DAV:  16    -0.294878567019E+03    0.56673E-07   -0.90675E-04 32208   0.380E-02    0.520E-02
DAV:  17    -0.294878540302E+03    0.26716E-04   -0.25533E-04 24708   0.233E-02    0.217E-02
DAV:  18    -0.294878567003E+03   -0.26700E-04   -0.18387E-04 25848   0.164E-02    0.525E-02
DAV:  19    -0.294878545427E+03    0.21575E-04   -0.40255E-04 24720   0.263E-02    0.346E-02
DAV:  20    -0.294878550321E+03   -0.48934E-05   -0.34567E-04 20004   0.192E-02    0.434E-02
DAV:  21    -0.294878539801E+03    0.10520E-04   -0.15954E-04 19476   0.146E-02    0.207E-02
DAV:  22    -0.294878538488E+03    0.13128E-05   -0.20108E-05 19164   0.599E-03    0.965E-03
DAV:  23    -0.294878538299E+03    0.18911E-06   -0.40726E-06 19152   0.286E-03
   1 F= -.29777298E+03 E0= -.29777298E+03  d E =0.000000E+00
