  32  32   0   0
  0.3988355E+01  0.4934311E-09  0.4934311E-09  0.6053168E-09  0.5000000E-15
  1.000000000000000E-004
  CAR 
 graphite                                
     27.10039065    -13.22809356  301     17.56411262      1.00000000
    -13.228  0.0000E+00  0.0000E+00
    -13.094  0.0000E+00  0.0000E+00
    -12.959  0.0000E+00  0.0000E+00
    -12.825  0.0000E+00  0.0000E+00
    -12.690  0.0000E+00  0.0000E+00
    -12.556  0.0000E+00  0.0000E+00
    -12.422  0.0000E+00  0.0000E+00
    -12.287  0.0000E+00  0.0000E+00
    -12.153  0.0000E+00  0.0000E+00
    -12.018  0.0000E+00  0.0000E+00
    -11.884  0.0000E+00  0.0000E+00
    -11.749  0.0000E+00  0.0000E+00
    -11.615  0.0000E+00  0.0000E+00
    -11.481  0.0000E+00  0.0000E+00
    -11.346  0.0000E+00  0.0000E+00
    -11.212  0.7904E-02  0.4327E-04
    -11.077  0.3613E+00  0.2420E-01
    -10.943  0.6251E+00  0.9506E-01
    -10.808  0.7504E+00  0.1880E+00
    -10.674  0.8884E+00  0.2973E+00
    -10.540  0.1011E+01  0.4253E+00
    -10.405  0.1126E+01  0.5686E+00
    -10.271  0.1219E+01  0.7260E+00
    -10.136  0.1291E+01  0.8951E+00
    -10.002  0.1360E+01  0.1073E+01
     -9.867  0.1511E+01  0.1266E+01
     -9.733  0.1607E+01  0.1476E+01
     -9.599  0.1721E+01  0.1705E+01
     -9.464  0.1530E+01  0.1924E+01
     -9.330  0.1764E+01  0.2138E+01
     -9.195  0.2095E+01  0.2401E+01
     -9.061  0.2263E+01  0.2690E+01
     -8.926  0.2355E+01  0.3010E+01
     -8.792  0.1952E+01  0.3337E+01
     -8.658  0.1533E+01  0.3575E+01
     -8.523  0.1282E+01  0.3760E+01
     -8.389  0.1411E+01  0.3938E+01
     -8.254  0.2489E+01  0.4181E+01
     -8.120  0.2771E+01  0.4561E+01
     -7.985  0.2463E+01  0.4910E+01
     -7.851  0.2222E+01  0.5226E+01
     -7.717  0.2217E+01  0.5518E+01
     -7.582  0.2340E+01  0.5833E+01
     -7.448  0.2388E+01  0.6148E+01
     -7.313  0.2721E+01  0.6491E+01
     -7.179  0.3025E+01  0.6876E+01
     -7.044  0.3380E+01  0.7309E+01
     -6.910  0.3127E+01  0.7743E+01
     -6.776  0.2948E+01  0.8151E+01
     -6.641  0.2807E+01  0.8536E+01
     -6.507  0.2868E+01  0.8914E+01
     -6.372  0.2926E+01  0.9301E+01
     -6.238  0.3048E+01  0.9695E+01
     -6.103  0.3295E+01  0.1012E+02
     -5.969  0.3123E+01  0.1057E+02
     -5.835  0.3107E+01  0.1098E+02
     -5.700  0.3214E+01  0.1142E+02
     -5.566  0.2957E+01  0.1182E+02
     -5.431  0.3477E+01  0.1226E+02
     -5.297  0.3558E+01  0.1273E+02
     -5.162  0.3811E+01  0.1322E+02
     -5.028  0.4068E+01  0.1375E+02
     -4.894  0.3825E+01  0.1428E+02
     -4.759  0.3422E+01  0.1477E+02
     -4.625  0.2567E+01  0.1518E+02
     -4.490  0.2383E+01  0.1551E+02
     -4.356  0.2406E+01  0.1583E+02
     -4.221  0.2648E+01  0.1616E+02
     -4.087  0.3120E+01  0.1653E+02
     -3.953  0.3665E+01  0.1702E+02
     -3.818  0.3568E+01  0.1751E+02
     -3.684  0.3492E+01  0.1799E+02
     -3.549  0.3540E+01  0.1846E+02
     -3.415  0.3512E+01  0.1894E+02
     -3.280  0.3376E+01  0.1940E+02
     -3.146  0.3133E+01  0.1984E+02
     -3.012  0.2803E+01  0.2021E+02
     -2.877  0.3015E+01  0.2060E+02
     -2.743  0.3571E+01  0.2104E+02
     -2.608  0.4113E+01  0.2156E+02
     -2.474  0.4301E+01  0.2215E+02
     -2.339  0.4881E+01  0.2275E+02
     -2.205  0.4383E+01  0.2337E+02
     -2.071  0.4440E+01  0.2396E+02
     -1.936  0.4207E+01  0.2455E+02
     -1.802  0.3466E+01  0.2505E+02
     -1.667  0.3116E+01  0.2549E+02
     -1.533  0.3114E+01  0.2589E+02
     -1.398  0.3501E+01  0.2634E+02
     -1.264  0.3747E+01  0.2683E+02
     -1.130  0.4394E+01  0.2738E+02
     -0.995  0.5169E+01  0.2803E+02
     -0.861  0.5551E+01  0.2875E+02
     -0.726  0.5210E+01  0.2946E+02
     -0.592  0.5120E+01  0.3018E+02
     -0.457  0.4529E+01  0.3081E+02
     -0.323  0.4351E+01  0.3143E+02
     -0.189  0.4027E+01  0.3199E+02
     -0.054  0.3939E+01  0.3252E+02
      0.080  0.4221E+01  0.3307E+02
      0.215  0.4862E+01  0.3367E+02
      0.349  0.5881E+01  0.3441E+02
      0.484  0.5410E+01  0.3518E+02
      0.618  0.4556E+01  0.3585E+02
      0.752  0.3987E+01  0.3642E+02
      0.887  0.3864E+01  0.3693E+02
      1.021  0.5385E+01  0.3754E+02
      1.156  0.5817E+01  0.3831E+02
      1.290  0.5786E+01  0.3908E+02
      1.425  0.5328E+01  0.3983E+02
      1.559  0.5082E+01  0.4053E+02
      1.693  0.5264E+01  0.4121E+02
      1.828  0.5551E+01  0.4192E+02
      1.962  0.4794E+01  0.4265E+02
      2.097  0.4587E+01  0.4328E+02
      2.231  0.4653E+01  0.4390E+02
      2.366  0.4816E+01  0.4453E+02
      2.500  0.4699E+01  0.4517E+02
      2.634  0.5194E+01  0.4583E+02
      2.769  0.4930E+01  0.4652E+02
      2.903  0.4794E+01  0.4717E+02
      3.038  0.4631E+01  0.4780E+02
      3.172  0.5466E+01  0.4847E+02
      3.307  0.6364E+01  0.4925E+02
      3.441  0.6830E+01  0.5016E+02
      3.575  0.6749E+01  0.5105E+02
      3.710  0.6626E+01  0.5197E+02
      3.844  0.5610E+01  0.5278E+02
      3.979  0.5511E+01  0.5350E+02
      4.113  0.7119E+01  0.5437E+02
      4.248  0.7579E+01  0.5533E+02
      4.382  0.5705E+01  0.5617E+02
      4.516  0.5957E+01  0.5693E+02
      4.651  0.6449E+01  0.5778E+02
      4.785  0.5789E+01  0.5861E+02
      4.920  0.6063E+01  0.5939E+02
      5.054  0.6954E+01  0.6033E+02
      5.189  0.5331E+01  0.6111E+02
      5.323  0.6008E+01  0.6185E+02
      5.457  0.7827E+01  0.6277E+02
      5.592  0.8243E+01  0.6387E+02
      5.726  0.6591E+01  0.6485E+02
      5.861  0.6123E+01  0.6568E+02
      5.995  0.6900E+01  0.6654E+02
      6.130  0.7432E+01  0.6752E+02
      6.264  0.6852E+01  0.6852E+02
      6.398  0.6986E+01  0.6944E+02
      6.533  0.7387E+01  0.7043E+02
      6.667  0.7208E+01  0.7141E+02
      6.802  0.6521E+01  0.7232E+02
      6.936  0.6601E+01  0.7318E+02
      7.071  0.6719E+01  0.7409E+02
      7.205  0.6804E+01  0.7497E+02
      7.339  0.7125E+01  0.7600E+02
      7.474  0.6070E+01  0.7688E+02
      7.608  0.5193E+01  0.7763E+02
      7.743  0.4998E+01  0.7832E+02
      7.877  0.4886E+01  0.7898E+02
      8.012  0.4757E+01  0.7964E+02
      8.146  0.4769E+01  0.8028E+02
      8.280  0.4779E+01  0.8092E+02
      8.415  0.4903E+01  0.8157E+02
      8.549  0.5219E+01  0.8225E+02
      8.684  0.5649E+01  0.8298E+02
      8.818  0.5717E+01  0.8374E+02
      8.953  0.5978E+01  0.8454E+02
      9.087  0.5973E+01  0.8533E+02
      9.221  0.5994E+01  0.8613E+02
      9.356  0.5800E+01  0.8698E+02
      9.490  0.4820E+01  0.8768E+02
      9.625  0.4354E+01  0.8831E+02
      9.759  0.4257E+01  0.8886E+02
      9.894  0.4952E+01  0.8950E+02
     10.028  0.4801E+01  0.9015E+02
     10.162  0.4405E+01  0.9076E+02
     10.297  0.4689E+01  0.9137E+02
     10.431  0.5913E+01  0.9208E+02
     10.566  0.6774E+01  0.9295E+02
     10.700  0.5547E+01  0.9380E+02
     10.835  0.4369E+01  0.9444E+02
     10.969  0.5059E+01  0.9504E+02
     11.103  0.5605E+01  0.9576E+02
     11.238  0.6472E+01  0.9660E+02
     11.372  0.6274E+01  0.9747E+02
     11.507  0.5819E+01  0.9829E+02
     11.641  0.5426E+01  0.9905E+02
     11.776  0.6298E+01  0.9980E+02
     11.910  0.5141E+01  0.1007E+03
     12.044  0.5531E+01  0.1013E+03
     12.179  0.7698E+01  0.1022E+03
     12.313  0.6119E+01  0.1032E+03
     12.448  0.7394E+01  0.1042E+03
     12.582  0.6780E+01  0.1052E+03
     12.717  0.5190E+01  0.1059E+03
     12.851  0.4291E+01  0.1066E+03
     12.985  0.3946E+01  0.1071E+03
     13.120  0.3736E+01  0.1077E+03
     13.254  0.3592E+01  0.1081E+03
     13.389  0.3438E+01  0.1086E+03
     13.523  0.3144E+01  0.1091E+03
     13.658  0.2924E+01  0.1095E+03
     13.792  0.2421E+01  0.1098E+03
     13.926  0.2394E+01  0.1101E+03
     14.061  0.2534E+01  0.1105E+03
     14.195  0.2533E+01  0.1108E+03
     14.330  0.2916E+01  0.1112E+03
     14.464  0.2994E+01  0.1116E+03
     14.599  0.2905E+01  0.1120E+03
     14.733  0.3012E+01  0.1124E+03
     14.867  0.3363E+01  0.1128E+03
     15.002  0.3649E+01  0.1133E+03
     15.136  0.4061E+01  0.1138E+03
     15.271  0.4746E+01  0.1144E+03
     15.405  0.5029E+01  0.1150E+03
     15.540  0.5383E+01  0.1157E+03
     15.674  0.5672E+01  0.1165E+03
     15.808  0.6337E+01  0.1173E+03
     15.943  0.6965E+01  0.1182E+03
     16.077  0.8012E+01  0.1192E+03
     16.212  0.7492E+01  0.1202E+03
     16.346  0.6718E+01  0.1212E+03
     16.481  0.5553E+01  0.1220E+03
     16.615  0.5648E+01  0.1227E+03
     16.749  0.5356E+01  0.1235E+03
     16.884  0.4524E+01  0.1242E+03
     17.018  0.4489E+01  0.1248E+03
     17.153  0.4668E+01  0.1254E+03
     17.287  0.5440E+01  0.1261E+03
     17.422  0.7052E+01  0.1269E+03
     17.556  0.7506E+01  0.1279E+03
     17.690  0.8055E+01  0.1289E+03
     17.825  0.8978E+01  0.1301E+03
     17.959  0.9849E+01  0.1313E+03
     18.094  0.1061E+02  0.1328E+03
     18.228  0.1009E+02  0.1342E+03
     18.363  0.1295E+02  0.1358E+03
     18.497  0.1588E+02  0.1378E+03
     18.631  0.1064E+02  0.1396E+03
     18.766  0.7392E+01  0.1408E+03
     18.900  0.8573E+01  0.1418E+03
     19.035  0.8830E+01  0.1430E+03
     19.169  0.9440E+01  0.1442E+03
     19.304  0.8410E+01  0.1454E+03
     19.438  0.7534E+01  0.1465E+03
     19.572  0.6836E+01  0.1475E+03
     19.707  0.6671E+01  0.1484E+03
     19.841  0.6314E+01  0.1493E+03
     19.976  0.6329E+01  0.1501E+03
     20.110  0.6142E+01  0.1509E+03
     20.245  0.8646E+01  0.1519E+03
     20.379  0.6390E+01  0.1530E+03
     20.513  0.5132E+01  0.1537E+03
     20.648  0.5104E+01  0.1544E+03
     20.782  0.5593E+01  0.1551E+03
     20.917  0.3956E+01  0.1558E+03
     21.051  0.4038E+01  0.1563E+03
     21.186  0.3850E+01  0.1568E+03
     21.320  0.3554E+01  0.1573E+03
     21.454  0.5588E+01  0.1579E+03
     21.589  0.4803E+01  0.1586E+03
     21.723  0.4265E+01  0.1592E+03
     21.858  0.4123E+01  0.1598E+03
     21.992  0.4370E+01  0.1604E+03
     22.127  0.3960E+01  0.1610E+03
     22.261  0.3439E+01  0.1615E+03
     22.395  0.3085E+01  0.1619E+03
     22.530  0.2924E+01  0.1623E+03
     22.664  0.2771E+01  0.1627E+03
     22.799  0.2469E+01  0.1630E+03
     22.933  0.2396E+01  0.1634E+03
     23.068  0.2704E+01  0.1637E+03
     23.202  0.2744E+01  0.1641E+03
     23.336  0.2494E+01  0.1644E+03
     23.471  0.3070E+01  0.1648E+03
     23.605  0.2997E+01  0.1652E+03
     23.740  0.2990E+01  0.1656E+03
     23.874  0.2808E+01  0.1660E+03
     24.009  0.2620E+01  0.1664E+03
     24.143  0.2711E+01  0.1667E+03
     24.277  0.2658E+01  0.1671E+03
     24.412  0.1878E+01  0.1674E+03
     24.546  0.1580E+01  0.1676E+03
     24.681  0.1236E+01  0.1678E+03
     24.815  0.6634E+00  0.1680E+03
     24.950  0.5735E-01  0.1680E+03
     25.084  0.6629E-04  0.1680E+03
     25.218  0.0000E+00  0.1680E+03
     25.353  0.0000E+00  0.1680E+03
     25.487  0.0000E+00  0.1680E+03
     25.622  0.0000E+00  0.1680E+03
     25.756  0.0000E+00  0.1680E+03
     25.891  0.0000E+00  0.1680E+03
     26.025  0.0000E+00  0.1680E+03
     26.159  0.0000E+00  0.1680E+03
     26.294  0.0000E+00  0.1680E+03
     26.428  0.0000E+00  0.1680E+03
     26.563  0.0000E+00  0.1680E+03
     26.697  0.0000E+00  0.1680E+03
     26.832  0.0000E+00  0.1680E+03
     26.966  0.0000E+00  0.1680E+03
     27.100  0.0000E+00  0.1680E+03
