       N       E                     dE             d eps       ncg     rms          rms(c)
DAV:   1     0.529677275237E+03    0.52968E+03   -0.79814E+04 27384   0.175E+03
DAV:   2    -0.143901270508E+03   -0.67358E+03   -0.63796E+03 34632   0.320E+02
DAV:   3    -0.178857685573E+03   -0.34956E+02   -0.33562E+02 33504   0.629E+01
DAV:   4    -0.179490368750E+03   -0.63268E+00   -0.62525E+00 32556   0.837E+00
DAV:   5    -0.179504749341E+03   -0.14381E-01   -0.14349E-01 34128   0.100E+00    0.213E+01
DAV:   6    -0.170125716489E+03    0.93790E+01   -0.69370E+00 29904   0.945E+00    0.113E+01
DAV:   7    -0.167086626792E+03    0.30391E+01   -0.51982E+00 29784   0.839E+00    0.166E+00
DAV:   8    -0.167077512520E+03    0.91143E-02   -0.31836E-01 34332   0.195E+00    0.879E-01
DAV:   9    -0.167065186854E+03    0.12326E-01   -0.95877E-02 35724   0.104E+00    0.415E-01
DAV:  10    -0.167065476996E+03   -0.29014E-03   -0.12989E-02 32832   0.336E-01    0.251E-01
DAV:  11    -0.167065377211E+03    0.99785E-04   -0.31217E-03 32244   0.177E-01    0.478E-02
DAV:  12    -0.167065420904E+03   -0.43692E-04   -0.36328E-04 32208   0.611E-02    0.276E-02
DAV:  13    -0.167065425602E+03   -0.46981E-05   -0.80597E-05 34068   0.266E-02    0.164E-02
DAV:  14    -0.167065431942E+03   -0.63407E-05   -0.17807E-05 33744   0.138E-02    0.991E-03
DAV:  15    -0.167065433260E+03   -0.13177E-05   -0.86652E-06 22464   0.817E-03    0.446E-03
DAV:  16    -0.167065432209E+03    0.10512E-05   -0.15108E-06 17016   0.383E-03    0.129E-03
DAV:  17    -0.167065432576E+03   -0.36661E-06   -0.21138E-07 16524   0.156E-03
   1 F= -.17215117E+03 E0= -.17215117E+03  d E =0.000000E+00
