   4   4   0   0
  0.8905205E+01  0.2466437E-09  0.2466437E-09  0.6764386E-09  0.5000000E-15
  1.000000000000000E-004
  CAR 
 graphite                                
     18.47651825    -17.01784825  301      4.60054672      1.00000000
    -17.018  0.0000E+00  0.0000E+00
    -16.900  0.0000E+00  0.0000E+00
    -16.781  0.0000E+00  0.0000E+00
    -16.663  0.0000E+00  0.0000E+00
    -16.545  0.0000E+00  0.0000E+00
    -16.426  0.0000E+00  0.0000E+00
    -16.308  0.0000E+00  0.0000E+00
    -16.190  0.0000E+00  0.0000E+00
    -16.071  0.0000E+00  0.0000E+00
    -15.953  0.0000E+00  0.0000E+00
    -15.835  0.0000E+00  0.0000E+00
    -15.716  0.0000E+00  0.0000E+00
    -15.598  0.0000E+00  0.0000E+00
    -15.480  0.0000E+00  0.0000E+00
    -15.361  0.0000E+00  0.0000E+00
    -15.243  0.0000E+00  0.0000E+00
    -15.125  0.0000E+00  0.0000E+00
    -15.007  0.2406E-04  0.9165E-07
    -14.888  0.1215E-02  0.6122E-04
    -14.770  0.1993E-02  0.2616E-03
    -14.652  0.3093E-02  0.5654E-03
    -14.533  0.3016E-02  0.9328E-03
    -14.415  0.3153E-02  0.1301E-02
    -14.297  0.3117E-02  0.1672E-02
    -14.178  0.3016E-02  0.2035E-02
    -14.060  0.3034E-02  0.2391E-02
    -13.942  0.3144E-02  0.2756E-02
    -13.823  0.3180E-02  0.3133E-02
    -13.705  0.3158E-02  0.3508E-02
    -13.587  0.3066E-02  0.3877E-02
    -13.468  0.3058E-02  0.4239E-02
    -13.350  0.3078E-02  0.4602E-02
    -13.232  0.3127E-02  0.4969E-02
    -13.113  0.3185E-02  0.5342E-02
    -12.995  0.3223E-02  0.5722E-02
    -12.877  0.3193E-02  0.6102E-02
    -12.759  0.3142E-02  0.6477E-02
    -12.640  0.3118E-02  0.6847E-02
    -12.522  0.3134E-02  0.7216E-02
    -12.404  0.3151E-02  0.7588E-02
    -12.285  0.3174E-02  0.7962E-02
    -12.167  0.3206E-02  0.8340E-02
    -12.049  0.3244E-02  0.8721E-02
    -11.930  0.3276E-02  0.9107E-02
    -11.812  0.3265E-02  0.9494E-02
    -11.694  0.3233E-02  0.9879E-02
    -11.575  0.3226E-02  0.1026E-01
    -11.457  0.3235E-02  0.1064E-01
    -11.339  0.3259E-02  0.1103E-01
    -11.220  0.3288E-02  0.1141E-01
    -11.102  0.3317E-02  0.1181E-01
    -10.984  0.3347E-02  0.1220E-01
    -10.865  0.3391E-02  0.1260E-01
    -10.747  0.3453E-02  0.1300E-01
    -10.629  0.3517E-02  0.1342E-01
    -10.511  0.3572E-02  0.1383E-01
    -10.392  0.3663E-02  0.1426E-01
    -10.274  0.3810E-02  0.1470E-01
    -10.156  0.3969E-02  0.1516E-01
    -10.037  0.5271E-02  0.1571E-01
     -9.919  0.6129E-02  0.1639E-01
     -9.801  0.4794E-02  0.1703E-01
     -9.682  0.3469E-02  0.1752E-01
     -9.564  0.2748E-02  0.1788E-01
     -9.446  0.2467E-02  0.1819E-01
     -9.327  0.2186E-02  0.1846E-01
     -9.209  0.3722E-02  0.1886E-01
     -9.091  0.2011E-02  0.1927E-01
     -8.972  0.1171E-02  0.1942E-01
     -8.854  0.1032E-02  0.1955E-01
     -8.736  0.8916E-03  0.1966E-01
     -8.618  0.7561E-03  0.1976E-01
     -8.499  0.9428E-03  0.1986E-01
     -8.381  0.1229E-02  0.1999E-01
     -8.263  0.1516E-02  0.2015E-01
     -8.144  0.2792E-02  0.2038E-01
     -8.026  0.5384E-02  0.2086E-01
     -7.908  0.4457E-02  0.2145E-01
     -7.789  0.3753E-02  0.2190E-01
     -7.671  0.4488E-02  0.2239E-01
     -7.553  0.5223E-02  0.2296E-01
     -7.434  0.5958E-02  0.2363E-01
     -7.316  0.5164E-02  0.2433E-01
     -7.198  0.3569E-02  0.2482E-01
     -7.079  0.3462E-02  0.2524E-01
     -6.961  0.3373E-02  0.2564E-01
     -6.843  0.3287E-02  0.2603E-01
     -6.724  0.3202E-02  0.2642E-01
     -6.606  0.3109E-02  0.2679E-01
     -6.488  0.3014E-02  0.2715E-01
     -6.370  0.2919E-02  0.2750E-01
     -6.251  0.2825E-02  0.2784E-01
     -6.133  0.2730E-02  0.2817E-01
     -6.015  0.2635E-02  0.2849E-01
     -5.896  0.2567E-02  0.2880E-01
     -5.778  0.2786E-02  0.2911E-01
     -5.660  0.3016E-02  0.2946E-01
     -5.541  0.3246E-02  0.2983E-01
     -5.423  0.3476E-02  0.3022E-01
     -5.305  0.3707E-02  0.3065E-01
     -5.186  0.3937E-02  0.3110E-01
     -5.068  0.4167E-02  0.3158E-01
     -4.950  0.4153E-02  0.3207E-01
     -4.831  0.3944E-02  0.3255E-01
     -4.713  0.3824E-02  0.3301E-01
     -4.595  0.3823E-02  0.3346E-01
     -4.477  0.3821E-02  0.3391E-01
     -4.358  0.3820E-02  0.3437E-01
     -4.240  0.3864E-02  0.3482E-01
     -4.122  0.3943E-02  0.3528E-01
     -4.003  0.4023E-02  0.3575E-01
     -3.885  0.4104E-02  0.3623E-01
     -3.767  0.4360E-02  0.3673E-01
     -3.648  0.4839E-02  0.3728E-01
     -3.530  0.5057E-02  0.3786E-01
     -3.412  0.5406E-02  0.3848E-01
     -3.293  0.5669E-02  0.3913E-01
     -3.175  0.5862E-02  0.3981E-01
     -3.057  0.6027E-02  0.4052E-01
     -2.938  0.6375E-02  0.4125E-01
     -2.820  0.7124E-02  0.4204E-01
     -2.702  0.7327E-02  0.4290E-01
     -2.583  0.7230E-02  0.4376E-01
     -2.465  0.6998E-02  0.4461E-01
     -2.347  0.6571E-02  0.4540E-01
     -2.229  0.7489E-02  0.4620E-01
     -2.110  0.8370E-02  0.4715E-01
     -1.992  0.9293E-02  0.4819E-01
     -1.874  0.1062E-01  0.4937E-01
     -1.755  0.1432E-01  0.5089E-01
     -1.637  0.1084E-01  0.5233E-01
     -1.519  0.9382E-02  0.5351E-01
     -1.400  0.8240E-02  0.5456E-01
     -1.282  0.7407E-02  0.5547E-01
     -1.164  0.5361E-02  0.5624E-01
     -1.045  0.4632E-02  0.5681E-01
     -0.927  0.4750E-02  0.5736E-01
     -0.809  0.5257E-02  0.5795E-01
     -0.690  0.6364E-02  0.5862E-01
     -0.572  0.6612E-02  0.5942E-01
     -0.454  0.7046E-02  0.6021E-01
     -0.335  0.9051E-02  0.6121E-01
     -0.217  0.7724E-02  0.6219E-01
     -0.099  0.7058E-02  0.6306E-01
      0.019  0.6623E-02  0.6387E-01
      0.138  0.6302E-02  0.6464E-01
      0.256  0.5999E-02  0.6536E-01
      0.374  0.5792E-02  0.6606E-01
      0.493  0.5717E-02  0.6674E-01
      0.611  0.6003E-02  0.6743E-01
      0.729  0.5869E-02  0.6814E-01
      0.848  0.5744E-02  0.6882E-01
      0.966  0.5938E-02  0.6950E-01
      1.084  0.5794E-02  0.7020E-01
      1.203  0.5485E-02  0.7087E-01
      1.321  0.6086E-02  0.7155E-01
      1.439  0.5145E-02  0.7221E-01
      1.558  0.4248E-02  0.7277E-01
      1.676  0.4395E-02  0.7325E-01
      1.794  0.4703E-02  0.7379E-01
      1.912  0.4446E-02  0.7433E-01
      2.031  0.4376E-02  0.7486E-01
      2.149  0.4391E-02  0.7537E-01
      2.267  0.4351E-02  0.7589E-01
      2.386  0.4336E-02  0.7640E-01
      2.504  0.4294E-02  0.7691E-01
      2.622  0.3526E-02  0.7740E-01
      2.741  0.3328E-02  0.7781E-01
      2.859  0.2722E-02  0.7816E-01
      2.977  0.2281E-02  0.7846E-01
      3.096  0.1937E-02  0.7871E-01
      3.214  0.1764E-02  0.7893E-01
      3.332  0.1584E-02  0.7912E-01
      3.451  0.1400E-02  0.7930E-01
      3.569  0.1217E-02  0.7946E-01
      3.687  0.1024E-02  0.7959E-01
      3.806  0.8446E-03  0.7970E-01
      3.924  0.6892E-03  0.7979E-01
      4.042  0.5361E-03  0.7986E-01
      4.160  0.4032E-03  0.7992E-01
      4.279  0.2825E-03  0.7996E-01
      4.397  0.1708E-03  0.7998E-01
      4.515  0.6641E-04  0.8000E-01
      4.634  0.1870E-04  0.8000E-01
      4.752  0.9786E-04  0.8001E-01
      4.870  0.1852E-03  0.8002E-01
      4.989  0.2824E-03  0.8005E-01
      5.107  0.3906E-03  0.8009E-01
      5.225  0.5156E-03  0.8014E-01
      5.344  0.6711E-03  0.8021E-01
      5.462  0.8352E-03  0.8030E-01
      5.580  0.9997E-03  0.8041E-01
      5.699  0.1276E-02  0.8054E-01
      5.817  0.1984E-02  0.8074E-01
      5.935  0.2319E-02  0.8100E-01
      6.053  0.2566E-02  0.8128E-01
      6.172  0.4070E-02  0.8165E-01
      6.290  0.5972E-02  0.8227E-01
      6.408  0.4555E-02  0.8285E-01
      6.527  0.4491E-02  0.8339E-01
      6.645  0.4439E-02  0.8391E-01
      6.763  0.4407E-02  0.8443E-01
      6.882  0.4416E-02  0.8496E-01
      7.000  0.4081E-02  0.8546E-01
      7.118  0.3384E-02  0.8589E-01
      7.237  0.3176E-02  0.8628E-01
      7.355  0.3004E-02  0.8664E-01
      7.473  0.2858E-02  0.8699E-01
      7.592  0.2736E-02  0.8732E-01
      7.710  0.2639E-02  0.8764E-01
      7.828  0.2571E-02  0.8795E-01
      7.947  0.2510E-02  0.8825E-01
      8.065  0.2457E-02  0.8854E-01
      8.183  0.2406E-02  0.8883E-01
      8.301  0.2356E-02  0.8911E-01
      8.420  0.2307E-02  0.8939E-01
      8.538  0.2258E-02  0.8966E-01
      8.656  0.2209E-02  0.8992E-01
      8.775  0.2145E-02  0.9018E-01
      8.893  0.2100E-02  0.9043E-01
      9.011  0.2227E-02  0.9068E-01
      9.130  0.2343E-02  0.9096E-01
      9.248  0.2338E-02  0.9123E-01
      9.366  0.2393E-02  0.9151E-01
      9.485  0.2473E-02  0.9180E-01
      9.603  0.2529E-02  0.9210E-01
      9.721  0.2547E-02  0.9240E-01
      9.840  0.2577E-02  0.9270E-01
      9.958  0.2623E-02  0.9301E-01
     10.076  0.2673E-02  0.9332E-01
     10.194  0.2724E-02  0.9364E-01
     10.313  0.3420E-02  0.9400E-01
     10.431  0.3701E-02  0.9442E-01
     10.549  0.3469E-02  0.9485E-01
     10.668  0.3069E-02  0.9524E-01
     10.786  0.2649E-02  0.9557E-01
     10.904  0.2434E-02  0.9588E-01
     11.023  0.2132E-02  0.9614E-01
     11.141  0.2027E-02  0.9638E-01
     11.259  0.1940E-02  0.9662E-01
     11.378  0.1918E-02  0.9685E-01
     11.496  0.2012E-02  0.9708E-01
     11.614  0.2146E-02  0.9732E-01
     11.733  0.2339E-02  0.9759E-01
     11.851  0.2772E-02  0.9789E-01
     11.969  0.4223E-02  0.9829E-01
     12.088  0.5940E-02  0.9888E-01
     12.206  0.6819E-02  0.9963E-01
     12.324  0.8484E-02  0.1006E+00
     12.442  0.9156E-02  0.1016E+00
     12.561  0.9777E-02  0.1027E+00
     12.679  0.1017E-01  0.1039E+00
     12.797  0.1012E-01  0.1051E+00
     12.916  0.1005E-01  0.1063E+00
     13.034  0.1452E-01  0.1078E+00
     13.152  0.1082E-01  0.1093E+00
     13.271  0.7375E-02  0.1104E+00
     13.389  0.5899E-02  0.1111E+00
     13.507  0.5085E-02  0.1118E+00
     13.626  0.4858E-02  0.1123E+00
     13.744  0.4938E-02  0.1129E+00
     13.862  0.4723E-02  0.1135E+00
     13.981  0.4156E-02  0.1140E+00
     14.099  0.3653E-02  0.1145E+00
     14.217  0.3213E-02  0.1149E+00
     14.336  0.2940E-02  0.1153E+00
     14.454  0.3124E-02  0.1156E+00
     14.572  0.3970E-02  0.1160E+00
     14.690  0.4045E-02  0.1166E+00
     14.809  0.3637E-02  0.1170E+00
     14.927  0.3831E-02  0.1174E+00
     15.045  0.4448E-02  0.1179E+00
     15.164  0.3566E-02  0.1184E+00
     15.282  0.2568E-02  0.1188E+00
     15.400  0.2082E-02  0.1191E+00
     15.519  0.1733E-02  0.1193E+00
     15.637  0.1612E-02  0.1195E+00
     15.755  0.1396E-02  0.1197E+00
     15.874  0.8240E-03  0.1198E+00
     15.992  0.6197E-03  0.1199E+00
     16.110  0.3586E-03  0.1200E+00
     16.229  0.1658E-03  0.1200E+00
     16.347  0.4418E-04  0.1200E+00
     16.465  0.2649E-06  0.1200E+00
     16.583  0.0000E+00  0.1200E+00
     16.702  0.0000E+00  0.1200E+00
     16.820  0.0000E+00  0.1200E+00
     16.938  0.0000E+00  0.1200E+00
     17.057  0.0000E+00  0.1200E+00
     17.175  0.0000E+00  0.1200E+00
     17.293  0.0000E+00  0.1200E+00
     17.412  0.0000E+00  0.1200E+00
     17.530  0.0000E+00  0.1200E+00
     17.648  0.0000E+00  0.1200E+00
     17.767  0.0000E+00  0.1200E+00
     17.885  0.0000E+00  0.1200E+00
     18.003  0.0000E+00  0.1200E+00
     18.122  0.0000E+00  0.1200E+00
     18.240  0.0000E+00  0.1200E+00
     18.358  0.0000E+00  0.1200E+00
     18.477  0.0000E+00  0.1200E+00
