    4    4  200    1
  0.8905205E+01  0.2466437E-09  0.2466437E-09  0.6764386E-09  0.5000000E-15
  1.000000000000000E-004
  CAR 
 graphite                                
     16    215     12
 
  0.0000000E+00  0.0000000E+00  0.0000000E+00  0.8680556E-03
    1      -15.016949
    2      -14.735184
    3       -3.859947
    4       -1.974034
    5        1.598945
    6        1.615495
    7        1.616184
    8        1.632177
    9        8.844665
   10       12.937724
   11       12.943728
   12       12.986155
 
  0.8333333E-01  0.0000000E+00  0.0000000E+00  0.3472222E-02
    1      -14.851341
    2      -14.572348
    3       -3.659038
    4       -1.785874
    5        0.952316
    6        0.983486
    7        1.259824
    8        1.285852
    9        9.045308
   10       12.989671
   11       13.068939
   12       13.649005
 
  0.1666667E+00 -0.1387779E-16  0.0000000E+00  0.3472222E-02
    1      -14.356214
    2      -14.085634
    3       -3.060606
    4       -1.227743
    5       -0.702295
    6       -0.642483
    7        0.460916
    8        0.498292
    9        9.648695
   10       12.885763
   11       13.058537
   12       13.824955
 
  0.2500000E+00  0.0000000E+00  0.0000000E+00  0.3472222E-02
    1      -13.537498
    2      -13.280806
    3       -2.819634
    4       -2.727417
    5       -2.080221
    6       -0.422933
    7       -0.378348
    8       -0.323857
    9       10.648066
   10       11.567809
   11       12.170431
   12       12.553161
 
  0.3333333E+00  0.0000000E+00  0.0000000E+00  0.3472222E-02
    1      -12.407701
    2      -12.170002
    3       -5.041728
    4       -4.916969
    5       -1.158245
    6       -1.109946
    7       -0.757923
    8        0.859425
    9        9.136803
   10        9.994156
   11       11.941773
   12       12.224757
 
  0.4166667E+00  0.0000000E+00  0.0000000E+00  0.3472222E-02
    1      -10.997431
    2      -10.785967
    3       -7.157623
    4       -7.005554
    5       -1.632439
    6       -1.581665
    7        0.784334
    8        2.085078
    9        6.990609
   10        7.938764
   11       11.906591
   12       12.257979
 
  0.5000000E+00  0.0000000E+00  0.0000000E+00  0.1736111E-02
    1       -9.687610
    2       -9.582103
    3       -8.620861
    4       -8.541357
    5       -1.794987
    6       -1.743486
    7        1.868271
    8        2.529897
    9        6.119575
   10        6.775484
   11       11.816411
   12       12.188572
 
  0.8333333E-01  0.8333333E-01  0.0000000E+00  0.1736111E-02
    1      -14.520705
    2      -14.247344
    3       -3.259020
    4       -1.412322
    5       -0.082170
    6       -0.052489
    7        0.583547
    8        0.605573
    9        9.448970
   10       13.268109
   11       13.378700
   12       14.328488
 
  0.1666667E+00  0.8333333E-01  0.0000000E+00  0.3472222E-02
    1      -13.863638
    2      -13.601363
    3       -2.468489
    4       -1.813169
    5       -1.749599
    6       -0.679427
    7       -0.423086
    8       -0.382127
    9       10.256206
   10       12.495050
   11       12.917474
   12       13.353689
 
  0.2500000E+00  0.8333333E-01  0.0000000E+00  0.3472222E-02
    1      -12.888857
    2      -12.643132
    3       -3.908552
    4       -3.805953
    5       -1.316779
    6       -1.312293
    7       -1.261823
    8        0.374143
    9       10.235312
   10       10.893284
   11       11.452333
   12       13.058634
 
  0.3333333E+00  0.8333333E-01  0.0000000E+00  0.3472222E-02
    1      -11.615735
    2      -11.392029
    3       -6.050418
    4       -5.914400
    5       -1.955482
    6       -1.894240
    7        0.144061
    8        1.632616
    9        7.940572
   10        8.808809
   11       12.692833
   12       12.932344
 
  0.4166667E+00  0.8333333E-01  0.0000000E+00  0.3472222E-02
    1      -10.116445
    2       -9.931630
    3       -7.999606
    4       -7.849184
    5       -2.286001
    6       -2.222188
    7        1.647597
    8        2.608202
    9        6.303221
   10        7.049978
   11       12.547003
   12       12.935493
 
  0.5000000E+00  0.8333333E-01  0.0000000E+00  0.3472222E-02
    1      -10.118829
    2       -9.933917
    3       -7.996863
    4       -7.846289
    5       -2.286850
    6       -2.223015
    7        1.646101
    8        2.607775
    9        6.303126
   10        7.051918
   11       12.547994
   12       12.936489
 
 -0.4166667E+00  0.8333333E-01  0.0000000E+00  0.3472222E-02
    1      -11.617906
    2      -11.394196
    3       -6.046941
    4       -5.910857
    5       -1.957866
    6       -1.896555
    7        0.142173
    8        1.631067
    9        7.940968
   10        8.811268
   11       12.695224
   12       12.932100
 
 -0.3333333E+00  0.8333333E-01  0.0000000E+00  0.3472222E-02
    1      -12.890554
    2      -12.644824
    3       -3.905259
    4       -3.802581
    5       -1.319905
    6       -1.313932
    7       -1.264889
    8        0.372685
    9       10.234437
   10       10.895343
   11       11.450049
   12       13.063193
 
 -0.2500000E+00  0.8333333E-01  0.0000000E+00  0.3472222E-02
    1      -13.864843
    2      -13.602564
    3       -2.469717
    4       -1.812312
    5       -1.748715
    6       -0.680606
    7       -0.424140
    8       -0.383321
    9       10.254533
   10       12.491935
   11       12.918884
   12       13.359584
 
 -0.1666667E+00  0.8333333E-01  0.0000000E+00  0.3472222E-02
    1      -14.521431
    2      -14.248063
    3       -3.259778
    4       -1.413062
    5       -0.090261
    6       -0.059877
    7        0.591181
    8        0.613204
    9        9.447931
   10       13.275271
   11       13.387151
   12       14.438309
 
 -0.8333333E-01  0.8333333E-01  0.0000000E+00  0.1736111E-02
    1      -14.851581
    2      -14.572583
    3       -3.659280
    4       -1.786120
    5        0.939431
    6        0.970927
    7        1.272789
    8        1.298596
    9        9.044949
   10       12.994043
   11       13.073586
   12       13.637152
 
  0.1666667E+00  0.1666667E+00  0.0000000E+00  0.1736111E-02
    1      -13.050380
    2      -12.801928
    3       -3.141238
    4       -3.091060
    5       -1.782010
    6       -1.745339
    7       -1.499313
    8        0.209004
    9       10.761758
   10       11.212571
   11       11.265804
   12       14.525656
 
  0.2500000E+00  0.1666667E+00  0.0000000E+00  0.3472222E-02
    1      -11.930925
    2      -11.701625
    3       -4.894318
    4       -4.797459
    5       -2.854727
    6       -2.787745
    7       -0.191006
    8        1.378105
    9        8.749288
   10        9.340250
   11       12.651884
   12       14.646025
 
  0.3333333E+00  0.1666667E+00  0.0000000E+00  0.3472222E-02
    1      -10.540371
    2      -10.337205
    3       -6.826585
    4       -6.689277
    5       -3.441459
    6       -3.357169
    7        1.346741
    8        2.625808
    9        6.810859
   10        7.518220
   11       14.284147
   12       14.468990
 
  0.4166667E+00  0.1666667E+00  0.0000000E+00  0.3472222E-02
    1       -9.263328
    2       -9.162032
    3       -8.218888
    4       -8.148745
    5       -3.630080
    6       -3.541584
    7        2.466463
    8        3.114443
    9        6.035300
   10        6.335082
   11       14.292582
   12       14.809522
 
  0.5000000E+00  0.1666667E+00  0.0000000E+00  0.3472222E-02
    1      -10.545111
    2      -10.341921
    3       -6.820252
    4       -6.682726
    5       -3.443908
    6       -3.359518
    7        1.343075
    8        2.623235
    9        6.810140
   10        7.523733
   11       14.281873
   12       14.467188
 
 -0.4166667E+00  0.1666667E+00  0.0000000E+00  0.3472222E-02
    1      -11.934807
    2      -11.705495
    3       -4.888659
    4       -4.791519
    5       -2.857908
    6       -2.790805
    7       -0.194532
    8        1.374828
    9        8.746666
   10        9.345464
   11       12.646614
   12       14.652302
 
 -0.3333333E+00  0.1666667E+00  0.0000000E+00  0.3472222E-02
    1      -13.053290
    2      -12.804861
    3       -3.142926
    4       -3.091598
    5       -1.779732
    6       -1.742339
    7       -1.502170
    8        0.206219
    9       10.755407
   10       11.216148
   11       11.261900
   12       14.545475
 
 -0.2500000E+00  0.1666667E+00  0.0000000E+00  0.3472222E-02
    1      -13.865571
    2      -13.603285
    3       -2.470470
    4       -1.823353
    5       -1.759067
    6       -0.681386
    7       -0.412048
    8       -0.370875
    9       10.253597
   10       12.487360
   11       12.917390
   12       13.380977
 
 -0.1666667E+00  0.1666667E+00  0.0000000E+00  0.1736111E-02
    1      -14.357176
    2      -14.086594
    3       -3.061618
    4       -1.228746
    5       -0.715828
    6       -0.655705
    7        0.475598
    8        0.512845
    9        9.647369
   10       12.904292
   11       13.076450
   12       13.780823
 
  0.2500000E+00  0.2500000E+00  0.0000000E+00  0.1736111E-02
    1      -10.689649
    2      -10.482409
    3       -5.921961
    4       -5.852032
    5       -4.329183
    6       -4.277244
    7        1.227925
    8        2.607270
    9        7.141968
   10        7.707812
   11       14.181816
   12       16.461248
 
  0.3333333E+00  0.2500000E+00  0.0000000E+00  0.3472222E-02
    1       -9.247293
    2       -9.078422
    3       -7.364308
    4       -7.251215
    5       -5.057700
    6       -4.969266
    7        2.762745
    8        3.727331
    9        5.696617
   10        6.205672
   11       15.882198
   12       16.177107
 
  0.4166667E+00  0.2500000E+00  0.0000000E+00  0.3472222E-02
    1       -9.254522
    2       -9.085463
    3       -7.356763
    4       -7.242806
    5       -5.058602
    6       -4.970009
    7        2.758225
    8        3.725457
    9        5.691738
   10        6.214925
   11       15.870557
   12       16.192540
 
  0.5000000E+00  0.2500000E+00  0.0000000E+00  0.3472222E-02
    1      -10.696140
    2      -10.488970
    3       -5.918234
    4       -5.846636
    5       -4.327820
    6       -4.274848
    7        1.222639
    8        2.602022
    9        7.137328
   10        7.716138
   11       14.172759
   12       16.478979
 
 -0.4166667E+00  0.2500000E+00  0.0000000E+00  0.3472222E-02
    1      -11.936031
    2      -11.706726
    3       -4.898677
    4       -4.800887
    5       -2.845928
    6       -2.778409
    7       -0.195674
    8        1.373264
    9        8.742319
   10        9.344013
   11       12.645208
   12       14.683309
 
 -0.3333333E+00  0.2500000E+00  0.0000000E+00  0.3472222E-02
    1      -12.892487
    2      -12.646751
    3       -3.918002
    4       -3.815016
    5       -1.315857
    6       -1.303190
    7       -1.248184
    8        0.370449
    9       10.226927
   10       10.891584
   11       11.447813
   12       13.091880
 
 -0.2500000E+00  0.2500000E+00  0.0000000E+00  0.1736111E-02
    1      -13.539666
    2      -13.282954
    3       -2.832431
    4       -2.739968
    5       -2.082431
    6       -0.406559
    7       -0.362065
    8       -0.326141
    9       10.645354
   10       11.559312
   11       12.166537
   12       12.580644
 
  0.3333333E+00  0.3333333E+00  0.0000000E+00  0.1736111E-02
    1       -8.041175
    2       -7.951988
    3       -7.949943
    4       -7.862651
    5       -5.903421
    6       -5.902551
    7        4.004940
    8        4.585160
    9        4.593721
   10        5.291107
   11       15.711636
   12       15.734643
 
  0.4166667E+00  0.3333333E+00  0.0000000E+00  0.3472222E-02
    1       -9.257169
    2       -9.088679
    3       -7.362326
    4       -7.248385
    5       -5.049684
    6       -4.960597
    7        2.757735
    8        3.717761
    9        5.693936
   10        6.214713
   11       15.869797
   12       16.155712
 
  0.5000000E+00  0.3333333E+00  0.0000000E+00  0.3472222E-02
    1      -10.548289
    2      -10.345247
    3       -6.830017
    4       -6.692374
    5       -3.428851
    6       -3.344429
    7        1.340873
    8        2.617669
    9        6.806670
   10        7.520551
   11       14.290331
   12       14.493502
 
 -0.4166667E+00  0.3333333E+00  0.0000000E+00  0.3472222E-02
    1      -11.621605
    2      -11.397936
    3       -6.057968
    4       -5.921731
    5       -1.939856
    6       -1.878628
    7        0.138902
    8        1.626304
    9        7.934142
   10        8.805513
   11       12.721063
   12       12.950570
 
 -0.3333333E+00  0.3333333E+00  0.0000000E+00  0.1736111E-02
    1      -12.411578
    2      -12.173959
    3       -5.052688
    4       -4.927726
    5       -1.140555
    6       -1.092343
    7       -0.761658
    8        0.855135
    9        9.128518
   10        9.988420
   11       11.944966
   12       12.253609
 
  0.4166667E+00  0.4166667E+00  0.0000000E+00  0.1736111E-02
    1       -9.273013
    2       -9.174027
    3       -8.219702
    4       -8.151100
    5       -3.615475
    6       -3.526970
    7        2.465755
    8        3.098581
    9        6.040187
   10        6.330048
   11       14.329679
   12       14.847429
 
  0.5000000E+00  0.4166667E+00  0.0000000E+00  0.3472222E-02
    1      -10.125602
    2       -9.941322
    3       -8.003769
    4       -7.853560
    5       -2.268880
    6       -2.205124
    7        1.643103
    8        2.595921
    9        6.303133
   10        7.043778
   11       12.582627
   12       12.971233
 
 -0.4166667E+00  0.4166667E+00  0.0000000E+00  0.1736111E-02
    1      -11.003722
    2      -10.792396
    3       -7.165773
    4       -7.013647
    5       -1.613921
    6       -1.563230
    7        0.779555
    8        2.076845
    9        6.986133
   10        7.931505
   11       11.940043
   12       12.291266
 
  0.5000000E+00  0.5000000E+00  0.0000000E+00  0.8680556E-03
    1       -9.698038
    2       -9.594938
    3       -8.622744
    4       -8.544940
    5       -1.776190
    6       -1.724774
    7        1.866977
    8        2.513103
    9        6.123481
   10        6.764106
   11       11.850736
   12       12.222932
 
  0.0000000E+00  0.0000000E+00  0.1250000E+00  0.1736111E-02
    1      -15.006893
    2      -14.746603
    3       -3.799395
    4       -2.062381
    5        1.599587
    6        1.615523
    7        1.616117
    8        1.631534
    9        9.032053
   10       12.938678
   11       12.948543
   12       12.986084
 
  0.8333333E-01  0.0000000E+00  0.1250000E+00  0.6944444E-02
    1      -14.841335
    2      -14.583634
    3       -3.598793
    4       -1.873435
    5        0.953475
    6        0.982267
    7        1.260815
    8        1.284966
    9        9.231223
   10       12.990378
   11       13.066281
   12       13.639387
 
  0.1666667E+00 -0.1387779E-16  0.1250000E+00  0.6944444E-02
    1      -14.346481
    2      -14.096575
    3       -3.001490
    4       -1.313059
    5       -0.700093
    6       -0.644780
    7        0.462318
    8        0.496767
    9        9.829643
   10       12.886970
   11       13.051345
   12       13.804168
 
  0.2500000E+00  0.0000000E+00  0.1250000E+00  0.6944444E-02
    1      -13.528282
    2      -13.291123
    3       -2.816130
    4       -2.731035
    5       -2.023168
    6       -0.421253
    7       -0.404744
    8       -0.380112
    9       10.809774
   10       11.598539
   11       12.138673
   12       12.562390
 
  0.3333333E+00  0.0000000E+00  0.1250000E+00  0.6944444E-02
    1      -12.399068
    2      -12.179574
    3       -5.037191
    4       -4.921909
    5       -1.156411
    6       -1.111796
    7       -0.704545
    8        0.786511
    9        9.159359
   10        9.953572
   11       12.049058
   12       12.255385
 
  0.4166667E+00  0.0000000E+00  0.1250000E+00  0.6944444E-02
    1      -10.989741
    2      -10.794361
    3       -7.152107
    4       -7.011599
    5       -1.630436
    6       -1.583632
    7        0.830198
    8        2.031893
    9        7.011073
   10        7.889072
   11       11.920131
   12       12.244831
 
  0.5000000E+00  0.0000000E+00  0.1250000E+00  0.3472222E-02
    1       -9.683061
    2       -9.585391
    3       -8.619168
    4       -8.545575
    5       -1.793056
    6       -1.745581
    7        1.900049
    8        2.515189
    9        6.115753
   10        6.725394
   11       11.829992
   12       12.173951
 
  0.8333333E-01  0.8333333E-01  0.1250000E+00  0.3472222E-02
    1      -14.510919
    2      -14.258382
    3       -3.199548
    4       -1.498438
    5       -0.080908
    6       -0.053524
    7        0.584312
    8        0.604680
    9        9.631849
   10       13.265894
   11       13.374776
   12       14.335045
 
  0.1666667E+00  0.8333333E-01  0.1250000E+00  0.6944444E-02
    1      -13.854153
    2      -13.611906
    3       -2.410644
    4       -1.810764
    5       -1.751931
    6       -0.762121
    7       -0.421583
    8       -0.383759
    9       10.431600
   10       12.508861
   11       12.894783
   12       13.360581
 
  0.2500000E+00  0.8333333E-01  0.1250000E+00  0.6944444E-02
    1      -12.879976
    2      -12.652960
    3       -3.904624
    4       -3.809965
    5       -1.314775
    6       -1.264046
    7       -1.257034
    8        0.297174
    9       10.251850
   10       10.864028
   11       11.622802
   12       13.068576
 
  0.3333333E+00  0.8333333E-01  0.1250000E+00  0.6944444E-02
    1      -11.607596
    2      -11.400981
    3       -6.045451
    4       -5.919679
    5       -1.953209
    6       -1.896644
    7        0.194139
    8        1.567373
    9        7.964455
   10        8.768243
   11       12.718629
   12       12.968289
 
  0.4166667E+00  0.8333333E-01  0.1250000E+00  0.6944444E-02
    1      -10.109578
    2       -9.938854
    3       -7.994156
    4       -7.855273
    5       -2.283666
    6       -2.224624
    7        1.686043
    8        2.576497
    9        6.309924
   10        7.004070
   11       12.560985
   12       12.919918
 
  0.5000000E+00  0.8333333E-01  0.1250000E+00  0.6944444E-02
    1      -10.111959
    2       -9.941087
    3       -7.991379
    4       -7.852376
    5       -2.284512
    6       -2.225453
    7        1.684568
    8        2.576002
    9        6.309937
   10        7.005949
   11       12.561971
   12       12.920902
 
 -0.4166667E+00  0.8333333E-01  0.1250000E+00  0.6944444E-02
    1      -11.609768
    2      -11.403145
    3       -6.041966
    4       -5.916137
    5       -1.955588
    6       -1.898963
    7        0.192281
    8        1.565800
    9        7.964947
   10        8.770625
   11       12.721274
   12       12.968998
 
 -0.3333333E+00  0.8333333E-01  0.1250000E+00  0.6944444E-02
    1      -12.881675
    2      -12.654650
    3       -3.901373
    4       -3.806601
    5       -1.317911
    6       -1.267065
    7       -1.258742
    8        0.295641
    9       10.251138
   10       10.865983
   11       11.620432
   12       13.073102
 
 -0.2500000E+00  0.8333333E-01  0.1250000E+00  0.6944444E-02
    1      -13.855373
    2      -13.613114
    3       -2.411874
    4       -1.809922
    5       -1.751102
    6       -0.763310
    7       -0.422660
    8       -0.384981
    9       10.429942
   10       12.505926
   11       12.896116
   12       13.366368
 
 -0.1666667E+00  0.8333333E-01  0.1250000E+00  0.6944444E-02
    1      -14.511644
    2      -14.259101
    3       -3.200307
    4       -1.499179
    5       -0.088975
    6       -0.060942
    7        0.591948
    8        0.612314
    9        9.630810
   10       13.273029
   11       13.383188
   12       14.415353
 
 -0.8333333E-01  0.8333333E-01  0.1250000E+00  0.3472222E-02
    1      -14.841555
    2      -14.583873
    3       -3.599049
    4       -1.873648
    5        0.940600
    6        0.969698
    7        1.273771
    8        1.297715
    9        9.230866
   10       12.994735
   11       13.070929
   12       13.646419
 
  0.1666667E+00  0.1666667E+00  0.1250000E+00  0.3472222E-02
    1      -13.041386
    2      -12.811882
    3       -3.139238
    4       -3.092957
    5       -1.780761
    6       -1.746807
    7       -1.443608
    8        0.130785
    9       10.778398
   10       11.189771
   11       11.436522
   12       14.526950
 
  0.2500000E+00  0.1666667E+00  0.1250000E+00  0.6944444E-02
    1      -11.922614
    2      -11.710786
    3       -4.890655
    4       -4.801262
    5       -2.852358
    6       -2.790518
    7       -0.139052
    8        1.307763
    9        8.770126
   10        9.316455
   11       12.797869
   12       14.655474
 
  0.3333333E+00  0.1666667E+00  0.1250000E+00  0.6944444E-02
    1      -10.532931
    2      -10.345281
    3       -6.821582
    4       -6.694632
    5       -3.438350
    6       -3.360462
    7        1.391653
    8        2.573223
    9        6.830089
   10        7.485743
   11       14.345147
   12       14.505064
 
  0.4166667E+00  0.1666667E+00  0.1250000E+00  0.6944444E-02
    1       -9.258839
    2       -9.165099
    3       -8.217300
    4       -8.152459
    5       -3.626660
    6       -3.544927
    7        2.498267
    8        3.101250
    9        6.023606
   10        6.306966
   11       14.306988
   12       14.782840
 
  0.5000000E+00  0.1666667E+00  0.1250000E+00  0.6944444E-02
    1      -10.537671
    2      -10.349997
    3       -6.815239
    4       -6.688089
    5       -3.440795
    6       -3.362816
    7        1.388006
    8        2.570569
    9        6.829647
   10        7.491009
   11       14.344705
   12       14.501413
 
 -0.4166667E+00  0.1666667E+00  0.1250000E+00  0.6944444E-02
    1      -11.926496
    2      -11.714657
    3       -4.884986
    4       -4.795332
    5       -2.855533
    6       -2.793584
    7       -0.142572
    8        1.304468
    9        8.767797
   10        9.321331
   11       12.792509
   12       14.661544
 
 -0.3333333E+00  0.1666667E+00  0.1250000E+00  0.6944444E-02
    1      -13.044295
    2      -12.814778
    3       -3.140753
    4       -3.093365
    5       -1.778465
    6       -1.743913
    7       -1.446462
    8        0.127995
    9       10.772390
   10       11.192861
   11       11.432699
   12       14.546472
 
 -0.2500000E+00  0.1666667E+00  0.1250000E+00  0.6944444E-02
    1      -13.856092
    2      -13.613831
    3       -2.412623
    4       -1.820932
    5       -1.761436
    6       -0.764078
    7       -0.410527
    8       -0.372533
    9       10.428975
   10       12.501632
   11       12.894571
   12       13.386106
 
 -0.1666667E+00  0.1666667E+00  0.1250000E+00  0.3472222E-02
    1      -14.347444
    2      -14.097532
    3       -3.002500
    4       -1.314062
    5       -0.713615
    6       -0.658030
    7        0.477002
    8        0.511342
    9        9.828312
   10       12.905391
   11       13.069214
   12       13.796736
 
  0.2500000E+00  0.2500000E+00  0.1250000E+00  0.3472222E-02
    1      -10.682102
    2      -10.490626
    3       -5.919155
    4       -5.854529
    5       -4.327610
    6       -4.279586
    7        1.274847
    8        2.547616
    9        7.163695
   10        7.685644
   11       14.269458
   12       16.155019
 
  0.3333333E+00  0.2500000E+00  0.1250000E+00  0.6944444E-02
    1       -9.241022
    2       -9.085069
    3       -7.360169
    4       -7.255621
    5       -5.054692
    6       -4.972852
    7        2.800639
    8        3.694899
    9        5.708494
   10        6.179019
   11       15.628782
   12       15.868394
 
  0.4166667E+00  0.2500000E+00  0.1250000E+00  0.6944444E-02
    1       -9.248255
    2       -9.092137
    3       -7.352664
    4       -7.247250
    5       -5.055607
    6       -4.973644
    7        2.796140
    8        3.692786
    9        5.704233
   10        6.187813
   11       15.616194
   12       15.877842
 
  0.5000000E+00  0.2500000E+00  0.1250000E+00  0.6944444E-02
    1      -10.688593
    2      -10.497187
    3       -5.915368
    4       -5.849199
    5       -4.326204
    6       -4.277226
    7        1.269559
    8        2.542360
    9        7.159471
   10        7.693408
   11       14.260299
   12       16.165662
 
 -0.4166667E+00  0.2500000E+00  0.1250000E+00  0.6944444E-02
    1      -11.927720
    2      -11.715886
    3       -4.894982
    4       -4.804728
    5       -2.843527
    6       -2.781199
    7       -0.143707
    8        1.302935
    9        8.763454
   10        9.319705
   11       12.791310
   12       14.692467
 
 -0.3333333E+00  0.2500000E+00  0.1250000E+00  0.6944444E-02
    1      -12.883605
    2      -12.656574
    3       -3.914059
    4       -3.819042
    5       -1.301194
    6       -1.260768
    7       -1.250216
    8        0.293491
    9       10.243542
   10       10.861989
   11       11.618591
   12       13.101721
 
 -0.2500000E+00  0.2500000E+00  0.1250000E+00  0.3472222E-02
    1      -13.530452
    2      -13.293282
    3       -2.828961
    4       -2.743603
    5       -2.025387
    6       -0.407026
    7       -0.404885
    8       -0.363837
    9       10.806778
   10       11.590703
   11       12.134725
   12       12.589728
 
  0.3333333E+00  0.3333333E+00  0.1250000E+00  0.3472222E-02
    1       -8.034816
    2       -7.951839
    3       -7.949864
    4       -7.869848
    5       -5.904158
    6       -5.903353
    7        4.048242
    8        4.589881
    9        4.597803
   10        5.234861
   11       15.494990
   12       15.514250
 
  0.4166667E+00  0.3333333E+00  0.1250000E+00  0.6944444E-02
    1       -9.250907
    2       -9.095291
    3       -7.358140
    4       -7.252836
    5       -5.046639
    6       -4.964187
    7        2.795523
    8        3.685579
    9        5.706040
   10        6.187480
   11       15.615460
   12       15.886481
 
  0.5000000E+00  0.3333333E+00  0.1250000E+00  0.6944444E-02
    1      -10.540854
    2      -10.353316
    3       -6.825002
    4       -6.697781
    5       -3.425736
    6       -3.347727
    7        1.385738
    8        2.565232
    9        6.825963
   10        7.487643
   11       14.361263
   12       14.521799
 
 -0.4166667E+00  0.3333333E+00  0.1250000E+00  0.6944444E-02
    1      -11.613468
    2      -11.406883
    3       -6.052988
    4       -5.927019
    5       -1.937582
    6       -1.881032
    7        0.188981
    8        1.561142
    9        7.957981
   10        8.764692
   11       12.750060
   12       12.991989
 
 -0.3333333E+00  0.3333333E+00  0.1250000E+00  0.3472222E-02
    1      -12.402946
    2      -12.183526
    3       -5.048155
    4       -4.932681
    5       -1.138720
    6       -1.094188
    7       -0.708271
    8        0.782261
    9        9.151001
   10        9.947645
   11       12.059003
   12       12.281633
 
  0.4166667E+00  0.4166667E+00  0.1250000E+00  0.3472222E-02
    1       -9.268603
    2       -9.177003
    3       -8.218173
    4       -8.154769
    5       -3.612052
    6       -3.530314
    7        2.497206
    8        3.086145
    9        6.027813
   10        6.301950
   11       14.344111
   12       14.820372
 
  0.5000000E+00  0.4166667E+00  0.1250000E+00  0.6944444E-02
    1      -10.118752
    2       -9.948522
    3       -7.998330
    4       -7.859647
    5       -2.266546
    6       -2.207559
    7        1.681385
    8        2.564681
    9        6.309315
   10        6.997851
   11       12.596620
   12       12.955624
 
 -0.4166667E+00  0.4166667E+00  0.1250000E+00  0.3472222E-02
    1      -10.996034
    2      -10.800784
    3       -7.160206
    4       -7.019696
    5       -1.611915
    6       -1.565177
    7        0.825352
    8        2.023895
    9        7.006265
   10        7.881757
   11       11.953618
   12       12.278155
 
  0.5000000E+00  0.5000000E+00  0.1250000E+00  0.1736111E-02
    1       -9.693570
    2       -9.598128
    3       -8.621120
    4       -8.549106
    5       -1.774261
    6       -1.726866
    7        1.898385
    8        2.499175
    9        6.118778
   10        6.714271
   11       11.864317
   12       12.208289
 
  0.0000000E+00  0.0000000E+00  0.2500000E+00  0.1736111E-02
    1      -14.977856
    2      -14.778766
    3       -3.623403
    4       -2.303382
    5        1.601485
    6        1.613751
    7        1.617954
    8        1.629826
    9        9.568751
   10       12.944106
   11       12.949226
   12       12.981510
 
  0.8333333E-01  0.0000000E+00  0.2500000E+00  0.6944444E-02
    1      -14.812569
    2      -14.615461
    3       -3.423916
    4       -2.112565
    5        0.956821
    6        0.978804
    7        1.263624
    8        1.282128
    9        9.763584
   10       12.987205
   11       13.058920
   12       13.645248
 
  0.1666667E+00 -0.1387779E-16  0.2500000E+00  0.6944444E-02
    1      -14.318606
    2      -14.127378
    3       -2.829897
    4       -1.546407
    5       -0.693607
    6       -0.651297
    7        0.466255
    8        0.492667
    9       10.347201
   10       12.886495
   11       13.032316
   12       13.840897
 
  0.2500000E+00  0.0000000E+00  0.2500000E+00  0.6944444E-02
    1      -13.501724
    2      -13.320279
    3       -2.806436
    4       -2.741245
    5       -1.857686
    6       -0.626746
    7       -0.416424
    8       -0.385031
    9       11.238907
   10       11.716259
   11       12.052510
   12       12.586570
 
  0.3333333E+00  0.0000000E+00  0.2500000E+00  0.6944444E-02
    1      -12.374389
    2      -12.206483
    3       -5.023940
    4       -4.935688
    5       -1.151388
    6       -1.117048
    7       -0.549963
    8        0.585594
    9        9.230326
   10        9.841670
   11       12.187053
   12       12.344348
 