32   
4    

1    
  0.0034255997538186  -0.0000013328345419   0.0093949595289277
  -0.2193095300    0.0087585400   -0.1319537800
   0.0304080200    0.0078104300   -0.0027101400
  -0.0059234600   -0.0131904100   -0.0026391000
  -0.0060323800    0.0289208500   -0.0028680900
  -0.0159124500    0.0073958400    0.0043269100
  -0.0158820600    0.0073968500    0.0043526700
  -0.0158942100    0.0073889100    0.0043526600
  -0.0158934800    0.0074023500    0.0043528100
   0.0138462700   -0.0091597200   -0.0044097300
   0.0136578800   -0.0092484100   -0.0044749800
   0.0138278500   -0.0090385100   -0.0044398400
   0.0136687400   -0.0091623700   -0.0039407900
   0.0138516500   -0.0064357000   -0.0045128900
   0.0140101000   -0.0065099700   -0.0044533000
   0.0139916000   -0.0066178400   -0.0044842100
   0.0138362000   -0.0065301800   -0.0038083900
   0.0051295900   -0.0065939100    0.0118321900
   0.0322768100   -0.0072950500    0.0469595200
   0.0774904200    0.0194018100    0.0473591000
   0.0776389100   -0.0328151300    0.0464855400
   0.0138806600   -0.0063296100   -0.0006236200
   0.0138808100   -0.0063294100   -0.0006084500
   0.0138828800   -0.0063285300   -0.0006098900
   0.0138822600   -0.0063308000   -0.0006043000
  -0.0124107400    0.0081550100    0.0010467800
  -0.0118498900    0.0082501000    0.0010734100
  -0.0122130900    0.0077308200    0.0010694100
  -0.0120479000    0.0080412500    0.0003763600
  -0.0112288200    0.0051404400    0.0010824000
  -0.0116523300    0.0052427500    0.0010366700
  -0.0115326300    0.0055625600    0.0010425700
  -0.0113776900    0.0053170400    0.0003925100

1    
 -0.0034255997538186   0.0000013328345419  -0.0093949595289277
   0.1930816700    0.0084126500    0.1320661900
  -0.0566592200    0.0074731400    0.0028312800
  -0.0202183100    0.0285258900    0.0029001200
  -0.0203245500   -0.0135888200    0.0028497800
  -0.0116021500    0.0079954100   -0.0042214600
  -0.0116317200    0.0079953100   -0.0042500700
  -0.0116202200    0.0080012200   -0.0042500800
  -0.0116199800    0.0079879600   -0.0042502100
   0.0134212300   -0.0094480300    0.0043548800
   0.0135867500   -0.0093639500    0.0044143100
   0.0134341800   -0.0095507800    0.0043823500
   0.0135856600   -0.0094395900    0.0037076700
   0.0136172200   -0.0065638700    0.0043444300
   0.0134412700   -0.0064898200    0.0042786300
   0.0134660900   -0.0063620000    0.0043136600
   0.0136054800   -0.0064522200    0.0038053200
   0.0170635100   -0.0064200900   -0.0118461100
  -0.0100871100   -0.0069074500   -0.0469767400
  -0.0556276600   -0.0326761800   -0.0465642500
  -0.0551143200    0.0195344200   -0.0473107000
   0.0095296800   -0.0067203200    0.0006196900
   0.0095291800   -0.0067207800    0.0006046400
   0.0095281300   -0.0067210000    0.0006035200
   0.0095275300   -0.0067192300    0.0006024300
  -0.0117042100    0.0082374300   -0.0010181200
  -0.0121374700    0.0081443900   -0.0010519400
  -0.0118374000    0.0085519800   -0.0010464800
  -0.0119991800    0.0083158500   -0.0003709000
  -0.0113328900    0.0054516100   -0.0010946300
  -0.0107904800    0.0053523500   -0.0010251600
  -0.0109752700    0.0049226800   -0.0010293200
  -0.0111354100    0.0052418500   -0.0003727300

17   
  0.0034255997538186  -0.0000013328345419   0.0093949595289277
  -0.0200118000    0.0077479800    0.0083038900
   0.0071379700    0.0082478400    0.0434366900
   0.0526697200    0.0339854000    0.0430240400
   0.0521769200   -0.0182146300    0.0437659700
  -0.0119205700    0.0081006200   -0.0041560500
  -0.0119200200    0.0081016100   -0.0041408400
  -0.0119192000    0.0081017400   -0.0041449300
  -0.0119182200    0.0080995900   -0.0041335100
   0.0141011700   -0.0097923300    0.0045230100
   0.0142319800   -0.0097342700    0.0046783100
   0.0141217000   -0.0098183700    0.0045988400
   0.0142394300   -0.0097772100    0.0039226600
   0.0131267100   -0.0062376600    0.0046702200
   0.0130121200   -0.0060885100    0.0044679700
   0.0129453400   -0.0061212200    0.0045570800
   0.0131466100   -0.0061591500    0.0038960600
  -0.1940253600   -0.0074248300   -0.1354469800
   0.0555111400   -0.0064996100   -0.0069184800
   0.0196269800   -0.0272282500   -0.0069847100
   0.0197355000    0.0142643000   -0.0069503400
   0.0096656500   -0.0067998800    0.0006936100
   0.0096617100   -0.0067994100    0.0005197000
   0.0096642100   -0.0067987600    0.0005197200
   0.0096640600   -0.0068020600    0.0005210700
  -0.0128143900    0.0086718800   -0.0003462500
  -0.0124822100    0.0086613300   -0.0002862300
  -0.0126349600    0.0083928900   -0.0003496700
  -0.0126417800    0.0085606400   -0.0006111800
  -0.0103632500    0.0047480700   -0.0002316100
  -0.0106984000    0.0047325400   -0.0004112500
  -0.0105133800    0.0050263500   -0.0003590700
  -0.0105753900    0.0048533700   -0.0006277500

17   
 -0.0034255997538186   0.0000013328345419  -0.0093949595289277
  -0.0060344400    0.0077444900   -0.0082662700
  -0.0331848600    0.0084376100   -0.0433924500
  -0.0784042400   -0.0182486400   -0.0437923900
  -0.0785302200    0.0339539200   -0.0429247500
  -0.0171459500    0.0074191500    0.0041842900
  -0.0171463400    0.0074198100    0.0041692400
  -0.0171482700    0.0074180100    0.0041647300
  -0.0171481900    0.0074207400    0.0041708500
   0.0149906900   -0.0098492500   -0.0045348100
   0.0148688000   -0.0098965200   -0.0046959000
   0.0149663700   -0.0098124700   -0.0046052200
   0.0148498200   -0.0098572900   -0.0039458900
   0.0138737700   -0.0064023000   -0.0047151200
   0.0139892900   -0.0065731900   -0.0045476400
   0.0140747800   -0.0065316000   -0.0046271600
   0.0138721500   -0.0064952300   -0.0039483300
   0.2160000100   -0.0074613600    0.1354005200
  -0.0335264100   -0.0065075000    0.0069151000
   0.0022381600    0.0141697400    0.0068466700
   0.0023461600   -0.0273032100    0.0070866500
   0.0152974300   -0.0063828900   -0.0006917700
   0.0152994300   -0.0063823700   -0.0005165000
   0.0152975400   -0.0063843700   -0.0005166600
   0.0152973500   -0.0063816200   -0.0005175800
  -0.0131594300    0.0086915200    0.0003618700
  -0.0134861500    0.0087145900    0.0003065500
  -0.0133462800    0.0089830500    0.0003588200
  -0.0133338600    0.0088108000    0.0006162400
  -0.0116036000    0.0054276300    0.0002305200
  -0.0112624100    0.0054111300    0.0004236900
  -0.0114223300    0.0051382700    0.0003616700
  -0.0113787800    0.0053093500    0.0006409900
