  32  32   0   0
  0.4874656E+01  0.4934311E-09  0.4934311E-09  0.7398317E-09  0.5000000E-15
  1.000000000000000E-004
  CAR 
 graphite                                
     24.06298339    -13.51455046  301     13.69795104      1.00000000
    -13.515  0.0000E+00  0.0000E+00
    -13.389  0.0000E+00  0.0000E+00
    -13.264  0.0000E+00  0.0000E+00
    -13.139  0.0000E+00  0.0000E+00
    -13.014  0.0000E+00  0.0000E+00
    -12.888  0.0000E+00  0.0000E+00
    -12.763  0.0000E+00  0.0000E+00
    -12.638  0.0000E+00  0.0000E+00
    -12.512  0.0000E+00  0.0000E+00
    -12.387  0.0000E+00  0.0000E+00
    -12.262  0.0000E+00  0.0000E+00
    -12.137  0.0000E+00  0.0000E+00
    -12.011  0.0000E+00  0.0000E+00
    -11.886  0.0000E+00  0.0000E+00
    -11.761  0.0000E+00  0.0000E+00
    -11.636  0.0000E+00  0.0000E+00
    -11.510  0.7371E-03  0.1016E-05
    -11.385  0.4484E+00  0.2506E-01
    -11.260  0.7090E+00  0.1002E+00
    -11.135  0.8680E+00  0.2002E+00
    -11.009  0.1052E+01  0.3196E+00
    -10.884  0.1190E+01  0.4623E+00
    -10.759  0.1283E+01  0.6172E+00
    -10.634  0.1398E+01  0.7847E+00
    -10.508  0.1518E+01  0.9677E+00
    -10.383  0.1603E+01  0.1163E+01
    -10.258  0.1716E+01  0.1371E+01
    -10.133  0.1916E+01  0.1599E+01
    -10.007  0.2009E+01  0.1842E+01
     -9.882  0.2117E+01  0.2108E+01
     -9.757  0.1965E+01  0.2355E+01
     -9.632  0.2349E+01  0.2628E+01
     -9.506  0.2558E+01  0.2938E+01
     -9.381  0.2375E+01  0.3246E+01
     -9.256  0.2704E+01  0.3591E+01
     -9.131  0.1438E+01  0.3819E+01
     -9.005  0.1715E+01  0.4012E+01
     -8.880  0.2157E+01  0.4253E+01
     -8.755  0.2947E+01  0.4598E+01
     -8.629  0.2917E+01  0.4973E+01
     -8.504  0.2824E+01  0.5331E+01
     -8.379  0.2917E+01  0.5692E+01
     -8.254  0.3046E+01  0.6072E+01
     -8.128  0.3430E+01  0.6455E+01
     -8.003  0.3145E+01  0.6869E+01
     -7.878  0.3067E+01  0.7257E+01
     -7.753  0.2943E+01  0.7633E+01
     -7.627  0.2796E+01  0.7992E+01
     -7.502  0.2857E+01  0.8354E+01
     -7.377  0.3296E+01  0.8742E+01
     -7.252  0.3316E+01  0.9153E+01
     -7.126  0.3332E+01  0.9566E+01
     -7.001  0.3477E+01  0.9993E+01
     -6.876  0.3581E+01  0.1043E+02
     -6.751  0.3818E+01  0.1090E+02
     -6.625  0.3807E+01  0.1138E+02
     -6.500  0.3388E+01  0.1186E+02
     -6.375  0.3543E+01  0.1229E+02
     -6.250  0.4075E+01  0.1277E+02
     -6.124  0.4237E+01  0.1330E+02
     -5.999  0.4480E+01  0.1383E+02
     -5.874  0.3980E+01  0.1437E+02
     -5.749  0.3635E+01  0.1485E+02
     -5.623  0.4798E+01  0.1538E+02
     -5.498  0.4951E+01  0.1601E+02
     -5.373  0.4460E+01  0.1660E+02
     -5.247  0.4062E+01  0.1713E+02
     -5.122  0.4072E+01  0.1763E+02
     -4.997  0.4159E+01  0.1815E+02
     -4.872  0.4374E+01  0.1868E+02
     -4.746  0.4241E+01  0.1922E+02
     -4.621  0.3654E+01  0.1973E+02
     -4.496  0.2350E+01  0.2008E+02
     -4.371  0.3745E+01  0.2047E+02
     -4.245  0.3953E+01  0.2094E+02
     -4.120  0.4584E+01  0.2148E+02
     -3.995  0.4830E+01  0.2208E+02
     -3.870  0.5097E+01  0.2269E+02
     -3.744  0.5249E+01  0.2332E+02
     -3.619  0.5673E+01  0.2403E+02
     -3.494  0.4933E+01  0.2467E+02
     -3.369  0.4586E+01  0.2527E+02
     -3.243  0.4763E+01  0.2584E+02
     -3.118  0.5188E+01  0.2647E+02
     -2.993  0.5474E+01  0.2714E+02
     -2.868  0.5964E+01  0.2786E+02
     -2.742  0.4379E+01  0.2852E+02
     -2.617  0.3648E+01  0.2901E+02
     -2.492  0.5054E+01  0.2955E+02
     -2.367  0.4990E+01  0.3020E+02
     -2.241  0.4941E+01  0.3082E+02
     -2.116  0.4849E+01  0.3143E+02
     -1.991  0.4513E+01  0.3202E+02
     -1.866  0.4549E+01  0.3258E+02
     -1.740  0.4920E+01  0.3317E+02
     -1.615  0.6165E+01  0.3388E+02
     -1.490  0.5764E+01  0.3461E+02
     -1.364  0.6039E+01  0.3536E+02
     -1.239  0.6131E+01  0.3612E+02
     -1.114  0.5804E+01  0.3685E+02
     -0.989  0.5721E+01  0.3758E+02
     -0.863  0.5393E+01  0.3828E+02
     -0.738  0.5361E+01  0.3894E+02
     -0.613  0.5685E+01  0.3963E+02
     -0.488  0.5111E+01  0.4031E+02
     -0.362  0.4549E+01  0.4092E+02
     -0.237  0.4354E+01  0.4147E+02
     -0.112  0.4950E+01  0.4205E+02
      0.013  0.5238E+01  0.4271E+02
      0.139  0.6064E+01  0.4342E+02
      0.264  0.7250E+01  0.4422E+02
      0.389  0.6406E+01  0.4510E+02
      0.514  0.6227E+01  0.4588E+02
      0.640  0.6142E+01  0.4665E+02
      0.765  0.6253E+01  0.4744E+02
      0.890  0.5746E+01  0.4819E+02
      1.015  0.5906E+01  0.4891E+02
      1.141  0.6653E+01  0.4969E+02
      1.266  0.7227E+01  0.5058E+02
      1.391  0.7286E+01  0.5148E+02
      1.516  0.6766E+01  0.5235E+02
      1.642  0.5819E+01  0.5315E+02
      1.767  0.5594E+01  0.5385E+02
      1.892  0.5905E+01  0.5458E+02
      2.017  0.6252E+01  0.5531E+02
      2.143  0.7880E+01  0.5625E+02
      2.268  0.7596E+01  0.5726E+02
      2.393  0.8572E+01  0.5830E+02
      2.519  0.6472E+01  0.5926E+02
      2.644  0.4920E+01  0.5997E+02
      2.769  0.6632E+01  0.6061E+02
      2.894  0.1464E+02  0.6204E+02
      3.020  0.8609E+01  0.6347E+02
      3.145  0.6461E+01  0.6441E+02
      3.270  0.6500E+01  0.6522E+02
      3.395  0.8363E+01  0.6615E+02
      3.521  0.9567E+01  0.6727E+02
      3.646  0.9183E+01  0.6852E+02
      3.771  0.9658E+01  0.6970E+02
      3.896  0.8395E+01  0.7081E+02
      4.022  0.9571E+01  0.7192E+02
      4.147  0.8627E+01  0.7306E+02
      4.272  0.8243E+01  0.7414E+02
      4.397  0.8768E+01  0.7521E+02
      4.523  0.1137E+02  0.7650E+02
      4.648  0.8764E+01  0.7763E+02
      4.773  0.6561E+01  0.7854E+02
      4.898  0.7209E+01  0.7939E+02
      5.024  0.9572E+01  0.8060E+02
      5.149  0.1089E+02  0.8189E+02
      5.274  0.9519E+01  0.8325E+02
      5.399  0.9869E+01  0.8448E+02
      5.525  0.9163E+01  0.8562E+02
      5.650  0.1120E+02  0.8695E+02
      5.775  0.7964E+01  0.8802E+02
      5.901  0.6996E+01  0.8895E+02
      6.026  0.7526E+01  0.8982E+02
      6.151  0.9142E+01  0.9095E+02
      6.276  0.7841E+01  0.9198E+02
      6.402  0.8644E+01  0.9303E+02
      6.527  0.7971E+01  0.9403E+02
      6.652  0.8466E+01  0.9508E+02
      6.777  0.8224E+01  0.9612E+02
      6.903  0.8659E+01  0.9718E+02
      7.028  0.7700E+01  0.9821E+02
      7.153  0.7251E+01  0.9917E+02
      7.278  0.6554E+01  0.1000E+03
      7.404  0.6733E+01  0.1009E+03
      7.529  0.6171E+01  0.1017E+03
      7.654  0.6234E+01  0.1024E+03
      7.779  0.5856E+01  0.1032E+03
      7.905  0.5394E+01  0.1039E+03
      8.030  0.5590E+01  0.1046E+03
      8.155  0.6348E+01  0.1053E+03
      8.280  0.6134E+01  0.1061E+03
      8.406  0.5356E+01  0.1068E+03
      8.531  0.5101E+01  0.1075E+03
      8.656  0.5023E+01  0.1081E+03
      8.781  0.5075E+01  0.1087E+03
      8.907  0.5337E+01  0.1094E+03
      9.032  0.3681E+01  0.1100E+03
      9.157  0.3549E+01  0.1104E+03
      9.282  0.2749E+01  0.1108E+03
      9.408  0.2072E+01  0.1111E+03
      9.533  0.1797E+01  0.1113E+03
      9.658  0.2113E+01  0.1116E+03
      9.784  0.2508E+01  0.1119E+03
      9.909  0.2847E+01  0.1122E+03
     10.034  0.3242E+01  0.1126E+03
     10.159  0.3382E+01  0.1130E+03
     10.285  0.3209E+01  0.1134E+03
     10.410  0.3168E+01  0.1138E+03
     10.535  0.3266E+01  0.1142E+03
     10.660  0.3561E+01  0.1146E+03
     10.786  0.4028E+01  0.1151E+03
     10.911  0.4221E+01  0.1156E+03
     11.036  0.3925E+01  0.1161E+03
     11.161  0.3855E+01  0.1166E+03
     11.287  0.4004E+01  0.1171E+03
     11.412  0.4281E+01  0.1176E+03
     11.537  0.4659E+01  0.1182E+03
     11.662  0.4660E+01  0.1188E+03
     11.788  0.4776E+01  0.1194E+03
     11.913  0.4546E+01  0.1199E+03
     12.038  0.4524E+01  0.1205E+03
     12.163  0.4678E+01  0.1211E+03
     12.289  0.4912E+01  0.1217E+03
     12.414  0.5003E+01  0.1223E+03
     12.539  0.4931E+01  0.1229E+03
     12.664  0.4693E+01  0.1235E+03
     12.790  0.4440E+01  0.1241E+03
     12.915  0.4163E+01  0.1246E+03
     13.040  0.4444E+01  0.1252E+03
     13.165  0.4686E+01  0.1258E+03
     13.291  0.4494E+01  0.1263E+03
     13.416  0.4086E+01  0.1269E+03
     13.541  0.4253E+01  0.1273E+03
     13.667  0.4313E+01  0.1279E+03
     13.792  0.4442E+01  0.1284E+03
     13.917  0.6445E+01  0.1291E+03
     14.042  0.6407E+01  0.1299E+03
     14.168  0.8804E+01  0.1308E+03
     14.293  0.6850E+01  0.1318E+03
     14.418  0.6445E+01  0.1326E+03
     14.543  0.6563E+01  0.1334E+03
     14.669  0.5973E+01  0.1342E+03
     14.794  0.8035E+01  0.1351E+03
     14.919  0.8339E+01  0.1361E+03
     15.044  0.8528E+01  0.1372E+03
     15.170  0.6044E+01  0.1381E+03
     15.295  0.5649E+01  0.1388E+03
     15.420  0.5571E+01  0.1395E+03
     15.545  0.7119E+01  0.1403E+03
     15.671  0.6100E+01  0.1413E+03
     15.796  0.7271E+01  0.1421E+03
     15.921  0.8975E+01  0.1431E+03
     16.046  0.7654E+01  0.1442E+03
     16.172  0.6401E+01  0.1450E+03
     16.297  0.6739E+01  0.1458E+03
     16.422  0.5536E+01  0.1466E+03
     16.547  0.4425E+01  0.1472E+03
     16.673  0.4644E+01  0.1478E+03
     16.798  0.5136E+01  0.1484E+03
     16.923  0.5763E+01  0.1491E+03
     17.049  0.5609E+01  0.1498E+03
     17.174  0.4620E+01  0.1505E+03
     17.299  0.4305E+01  0.1510E+03
     17.424  0.4166E+01  0.1516E+03
     17.550  0.4402E+01  0.1521E+03
     17.675  0.5212E+01  0.1527E+03
     17.800  0.4688E+01  0.1533E+03
     17.925  0.4437E+01  0.1539E+03
     18.051  0.4277E+01  0.1544E+03
     18.176  0.3790E+01  0.1550E+03
     18.301  0.3160E+01  0.1553E+03
     18.426  0.3914E+01  0.1558E+03
     18.552  0.4556E+01  0.1563E+03
     18.677  0.4509E+01  0.1569E+03
     18.802  0.4271E+01  0.1575E+03
     18.927  0.3603E+01  0.1580E+03
     19.053  0.3476E+01  0.1584E+03
     19.178  0.3695E+01  0.1588E+03
     19.303  0.2728E+01  0.1592E+03
     19.428  0.2779E+01  0.1595E+03
     19.554  0.3730E+01  0.1599E+03
     19.679  0.3704E+01  0.1604E+03
     19.804  0.4581E+01  0.1609E+03
     19.929  0.4005E+01  0.1615E+03
     20.055  0.4278E+01  0.1620E+03
     20.180  0.4484E+01  0.1625E+03
     20.305  0.4961E+01  0.1631E+03
     20.430  0.5726E+01  0.1638E+03
     20.556  0.5316E+01  0.1645E+03
     20.681  0.4820E+01  0.1651E+03
     20.806  0.4052E+01  0.1657E+03
     20.932  0.3522E+01  0.1661E+03
     21.057  0.3114E+01  0.1665E+03
     21.182  0.2724E+01  0.1669E+03
     21.307  0.2363E+01  0.1672E+03
     21.433  0.2044E+01  0.1675E+03
     21.558  0.1721E+01  0.1677E+03
     21.683  0.1005E+01  0.1679E+03
     21.808  0.1699E+00  0.1680E+03
     21.934  0.2141E-01  0.1680E+03
     22.059  0.1918E-04  0.1680E+03
     22.184  0.0000E+00  0.1680E+03
     22.309  0.0000E+00  0.1680E+03
     22.435  0.0000E+00  0.1680E+03
     22.560  0.0000E+00  0.1680E+03
     22.685  0.0000E+00  0.1680E+03
     22.810  0.0000E+00  0.1680E+03
     22.936  0.0000E+00  0.1680E+03
     23.061  0.0000E+00  0.1680E+03
     23.186  0.0000E+00  0.1680E+03
     23.311  0.0000E+00  0.1680E+03
     23.437  0.0000E+00  0.1680E+03
     23.562  0.0000E+00  0.1680E+03
     23.687  0.0000E+00  0.1680E+03
     23.812  0.0000E+00  0.1680E+03
     23.938  0.0000E+00  0.1680E+03
     24.063  0.0000E+00  0.1680E+03
