   32   32    1    1
  0.4874656E+01  0.4934311E-09  0.4934311E-09  0.7398317E-09  0.5000000E-15
  1.000000000000000E-004
  CAR 
 graphite                                
    128    163     84
 
  0.0000000E+00  0.0000000E+00  0.0000000E+00  0.3086420E-02
    1      -11.514550
    2       -9.311566
    3       -9.303462
    4       -5.827841
    5       -5.824240
    6       -5.820729
    7       -4.665703
    8       -4.663280
    9       -4.659943
   10       -3.843922
   11       -3.795417
   12       -3.790950
   13       -3.787734
   14       -3.785835
   15       -3.783232
   16       -3.778359
   17       -2.570976
   18       -2.564703
   19       -2.562236
   20       -2.561709
   21       -2.559602
   22       -2.553424
   23       -1.406158
   24        1.092902
   25        1.095883
   26        1.098726
   27        1.125670
   28        1.129236
   29        1.133175
   30        3.439909
   31        3.442506
   32        3.443950
   33        4.137638
   34        4.140141
   35        4.143294
   36        4.968327
   37        4.972315
   38        4.973823
   39        4.975023
   40        4.978093
   41        4.981475
   42        6.980797
   43        6.983875
   44        6.986332
   45        7.602076
   46        7.608943
   47        7.639054
   48        7.645371
   49        8.132407
   50        8.134970
   51        8.138681
   52        8.469121
   53        8.474644
   54        8.479454
   55        8.485608
   56        9.254339
   57        9.259674
   58       11.781711
   59       11.784506
   60       11.787019
   61       11.788693
   62       11.790142
   63       11.793355
   64       13.470154
   65       13.475029
   66       13.477195
   67       13.478664
   68       13.480172
   69       13.485752
   70       15.088852
   71       15.094543
   72       15.098253
   73       15.369405
   74       16.290847
   75       16.291876
   76       16.294329
   77       19.002930
   78       19.011689
   79       19.385694
   80       19.396034
   81       19.400763
   82       19.411081
   83       19.613721
   84       20.004776
 
  0.1111111E+00  0.6938894E-17  0.0000000E+00  0.6172840E-02
    1      -11.435855
    2       -9.234059
    3       -9.225962
    4       -6.644327
    5       -6.065259
    6       -6.061887
    7       -4.559514
    8       -4.551972
    9       -4.287523
   10       -4.284685
   11       -4.010058
   12       -4.006760
   13       -4.002007
   14       -3.998238
   15       -3.780672
   16       -3.720650
   17       -2.218696
   18       -2.216990
   19       -2.213552
   20       -2.207781
   21       -1.680968
   22       -1.673867
   23       -1.316409
   24        0.130150
   25        0.636322
   26        0.638463
   27        1.648031
   28        1.650685
   29        2.184344
   30        3.180001
   31        3.182559
   32        3.521358
   33        3.670570
   34        4.061805
   35        4.064607
   36        4.686944
   37        4.691686
   38        4.695058
   39        4.696519
   40        5.046247
   41        5.052657
   42        6.818532
   43        6.821929
   44        7.049861
   45        7.148481
   46        7.347917
   47        7.629140
   48        7.634990
   49        8.221995
   50        8.229315
   51        8.309982
   52        8.318697
   53        8.361290
   54        8.365041
   55        8.739867
   56        9.115356
   57        9.251031
   58       11.430569
   59       11.434891
   60       11.730057
   61       11.733910
   62       11.736888
   63       11.739239
   64       13.705017
   65       13.705920
   66       13.708521
   67       13.714624
   68       13.820798
   69       13.824482
   70       15.165404
   71       15.380755
   72       15.530135
   73       15.537128
   74       15.950718
   75       15.953609
   76       16.285807
   77       18.840713
   78       18.875198
   79       18.883641
   80       19.228995
   81       19.327033
   82       19.713591
   83       19.726800
   84       20.177225
 
  0.2222222E+00  0.0000000E+00  0.0000000E+00  0.6172840E-02
    1      -11.200022
    2       -9.002031
    3       -8.993956
    4       -7.733195
    5       -6.429090
    6       -6.426370
    7       -5.611000
    8       -5.603295
    9       -4.352327
   10       -4.349481
   11       -4.344264
   12       -4.341457
   13       -3.592505
   14       -3.516651
   15       -3.514087
   16       -2.296238
   17       -1.491745
   18       -1.489490
   19       -1.485712
   20       -1.481228
   21       -1.047912
   22       -0.717232
   23       -0.284305
   24       -0.277382
   25        0.249252
   26        0.251258
   27        1.922422
   28        1.924925
   29        2.712577
   30        2.812435
   31        2.814195
   32        3.323825
   33        3.754912
   34        3.889340
   35        3.892244
   36        3.953715
   37        3.957949
   38        3.961252
   39        3.963165
   40        5.265777
   41        5.272203
   42        6.006392
   43        6.366178
   44        6.369335
   45        6.737617
   46        7.068966
   47        7.075560
   48        7.241056
   49        7.871768
   50        7.880043
   51        8.091728
   52        8.096964
   53        8.639425
   54        8.975642
   55        8.979822
   56        9.119618
   57       10.090136
   58       10.750619
   59       10.754081
   60       11.631657
   61       11.635802
   62       11.639983
   63       11.641652
   64       14.216354
   65       14.217710
   66       14.219642
   67       14.225733
   68       14.483674
   69       14.486658
   70       15.073106
   71       15.076123
   72       15.380601
   73       15.397942
   74       16.268708
   75       16.725775
   76       16.732517
   77       18.141619
   78       18.148009
   79       18.283651
   80       18.526624
   81       19.942732
   82       20.539506
   83       20.549105
   84       20.633795
 
  0.3333333E+00  0.5551115E-16  0.0000000E+00  0.6172840E-02
    1      -10.808001
    2       -8.717060
    3       -8.616622
    4       -8.608563
    5       -6.702826
    6       -6.700336
    7       -6.568739
    8       -6.560953
    9       -4.613924
   10       -4.611291
   11       -4.605872
   12       -4.603398
   13       -3.280362
   14       -2.588469
   15       -2.585807
   16       -1.699062
   17       -0.623704
   18       -0.620533
   19       -0.616838
   20       -0.614072
   21       -0.600945
   22       -0.494693
   23       -0.083105
   24       -0.081236
   25        1.217462
   26        1.218394
   27        1.232327
   28        1.238868
   29        1.704976
   30        2.995070
   31        2.999150
   32        3.002466
   33        3.004674
   34        3.310853
   35        3.313212
   36        3.720913
   37        3.723689
   38        4.138242
   39        4.495173
   40        4.505419
   41        5.622194
   42        5.628568
   43        5.710745
   44        5.713793
   45        5.841867
   46        5.848344
   47        6.010332
   48        7.287174
   49        7.294685
   50        7.546354
   51        7.842112
   52        8.376000
   53        8.381437
   54        8.806711
   55        9.839310
   56        9.843810
   57       10.038979
   58       10.043020
   59       11.547595
   60       11.552157
   61       11.557186
   62       11.558488
   63       11.713045
   64       13.944332
   65       13.947598
   66       14.719236
   67       14.720813
   68       14.722420
   69       14.728620
   70       15.197668
   71       15.201977
   72       15.328272
   73       15.737806
   74       16.244807
   75       17.392250
   76       17.398639
   77       17.405966
   78       17.557629
   79       18.438592
   80       18.444944
   81       21.045014
   82       21.049655
   83       21.141182
   84       21.735407
 
  0.4444444E+00  0.0000000E+00  0.0000000E+00  0.6172840E-02
    1      -10.261348
    2       -9.562689
    3       -8.079956
    4       -8.071965
    5       -7.395358
    6       -7.387440
    7       -6.844498
    8       -6.842151
    9       -4.750319
   10       -4.747774
   11       -4.742276
   12       -4.739915
   13       -2.847354
   14       -2.301636
   15       -1.621232
   16       -1.618288
   17       -0.559603
   18       -0.557144
   19        0.012071
   20        0.199009
   21        0.200892
   22        0.204342
   23        0.208999
   24        0.550158
   25        0.551050
   26        0.788730
   27        1.119084
   28        2.101391
   29        2.104731
   30        2.108518
   31        2.110102
   32        2.802823
   33        2.809734
   34        2.825180
   35        3.622403
   36        3.625189
   37        4.043878
   38        4.046819
   39        4.368816
   40        4.375324
   41        4.658646
   42        4.970555
   43        4.973126
   44        5.294840
   45        5.689237
   46        6.099892
   47        6.106653
   48        6.670794
   49        6.677948
   50        6.826200
   51        7.940994
   52        8.383480
   53        8.820138
   54        8.825279
   55        9.382928
   56        9.387534
   57       10.712946
   58       10.719110
   59       11.501073
   60       11.505760
   61       11.511175
   62       11.512431
   63       12.911905
   64       12.916116
   65       13.377929
   66       14.765909
   67       15.016753
   68       15.018295
   69       15.019772
   70       15.026018
   71       15.918807
   72       15.924341
   73       16.230663
   74       16.253639
   75       16.495187
   76       16.649172
   77       16.655347
   78       16.848361
   79       20.468029
   80       20.473987
   81       21.541252
   82       21.546336
   83       21.827666
   84       21.832604
 
 -0.8470329E-21  0.1111111E+00  0.0000000E+00  0.6172840E-02
    1      -11.435853
    2       -9.234057
    3       -9.225960
    4       -6.644489
    5       -6.065276
    6       -6.061441
    7       -4.559752
    8       -4.552172
    9       -4.288614
   10       -4.284870
   11       -4.009879
   12       -4.005994
   13       -4.001928
   14       -3.998056
   15       -3.780594
   16       -3.719795
   17       -2.221473
   18       -2.216562
   19       -2.213649
   20       -2.208857
   21       -1.679373
   22       -1.672690
   23       -1.316417
   24        0.131079
   25        0.634765
   26        0.639281
   27        1.645986
   28        1.651009
   29        2.185522
   30        3.181783
   31        3.182935
   32        3.519626
   33        3.669256
   34        4.062087
   35        4.066020
   36        4.689054
   37        4.691468
   38        4.695292
   39        4.698126
   40        5.045086
   41        5.049986
   42        6.820379
   43        6.822267
   44        7.047552
   45        7.152696
   46        7.343674
   47        7.629601
   48        7.635318
   49        8.228004
   50        8.230270
   51        8.309430
   52        8.311433
   53        8.360474
   54        8.363330
   55        8.741858
   56        9.119000
   57        9.247281
   58       11.430647
   59       11.433169
   60       11.730679
   61       11.733825
   62       11.737264
   63       11.740654
   64       13.701850
   65       13.707041
   66       13.708397
   67       13.713669
   68       13.823031
   69       13.824625
   70       15.164165
   71       15.380693
   72       15.532771
   73       15.535761
   74       15.950271
   75       15.953825
   76       16.286334
   77       18.837218
   78       18.873452
   79       18.877800
   80       19.233923
   81       19.327239
   82       19.721942
   83       19.729287
   84       20.179027
 
  0.1111111E+00  0.1111111E+00  0.0000000E+00  0.6172840E-02
    1      -11.278559
    2       -9.079290
    3       -9.071208
    4       -7.144212
    5       -7.139371
    6       -5.619484
    7       -5.041925
    8       -5.035085
    9       -5.032591
   10       -5.027332
   11       -4.442014
   12       -3.655304
   13       -3.593948
   14       -3.586599
   15       -2.973136
   16       -2.968380
   17       -2.358353
   18       -2.351137
   19       -1.137503
   20       -0.962646
   21       -0.954807
   22       -0.953201
   23       -0.948433
   24       -0.281532
   25       -0.277221
   26        1.033407
   27        1.283592
   28        2.502933
   29        2.676671
   30        2.682399
   31        3.270146
   32        3.274565
   33        3.404973
   34        3.409521
   35        3.879252
   36        3.885495
   37        4.350114
   38        4.837668
   39        4.839347
   40        4.841561
   41        4.848081
   42        6.303749
   43        6.435831
   44        6.821060
   45        6.947234
   46        6.951936
   47        7.338485
   48        7.344911
   49        7.963459
   50        7.971860
   51        8.082357
   52        8.086486
   53        8.388708
   54        8.882051
   55        9.110841
   56        9.416093
   57        9.420319
   58       11.158824
   59       11.161040
   60       11.163268
   61       11.167732
   62       11.973209
   63       11.979135
   64       13.877532
   65       13.885083
   66       14.267433
   67       14.269031
   68       14.272740
   69       14.273168
   70       15.046879
   71       15.396576
   72       15.671439
   73       15.677938
   74       15.959421
   75       15.962332
   76       16.661592
   77       18.398035
   78       18.404565
   79       18.749263
   80       18.783050
   81       19.245412
   82       20.182865
   83       20.195565
   84       20.529003
 
  0.2222222E+00  0.1111111E+00  0.0000000E+00  0.6172840E-02
    1      -10.964639
    2       -8.770555
    3       -8.762505
    4       -8.184564
    5       -7.509002
    6       -6.049870
    7       -6.042101
    8       -5.644867
    9       -5.393261
   10       -5.385598
   11       -3.862089
   12       -3.605275
   13       -3.597862
   14       -3.404855
   15       -2.110275
   16       -1.827343
   17       -1.820180
   18       -1.635380
   19       -0.910255
   20       -0.780620
   21       -0.564891
   22       -0.121399
   23       -0.114972
   24        0.438698
   25        0.501010
   26        0.507710
   27        1.336005
   28        2.263731
   29        2.341111
   30        2.361341
   31        2.827980
   32        2.834516
   33        2.949945
   34        3.433881
   35        3.712134
   36        4.121698
   37        4.186519
   38        4.191721
   39        4.476724
   40        5.132357
   41        5.138721
   42        5.205688
   43        5.584041
   44        6.045517
   45        6.398184
   46        6.405966
   47        6.557294
   48        7.200102
   49        7.384650
   50        7.393936
   51        8.266035
   52        8.271284
   53        8.316297
   54        8.821259
   55        8.853597
   56       10.296487
   57       10.450470
   58       10.453972
   59       10.932517
   60       10.968192
   61       10.970767
   62       12.110779
   63       12.116237
   64       13.837171
   65       14.161734
   66       14.169671
   67       14.889888
   68       14.892803
   69       14.977038
   70       14.980057
   71       15.153474
   72       15.391968
   73       15.957436
   74       15.976435
   75       16.934467
   76       17.795428
   77       17.801666
   78       17.803446
   79       18.270313
   80       18.309206
   81       19.739090
   82       20.916404
   83       20.926031
   84       20.945177
 
  0.3333333E+00  0.1111111E+00  0.0000000E+00  0.6172840E-02
    1      -10.495251
    2       -9.100151
    3       -8.309539
    4       -8.301526
    5       -7.732592
    6       -6.943029
    7       -6.935169
    8       -5.788515
    9       -5.610305
   10       -5.602612
   11       -3.735296
   12       -3.727861
   13       -3.032228
   14       -2.927592
   15       -1.951306
   16       -1.284505
   17       -0.989707
   18       -0.982744
   19       -0.650264
   20       -0.532397
   21       -0.250068
   22        0.318408
   23        0.745938
   24        0.751921
   25        1.062699
   26        1.294539
   27        1.489290
   28        1.748703
   29        1.755227
   30        2.038371
   31        2.044846
   32        2.743925
   33        3.005097
   34        3.346559
   35        3.351924
   36        3.656321
   37        3.965324
   38        4.406990
   39        4.497462
   40        4.760133
   41        5.085178
   42        5.092354
   43        5.228629
   44        5.274208
   45        5.559276
   46        5.565712
   47        5.965442
   48        6.729267
   49        6.737386
   50        7.434189
   51        7.553801
   52        8.426140
   53        8.642132
   54        8.647358
   55        9.629086
   56        9.761108
   57        9.765352
   58       10.851703
   59       10.854621
   60       11.259432
   61       12.171616
   62       12.175826
   63       12.594730
   64       12.600659
   65       14.153340
   66       14.395212
   67       14.401931
   68       15.185860
   69       15.413759
   70       15.417792
   71       15.700358
   72       15.704664
   73       15.998415
   74       16.378448
   75       16.672309
   76       17.122489
   77       17.128630
   78       17.576489
   79       18.704721
   80       20.277819
   81       20.849493
   82       21.409952
   83       21.414481
   84       21.589728
 
  0.4444444E+00  0.1111111E+00  0.0000000E+00  0.6172840E-02
    1       -9.874779
    2       -9.870368
    3       -7.807725
    4       -7.702206
    5       -7.696106
    6       -7.693609
    7       -7.687839
    8       -5.846378
    9       -5.683222
   10       -5.675516
   11       -3.789077
   12       -3.781636
   13       -2.543916
   14       -2.539791
   15       -2.154554
   16       -1.341479
   17       -1.029385
   18       -0.422691
   19       -0.417125
   20       -0.375195
   21        0.444168
   22        0.448527
   23        0.892044
   24        0.971360
   25        1.104640
   26        1.109991
   27        1.270237
   28        1.276364
   29        1.983662
   30        1.988065
   31        2.673294
   32        2.817466
   33        2.823522
   34        3.587859
   35        3.595860
   36        3.598666
   37        3.599392
   38        3.658405
   39        4.072897
   40        4.493796
   41        4.568134
   42        4.574549
   43        4.968972
   44        5.438171
   45        6.100520
   46        6.103244
   47        6.103372
   48        6.115549
   49        6.367909
   50        6.372651
   51        7.976044
   52        7.982881
   53        9.143695
   54        9.148833
   55        9.153341
   56        9.157975
   57       10.203339
   58       10.812450
   59       10.815603
   60       11.868535
   61       11.871522
   62       12.188384
   63       12.191270
   64       13.518704
   65       14.181517
   66       14.187202
   67       14.483388
   68       14.488597
   69       15.616523
   70       15.621268
   71       16.098385
   72       16.102293
   73       16.414653
   74       16.418969
   75       16.420942
   76       16.426663
   77       16.923162
   78       16.927761
   79       20.663480
   80       20.920758
   81       21.713963
   82       21.718852
   83       21.720495
   84       21.721982
 
 -0.4444444E+00  0.1111111E+00  0.0000000E+00  0.6172840E-02
    1      -10.495336
    2       -9.100031
    3       -8.309632
    4       -8.301615
    5       -7.732774
    6       -6.942905
    7       -6.935039
    8       -5.788129
    9       -5.610529
   10       -5.602826
   11       -3.734851
   12       -3.727425
   13       -3.032282
   14       -2.926730
   15       -1.951193
   16       -1.286375
   17       -0.988955
   18       -0.982837
   19       -0.648997
   20       -0.533918
   21       -0.250191
   22        0.318099
   23        0.744706
   24        0.751580
   25        1.063189
   26        1.294720
   27        1.489973
   28        1.748362
   29        1.753964
   30        2.037833
   31        2.044544
   32        2.743584
   33        3.005330
   34        3.346854
   35        3.353633
   36        3.656882
   37        3.965112
   38        4.406691
   39        4.498049
   40        4.759583
   41        5.086529
   42        5.092196
   43        5.228915
   44        5.273852
   45        5.559595
   46        5.566586
   47        5.966099
   48        6.729406
   49        6.735369
   50        7.434154
   51        7.553799
   52        8.425820
   53        8.642246
   54        8.647420
   55        9.629819
   56        9.761093
   57        9.765399
   58       10.851269
   59       10.854558
   60       11.258074
   61       12.173070
   62       12.175554
   63       12.592947
   64       12.600584
   65       14.155288
   66       14.395314
   67       14.400152
   68       15.185913
   69       15.414089
   70       15.418925
   71       15.699849
   72       15.704688
   73       15.998979
   74       16.377982
   75       16.672142
   76       17.123126
   77       17.128236
   78       17.577013
   79       18.707916
   80       20.273897
   81       20.851574
   82       21.409402
   83       21.413667
   84       21.589856
 
 -0.3333333E+00  0.1111111E+00  0.0000000E+00  0.6172840E-02
    1      -10.964700
    2       -8.770618
    3       -8.762566
    4       -8.184399
    5       -7.509417
    6       -6.049719
    7       -6.041944
    8       -5.643972
    9       -5.393723
   10       -5.386040
   11       -3.861554
   12       -3.604217
   13       -3.596862
   14       -3.404960
   15       -2.111675
   16       -1.826953
   17       -1.820604
   18       -1.635547
   19       -0.910236
   20       -0.780708
   21       -0.564278
   22       -0.122429
   23       -0.115376
   24        0.437040
   25        0.500572
   26        0.507395
   27        1.337078
   28        2.263935
   29        2.340866
   30        2.361956
   31        2.827428
   32        2.833070
   33        2.949252
   34        3.432986
   35        3.712270
   36        4.122729
   37        4.187055
   38        4.193523
   39        4.477865
   40        5.132615
   41        5.139131
   42        5.206449
   43        5.583321
   44        6.044865
   45        6.400500
   46        6.404921
   47        6.558169
   48        7.200332
   49        7.385814
   50        7.390409
   51        8.266281
   52        8.271460
   53        8.316485
   54        8.820875
   55        8.854052
   56       10.295159
   57       10.450421
   58       10.454210
   59       10.931827
   60       10.967667
   61       10.970679
   62       12.113056
   63       12.116157
   64       13.835315
   65       14.161401
   66       14.166796
   67       14.890572
   68       14.894827
   69       14.976453
   70       14.980164
   71       15.155815
   72       15.391833
   73       15.957139
   74       15.976856
   75       16.937724
   76       17.796394
   77       17.800404
   78       17.803428
   79       18.270135
   80       18.305810
   81       19.741471
   82       20.923295
   83       20.926894
   84       20.944606
 
 -0.2222222E+00  0.1111111E+00  0.0000000E+00  0.6172840E-02
    1      -11.278595
    2       -9.079328
    3       -9.071244
    4       -7.142679
    5       -7.141368
    6       -5.618005
    7       -5.040734
    8       -5.035898
    9       -5.032146
   10       -5.029188
   11       -4.442031
   12       -3.655170
   13       -3.592280
   14       -3.585059
   15       -2.971841
   16       -2.970939
   17       -2.358362
   18       -2.352299
   19       -1.137557
   20       -0.961162
   21       -0.956315
   22       -0.953415
   23       -0.949858
   24       -0.279773
   25       -0.278474
   26        1.032241
   27        1.284631
   28        2.502070
   29        2.677619
   30        2.680023
   31        3.270665
   32        3.273216
   33        3.407549
   34        3.409309
   35        3.878601
   36        3.883961
   37        4.351634
   38        4.838218
   39        4.840185
   40        4.844311
   41        4.846817
   42        6.303096
   43        6.436443
   44        6.820199
   45        6.949271
   46        6.950794
   47        7.340531
   48        7.343818
   49        7.966102
   50        7.966519
   51        8.083430
   52        8.086854
   53        8.388942
   54        8.882691
   55        9.110172
   56        9.416905
   57        9.418236
   58       11.158289
   59       11.162238
   60       11.162820
   61       11.166378
   62       11.975745
   63       11.979355
   64       13.876621
   65       13.881680
   66       14.268120
   67       14.270992
   68       14.271663
   69       14.274792
   70       15.044754
   71       15.396469
   72       15.675113
   73       15.677345
   74       15.961026
   75       15.963499
   76       16.657928
   77       18.398989
   78       18.402057
   79       18.747757
   80       18.783111
   81       19.249348
   82       20.190908
   83       20.195853
   84       20.529683
 
 -0.1111111E+00  0.1111111E+00  0.0000000E+00  0.6172840E-02
    1      -11.435865
    2       -9.234070
    3       -9.225972
    4       -6.645396
    5       -6.064631
    6       -6.060663
    7       -4.560774
    8       -4.553145
    9       -4.288285
   10       -4.285087
   11       -4.009456
   12       -4.005083
   13       -4.001071
   14       -3.997142
   15       -3.780694
   16       -3.720387
   17       -2.222110
   18       -2.215860
   19       -2.212748
   20       -2.210644
   21       -1.679867
   22       -1.672675
   23       -1.316433
   24        0.131091
   25        0.636033
   26        0.638487
   27        1.646759
   28        1.649621
   29        2.185316
   30        3.180498
   31        3.183366
   32        3.520959
   33        3.667910
   34        4.062870
   35        4.066905
   36        4.689117
   37        4.690632
   38        4.693005
   39        4.699105
   40        5.045636
   41        5.051740
   42        6.818791
   43        6.823101
   44        7.048394
   45        7.153126
   46        7.343110
   47        7.629535
   48        7.635345
   49        8.226299
   50        8.233659
   51        8.305461
   52        8.313653
   53        8.359544
   54        8.364394
   55        8.741260
   56        9.119765
   57        9.246573
   58       11.428955
   59       11.433053
   60       11.731654
   61       11.734924
   62       11.737192
   63       11.741243
   64       13.700741
   65       13.706833
   66       13.708738
   67       13.709948
   68       13.823963
   69       13.827823
   70       15.167605
   71       15.380646
   72       15.529420
   73       15.535478
   74       15.950275
   75       15.951609
   76       16.288774
   77       18.834981
   78       18.871450
   79       18.878266
   80       19.236614
   81       19.327265
   82       19.722287
   83       19.735345
   84       20.180466
 
 -0.3388132E-20  0.2222222E+00  0.0000000E+00  0.6172840E-02
    1      -11.200014
    2       -9.002024
    3       -8.993947
    4       -7.733199
    5       -6.429793
    6       -6.425535
    7       -5.611019
    8       -5.603309
    9       -4.352962
   10       -4.348732
   11       -4.344806
   12       -4.340497
   13       -3.592507
   14       -3.518125
   15       -3.513612
   16       -2.295813
   17       -1.494430
   18       -1.489299
   19       -1.486368
   20       -1.481210
   21       -1.047941
   22       -0.716024
   23       -0.282844
   24       -0.276317
   25        0.247906
   26        0.252089
   27        1.919720
   28        1.924387
   29        2.711826
   30        2.813642
   31        2.816443
   32        3.325251
   33        3.753099
   34        3.889324
   35        3.893793
   36        3.955094
   37        3.958108
   38        3.961471
   39        3.965228
   40        5.264560
   41        5.269381
   42        6.009807
   43        6.367453
   44        6.370082
   45        6.734052
   46        7.073179
   47        7.076499
   48        7.238770
   49        7.870686
   50        7.873568
   51        8.092798
   52        8.097853
   53        8.642974
   54        8.974632
   55        8.978203
   56        9.115778
   57       10.091478
   58       10.750633
   59       10.753419
   60       11.632186
   61       11.635522
   62       11.639707
   63       11.643422
   64       14.213439
   65       14.218187
   66       14.220250
   67       14.225102
   68       14.484604
   69       14.486777
   70       15.072518
   71       15.077101
   72       15.379324
   73       15.397639
   74       16.269385
   75       16.727808
   76       16.731878
   77       18.139976
   78       18.145147
   79       18.280530
   80       18.527420
   81       19.947526
   82       20.539287
   83       20.541873
   84       20.638716
 
  0.1111111E+00  0.2222222E+00  0.0000000E+00  0.6172840E-02
    1      -10.964633
    2       -8.770547
    3       -8.762494
    4       -8.184548
    5       -7.509009
    6       -6.049866
    7       -6.042106
    8       -5.644837
    9       -5.393234
   10       -5.385579
   11       -3.862167
   12       -3.605240
   13       -3.597821
   14       -3.404844
   15       -2.110795
   16       -1.827438
   17       -1.820386
   18       -1.635860
   19       -0.908033
   20       -0.780644
   21       -0.566118
   22       -0.123009
   23       -0.116212
   24        0.439594
   25        0.502542
   26        0.508859
   27        1.333822
   28        2.263119
   29        2.342578
   30        2.361381
   31        2.828174
   32        2.834588
   33        2.950760
   34        3.434136
   35        3.712512
   36        4.121199
   37        4.187894
   38        4.194150
   39        4.476922
   40        5.130916
   41        5.135784
   42        5.207943
   43        5.584030
   44        6.043101
   45        6.400943
   46        6.406042
   47        6.559481
   48        7.197859
   49        7.384598