 running on    6 total cores
 distrk:  each k-point on    6 cores,    1 groups
 distr:  one band on    1 cores,    6 groups
 using from now: INCAR     
 vasp.5.3.5 31Mar14 (build Nov 02 2014 15:17:37) complex                        
  
 POSCAR found :  1 types and      32 ions
 scaLAPACK will be used

 ----------------------------------------------------------------------------- 
|                                                                             |
|           W    W    AA    RRRRR   N    N  II  N    N   GGGG   !!!           |
|           W    W   A  A   R    R  NN   N  II  NN   N  G    G  !!!           |
|           W    W  A    A  R    R  N N  N  II  N N  N  G       !!!           |
|           W WW W  AAAAAA  RRRRR   N  N N  II  N  N N  G  GGG   !            |
|           WW  WW  A    A  R   R   N   NN  II  N   NN  G    G                |
|           W    W  A    A  R    R  N    N  II  N    N   GGGG   !!!           |
|                                                                             |
|      For optimal performance we recommend to set                            |
|        NCORE= 4 - approx SQRT( number of cores)                             |
|      NCORE specifies how many cores store one orbital (NPAR=cpu/NCORE).     |
|      This setting can  greatly improve the performance of VASP for DFT.     |
|      The default, NPAR=number of cores might be grossly inefficient         |
|      on modern multi-core architectures or massively parallel machines.     |
|      Do your own testing !!!!                                               |
|      Unfortunately you need to use the default for GW and RPA calculations. |
|      (for HF NCORE is supported but not extensively tested yet)             |
|                                                                             |
 ----------------------------------------------------------------------------- 


 ----------------------------------------------------------------------------- 
|                                                                             |
|  ADVICE TO THIS USER RUNNING 'VASP/VAMP'   (HEAR YOUR MASTER'S VOICE ...):  |
|                                                                             |
|      You have a (more or less) 'large supercell' and for larger cells       |
|      it might be more efficient to use real space projection operators      |
|      So try LREAL= Auto  in the INCAR   file.                               |
|      Mind: If you want to do a very accurate calculations keep the          |
|      reciprocal projection scheme          (i.e. LREAL=.FALSE.)             |
|                                                                             |
 ----------------------------------------------------------------------------- 

 LDA part: xc-table for Pade appr. of Perdew
 POSCAR, INCAR and KPOINTS ok, starting setup
 WARNING: small aliasing (wrap around) errors must be expected
 FFT: planning ...
 WAVECAR not read
 WARNING: random wavefunctions but no delay for mixing, default for NELMDL
 entering main loop
       N       E                     dE             d eps       ncg     rms          rms(c)
DAV:   1     0.505620454131E+03    0.50562E+03   -0.74145E+04 27384   0.164E+03
DAV:   2    -0.266795233878E+03   -0.77242E+03   -0.74161E+03 34008   0.307E+02
DAV:   3    -0.306579258191E+03   -0.39784E+02   -0.39345E+02 33372   0.682E+01
DAV:   4    -0.307229502107E+03   -0.65024E+00   -0.64880E+00 33132   0.948E+00
DAV:   5    -0.307247261339E+03   -0.17759E-01   -0.17751E-01 33564   0.149E+00    0.220E+01
DAV:   6    -0.294205588252E+03    0.13042E+02   -0.12926E+01 31296   0.104E+01    0.115E+01
DAV:   7    -0.290159693902E+03    0.40459E+01   -0.12944E+01 31008   0.105E+01    0.176E+00
DAV:   8    -0.290188048885E+03   -0.28355E-01   -0.21478E-01 31320   0.150E+00    0.312E-01
DAV:   9    -0.290190445347E+03   -0.23965E-02   -0.47636E-03 33132   0.271E-01    0.771E-02
DAV:  10    -0.290190787102E+03   -0.34176E-03   -0.52185E-04 31896   0.761E-02    0.243E-02
DAV:  11    -0.290190764981E+03    0.22121E-04   -0.85152E-05 31596   0.281E-02    0.294E-03
DAV:  12    -0.290190764666E+03    0.31505E-06   -0.19855E-06 25992   0.500E-03
   1 F= -.29390110E+03 E0= -.29389938E+03  d E =-.344138E-02
