   4   4   0   0
  0.4431505E+01  0.2467155E-09  0.2467155E-09  0.3362871E-09  0.5000000E-15
  1.000000000000000E-004
  CAR 
 graphite                                
     29.91760149    -13.32796779  301     15.63208299      1.00000000
    -13.328  0.0000E+00  0.0000E+00
    -13.184  0.0000E+00  0.0000E+00
    -13.040  0.0000E+00  0.0000E+00
    -12.896  0.0000E+00  0.0000E+00
    -12.751  0.0000E+00  0.0000E+00
    -12.607  0.0000E+00  0.0000E+00
    -12.463  0.0000E+00  0.0000E+00
    -12.319  0.0000E+00  0.0000E+00
    -12.175  0.0000E+00  0.0000E+00
    -12.031  0.0000E+00  0.0000E+00
    -11.886  0.0000E+00  0.0000E+00
    -11.742  0.0000E+00  0.0000E+00
    -11.598  0.0000E+00  0.0000E+00
    -11.454  0.0000E+00  0.0000E+00
    -11.310  0.7285E-05  0.4402E-07
    -11.166  0.2965E-03  0.2156E-04
    -11.022  0.4453E-03  0.7697E-04
    -10.877  0.5326E-03  0.1474E-03
    -10.733  0.6504E-03  0.2329E-03
    -10.589  0.7265E-03  0.3329E-03
    -10.445  0.7936E-03  0.4422E-03
    -10.301  0.8626E-03  0.5618E-03
    -10.157  0.9146E-03  0.6899E-03
    -10.012  0.9777E-03  0.8262E-03
     -9.868  0.1048E-02  0.9721E-03
     -9.724  0.1100E-02  0.1127E-02
     -9.580  0.1139E-02  0.1289E-02
     -9.436  0.1187E-02  0.1456E-02
     -9.292  0.1235E-02  0.1631E-02
     -9.148  0.1284E-02  0.1813E-02
     -9.003  0.1326E-02  0.2001E-02
     -8.859  0.1370E-02  0.2195E-02
     -8.715  0.1418E-02  0.2396E-02
     -8.571  0.1463E-02  0.2604E-02
     -8.427  0.1503E-02  0.2818E-02
     -8.283  0.1538E-02  0.3037E-02
     -8.138  0.1574E-02  0.3261E-02
     -7.994  0.1613E-02  0.3491E-02
     -7.850  0.1652E-02  0.3726E-02
     -7.706  0.1692E-02  0.3967E-02
     -7.562  0.1734E-02  0.4214E-02
     -7.418  0.1772E-02  0.4467E-02
     -7.274  0.1812E-02  0.4725E-02
     -7.129  0.1853E-02  0.4989E-02
     -6.985  0.1890E-02  0.5259E-02
     -6.841  0.1928E-02  0.5534E-02
     -6.697  0.1970E-02  0.5815E-02
     -6.553  0.2012E-02  0.6102E-02
     -6.409  0.2056E-02  0.6395E-02
     -6.265  0.2109E-02  0.6696E-02
     -6.120  0.2173E-02  0.7004E-02
     -5.976  0.2255E-02  0.7323E-02
     -5.832  0.2438E-02  0.7657E-02
     -5.688  0.2527E-02  0.8021E-02
     -5.544  0.2420E-02  0.8376E-02
     -5.400  0.2544E-02  0.8734E-02
     -5.255  0.2396E-02  0.9092E-02
     -5.111  0.2319E-02  0.9431E-02
     -4.967  0.2262E-02  0.9761E-02
     -4.823  0.2193E-02  0.1008E-01
     -4.679  0.2236E-02  0.1040E-01
     -4.535  0.2152E-02  0.1072E-01
     -4.391  0.2058E-02  0.1102E-01
     -4.246  0.1962E-02  0.1131E-01
     -4.102  0.1948E-02  0.1159E-01
     -3.958  0.2191E-02  0.1189E-01
     -3.814  0.2177E-02  0.1220E-01
     -3.670  0.2216E-02  0.1252E-01
     -3.526  0.2313E-02  0.1284E-01
     -3.381  0.2508E-02  0.1320E-01
     -3.237  0.2509E-02  0.1356E-01
     -3.093  0.2618E-02  0.1393E-01
     -2.949  0.2766E-02  0.1431E-01
     -2.805  0.2936E-02  0.1472E-01
     -2.661  0.3126E-02  0.1516E-01
     -2.517  0.3154E-02  0.1562E-01
     -2.372  0.2916E-02  0.1605E-01
     -2.228  0.2740E-02  0.1646E-01
     -2.084  0.2669E-02  0.1685E-01
     -1.940  0.2546E-02  0.1723E-01
     -1.796  0.2641E-02  0.1760E-01
     -1.652  0.2700E-02  0.1798E-01
     -1.508  0.2718E-02  0.1837E-01
     -1.363  0.2620E-02  0.1875E-01
     -1.219  0.2582E-02  0.1912E-01
     -1.075  0.2758E-02  0.1951E-01
     -0.931  0.3013E-02  0.1992E-01
     -0.787  0.3395E-02  0.2039E-01
     -0.643  0.3428E-02  0.2087E-01
     -0.498  0.3504E-02  0.2138E-01
     -0.354  0.3407E-02  0.2187E-01
     -0.210  0.3442E-02  0.2237E-01
     -0.066  0.3324E-02  0.2286E-01
      0.078  0.3292E-02  0.2333E-01
      0.222  0.3397E-02  0.2381E-01
      0.366  0.3439E-02  0.2432E-01
      0.511  0.3308E-02  0.2480E-01
      0.655  0.3324E-02  0.2528E-01
      0.799  0.3259E-02  0.2576E-01
      0.943  0.3177E-02  0.2622E-01
      1.087  0.3339E-02  0.2669E-01
      1.231  0.3570E-02  0.2718E-01
      1.376  0.3646E-02  0.2771E-01
      1.520  0.3799E-02  0.2824E-01
      1.664  0.3501E-02  0.2876E-01
      1.808  0.3566E-02  0.2927E-01
      1.952  0.3676E-02  0.2979E-01
      2.096  0.3720E-02  0.3032E-01
      2.240  0.3833E-02  0.3087E-01
      2.385  0.3999E-02  0.3143E-01
      2.529  0.3838E-02  0.3200E-01
      2.673  0.3931E-02  0.3256E-01
      2.817  0.4055E-02  0.3313E-01
      2.961  0.4139E-02  0.3372E-01
      3.105  0.4204E-02  0.3433E-01
      3.250  0.4288E-02  0.3494E-01
      3.394  0.4452E-02  0.3557E-01
      3.538  0.4627E-02  0.3622E-01
      3.682  0.4846E-02  0.3690E-01
      3.826  0.4908E-02  0.3760E-01
      3.970  0.5445E-02  0.3834E-01
      4.114  0.6025E-02  0.3918E-01
      4.259  0.5795E-02  0.4004E-01
      4.403  0.5541E-02  0.4085E-01
      4.547  0.5664E-02  0.4165E-01
      4.691  0.5882E-02  0.4249E-01
      4.835  0.5062E-02  0.4326E-01
      4.979  0.4717E-02  0.4397E-01
      5.123  0.4361E-02  0.4462E-01
      5.268  0.4248E-02  0.4524E-01
      5.412  0.4287E-02  0.4585E-01
      5.556  0.4363E-02  0.4649E-01
      5.700  0.4377E-02  0.4712E-01
      5.844  0.4425E-02  0.4776E-01
      5.988  0.4509E-02  0.4840E-01
      6.133  0.4678E-02  0.4906E-01
      6.277  0.4821E-02  0.4975E-01
      6.421  0.4994E-02  0.5046E-01
      6.565  0.4757E-02  0.5117E-01
      6.709  0.4357E-02  0.5181E-01
      6.853  0.4257E-02  0.5244E-01
      6.997  0.4177E-02  0.5304E-01
      7.142  0.4220E-02  0.5364E-01
      7.286  0.4514E-02  0.5427E-01
      7.430  0.4842E-02  0.5494E-01
      7.574  0.4974E-02  0.5567E-01
      7.718  0.4424E-02  0.5634E-01
      7.862  0.4011E-02  0.5694E-01
      8.007  0.3850E-02  0.5751E-01
      8.151  0.3785E-02  0.5806E-01
      8.295  0.3605E-02  0.5859E-01
      8.439  0.3581E-02  0.5911E-01
      8.583  0.3846E-02  0.5964E-01
      8.727  0.4033E-02  0.6021E-01
      8.871  0.4231E-02  0.6080E-01
      9.016  0.4571E-02  0.6144E-01
      9.160  0.4313E-02  0.6208E-01
      9.304  0.4268E-02  0.6269E-01
      9.448  0.4112E-02  0.6330E-01
      9.592  0.3783E-02  0.6387E-01
      9.736  0.3361E-02  0.6438E-01
      9.880  0.3243E-02  0.6485E-01
     10.025  0.3187E-02  0.6532E-01
     10.169  0.3184E-02  0.6578E-01
     10.313  0.3102E-02  0.6623E-01
     10.457  0.3047E-02  0.6667E-01
     10.601  0.2973E-02  0.6711E-01
     10.745  0.2790E-02  0.6753E-01
     10.890  0.1873E-02  0.6792E-01
     11.034  0.1683E-02  0.6816E-01
     11.178  0.1755E-02  0.6841E-01
     11.322  0.1796E-02  0.6867E-01
     11.466  0.1816E-02  0.6893E-01
     11.610  0.1832E-02  0.6919E-01
     11.754  0.1839E-02  0.6945E-01
     11.899  0.1836E-02  0.6972E-01
     12.043  0.1851E-02  0.6998E-01
     12.187  0.1884E-02  0.7025E-01
     12.331  0.1926E-02  0.7053E-01
     12.475  0.1972E-02  0.7081E-01
     12.619  0.2025E-02  0.7110E-01
     12.764  0.2082E-02  0.7139E-01
     12.908  0.2138E-02  0.7170E-01
     13.052  0.2195E-02  0.7201E-01
     13.196  0.2258E-02  0.7233E-01
     13.340  0.2330E-02  0.7266E-01
     13.484  0.2416E-02  0.7300E-01
     13.628  0.2525E-02  0.7336E-01
     13.773  0.2708E-02  0.7373E-01
     13.917  0.2909E-02  0.7414E-01
     14.061  0.3081E-02  0.7457E-01
     14.205  0.3271E-02  0.7503E-01
     14.349  0.3188E-02  0.7550E-01
     14.493  0.3177E-02  0.7595E-01
     14.638  0.3178E-02  0.7641E-01
     14.782  0.3225E-02  0.7687E-01
     14.926  0.3281E-02  0.7734E-01
     15.070  0.3430E-02  0.7782E-01
     15.214  0.3645E-02  0.7834E-01
     15.358  0.3722E-02  0.7887E-01
     15.502  0.4093E-02  0.7943E-01
     15.647  0.4650E-02  0.8007E-01
     15.791  0.4829E-02  0.8073E-01
     15.935  0.5653E-02  0.8148E-01
     16.079  0.7211E-02  0.8249E-01
     16.223  0.6383E-02  0.8345E-01
     16.367  0.6273E-02  0.8436E-01
     16.511  0.5770E-02  0.8524E-01
     16.656  0.5965E-02  0.8602E-01
     16.800  0.5353E-02  0.8681E-01
     16.944  0.5196E-02  0.8757E-01
     17.088  0.5483E-02  0.8835E-01
     17.232  0.5579E-02  0.8914E-01
     17.376  0.5528E-02  0.8995E-01
     17.521  0.5231E-02  0.9072E-01
     17.665  0.4889E-02  0.9146E-01
     17.809  0.4596E-02  0.9214E-01
     17.953  0.4401E-02  0.9279E-01
     18.097  0.4217E-02  0.9341E-01
     18.241  0.4035E-02  0.9400E-01
     18.385  0.3817E-02  0.9457E-01
     18.530  0.3607E-02  0.9510E-01
     18.674  0.3489E-02  0.9561E-01
     18.818  0.3377E-02  0.9611E-01
     18.962  0.3204E-02  0.9658E-01
     19.106  0.3164E-02  0.9703E-01
     19.250  0.2687E-02  0.9746E-01
     19.395  0.2444E-02  0.9783E-01
     19.539  0.2002E-02  0.9815E-01
     19.683  0.1799E-02  0.9843E-01
     19.827  0.1447E-02  0.9866E-01
     19.971  0.1328E-02  0.9886E-01
     20.115  0.1342E-02  0.9904E-01
     20.259  0.1553E-02  0.9924E-01
     20.404  0.1392E-02  0.9947E-01
     20.548  0.1467E-02  0.9968E-01
     20.692  0.1697E-02  0.9990E-01
     20.836  0.2057E-02  0.1002E+00
     20.980  0.1928E-02  0.1005E+00
     21.124  0.1813E-02  0.1007E+00
     21.268  0.1687E-02  0.1010E+00
     21.413  0.1718E-02  0.1012E+00
     21.557  0.1801E-02  0.1015E+00
     21.701  0.1928E-02  0.1017E+00
     21.845  0.1880E-02  0.1020E+00
     21.989  0.1899E-02  0.1023E+00
     22.133  0.1980E-02  0.1026E+00
     22.278  0.2089E-02  0.1029E+00
     22.422  0.2433E-02  0.1032E+00
     22.566  0.2903E-02  0.1036E+00
     22.710  0.3769E-02  0.1041E+00
     22.854  0.4365E-02  0.1047E+00
     22.998  0.4154E-02  0.1053E+00
     23.142  0.4078E-02  0.1059E+00
     23.287  0.4047E-02  0.1065E+00
     23.431  0.3826E-02  0.1070E+00
     23.575  0.3703E-02  0.1076E+00
     23.719  0.3589E-02  0.1081E+00
     23.863  0.3469E-02  0.1086E+00
     24.007  0.3325E-02  0.1091E+00
     24.152  0.3184E-02  0.1096E+00
     24.296  0.3094E-02  0.1100E+00
     24.440  0.3059E-02  0.1105E+00
     24.584  0.3012E-02  0.1109E+00
     24.728  0.2986E-02  0.1113E+00
     24.872  0.2963E-02  0.1118E+00
     25.016  0.3039E-02  0.1122E+00
     25.161  0.3124E-02  0.1126E+00
     25.305  0.2997E-02  0.1131E+00
     25.449  0.2925E-02  0.1135E+00
     25.593  0.2875E-02  0.1139E+00
     25.737  0.2855E-02  0.1143E+00
     25.881  0.2845E-02  0.1147E+00
     26.026  0.2890E-02  0.1152E+00
     26.170  0.2985E-02  0.1156E+00
     26.314  0.3520E-02  0.1160E+00
     26.458  0.3733E-02  0.1166E+00
     26.602  0.3617E-02  0.1171E+00
     26.746  0.3434E-02  0.1176E+00
     26.890  0.2727E-02  0.1181E+00
     27.035  0.2555E-02  0.1184E+00
     27.179  0.2360E-02  0.1188E+00
     27.323  0.2119E-02  0.1191E+00
     27.467  0.1929E-02  0.1194E+00
     27.611  0.1603E-02  0.1197E+00
     27.755  0.1024E-02  0.1199E+00
     27.899  0.2486E-03  0.1200E+00
     28.044  0.0000E+00  0.1200E+00
     28.188  0.0000E+00  0.1200E+00
     28.332  0.0000E+00  0.1200E+00
     28.476  0.0000E+00  0.1200E+00
     28.620  0.0000E+00  0.1200E+00
     28.764  0.0000E+00  0.1200E+00
     28.909  0.0000E+00  0.1200E+00
     29.053  0.0000E+00  0.1200E+00
     29.197  0.0000E+00  0.1200E+00
     29.341  0.0000E+00  0.1200E+00
     29.485  0.0000E+00  0.1200E+00
     29.629  0.0000E+00  0.1200E+00
     29.773  0.0000E+00  0.1200E+00
     29.918  0.0000E+00  0.1200E+00
