    4    4  200    1
  0.6204108E+01  0.2467155E-09  0.2467155E-09  0.4708020E-09  0.5000000E-15
  1.000000000000000E-004
  CAR 
 graphite                                
     16    455     12
 
  0.0000000E+00  0.0000000E+00  0.0000000E+00  0.3858025E-03
    1      -12.442133
    2       -9.674037
    3       -2.449673
    4        5.259932
    5        5.264679
    6        5.653405
    7        5.657908
    8        6.011429
    9       16.436643
   10       16.439469
   11       17.092214
   12       17.095746
 
  0.5555556E-01  0.6938894E-17  0.0000000E+00  0.1543210E-02
    1      -12.365444
    2       -9.605162
    3       -2.358498
    4        4.910966
    5        5.067245
    6        5.405886
    7        5.536763
    8        6.080349
    9       16.417330
   10       16.743166
   11       17.137992
   12       17.420599
 
  0.1111111E+00  0.1387779E-16  0.0000000E+00  0.1543210E-02
    1      -12.135763
    2       -9.398919
    3       -2.085675
    4        3.974717
    5        4.583543
    6        4.687947
    7        5.190882
    8        6.283904
    9       16.250571
   10       17.279869
   11       17.498483
   12       17.612391
 
  0.1666667E+00  0.0000000E+00  0.0000000E+00  0.1543210E-02
    1      -11.754182
    2       -9.056475
    3       -1.633256
    4        2.667853
    5        3.626015
    6        3.966092
    7        4.689920
    8        6.611683
    9       15.899907
   10       16.239595
   11       17.444395
   12       18.936079
 
  0.2222222E+00  0.4163336E-16  0.0000000E+00  0.1543210E-02
    1      -11.222566
    2       -8.579606
    3       -1.004796
    4        1.166416
    5        2.362763
    6        3.330121
    7        4.136460
    8        7.039125
    9       14.704923
   10       15.471062
   11       17.537242
   12       17.797712
 
  0.2777778E+00  0.0000000E+00  0.0000000E+00  0.1543210E-02
    1      -10.543567
    2       -7.971806
    3       -0.408034
    4       -0.207603
    5        1.006641
    6        2.748064
    7        3.610267
    8        7.504450
    9       13.093149
   10       15.052731
   11       16.647965
   12       17.548683
 
  0.3333333E+00  0.0000000E+00  0.0000000E+00  0.1543210E-02
    1       -9.722089
    2       -7.239630
    3       -1.976069
    4       -0.368057
    5        0.744851
    6        2.263861
    7        3.163139
    8        7.819588
    9       11.711052
   10       14.695431
   11       15.497928
   12       17.511625
 
  0.3888889E+00  0.5551115E-16  0.0000000E+00  0.1543210E-02
    1       -8.766066
    2       -6.401477
    3       -3.473024
    4       -1.709763
    5        1.822817
    6        1.904026
    7        2.826269
    8        7.521655
    9       11.114384
   10       14.368513
   11       14.426587
   12       17.461163
 
  0.4444444E+00  0.8326673E-16  0.0000000E+00  0.1543210E-02
    1       -7.698272
    2       -5.633518
    3       -4.686798
    4       -2.977504
    5        1.682987
    6        2.617700
    7        2.929659
    8        6.560307
    9       11.471134
   10       13.283797
   11       14.260655
   12       17.421783
 
  0.5000000E+00  0.1110223E-15  0.0000000E+00  0.7716049E-03
    1       -6.808404
    2       -6.113371
    3       -4.308643
    4       -3.982598
    5        1.608610
    6        2.547362
    7        3.577689
    8        5.899168
    9       12.259215
   10       12.312391
   11       14.204634
   12       17.407270
 
  0.5555556E-01  0.5555556E-01  0.0000000E+00  0.7716049E-03
    1      -12.212255
    2       -9.467604
    3       -2.176498
    4        4.333892
    5        4.606327
    6        5.033153
    7        5.246928
    8        6.216618
    9       16.470103
   10       16.990052
   11       17.470809
   12       17.950812
 
  0.1111111E+00  0.5555556E-01  0.0000000E+00  0.1543210E-02
    1      -11.906623
    2       -9.193218
    3       -1.813792
    4        3.281855
    5        3.849186
    6        4.333151
    7        4.767514
    8        6.482903
    9       16.365535
   10       16.748269
   11       17.336820
   12       18.218677
 
  0.1666667E+00  0.5555556E-01  0.0000000E+00  0.1543210E-02
    1      -11.450004
    2       -8.783566
    3       -1.273229
    4        1.910696
    5        2.866974
    6        3.516864
    7        4.212940
    8        6.863381
    9       15.379068
   10       16.015453
   11       17.673674
   12       18.175588
 
  0.2222222E+00  0.5555556E-01  0.0000000E+00  0.1543210E-02
    1      -10.844669
    2       -8.241242
    3       -0.559967
    4        0.390883
    5        1.643920
    6        2.816289
    7        3.656922
    8        7.321035
    9       13.818058
   10       15.603080
   11       17.037471
   12       17.814502
 
  0.2777778E+00  0.5555556E-01  0.0000000E+00  0.1543210E-02
    1      -10.094242
    2       -7.570771
    3       -1.170480
    4        0.314941
    5        0.316380
    6        2.244508
    7        3.160906
    8        7.752972
    9       12.290614
   10       15.218611
   11       15.899174
   12       17.831790
 
  0.3333333E+00  0.5555556E-01  0.0000000E+00  0.1543210E-02
    1       -9.205070
    2       -6.782841
    3       -2.700724
    4       -1.026259
    5        1.336356
    6        1.804427
    7        2.763858
    8        7.837848
    9       11.222643
   10       14.783639
   11       14.906039
   12       17.796950
 
  0.3888889E+00  0.5555556E-01  0.0000000E+00  0.1543210E-02
    1       -8.189605
    2       -5.920862
    3       -4.114029
    4       -2.323653
    5        1.505108
    6        2.449235
    7        2.488745
    8        7.141638
    9       11.142367
   10       13.705110
   11       14.688349
   12       17.754007
 
  0.4444444E+00  0.5555556E-01  0.0000000E+00  0.1543210E-02
    1       -7.104086
    2       -5.754428
    3       -4.592041
    4       -3.524145
    5        1.353696
    6        2.348236
    7        3.445044
    8        6.160608
    9       11.759880
   10       12.695857
   11       14.577079
   12       17.727258
 
  0.5000000E+00  0.5555556E-01  0.0000000E+00  0.1543210E-02
    1       -7.104277
    2       -5.754278
    3       -4.592187
    4       -3.523928
    5        1.353664
    6        2.348198
    7        3.444972
    8        6.160682
    9       11.759850
   10       12.695818
   11       14.577159
   12       17.727355
 
 -0.4444444E+00  0.5555556E-01  0.0000000E+00  0.1543210E-02
    1       -8.189804
    2       -5.921031
    3       -4.113807
    4       -2.323434
    5        1.505026
    6        2.449120
    7        2.488637
    8        7.141761
    9       11.142269
   10       13.704999
   11       14.688591
   12       17.754309
 
 -0.3888889E+00  0.5555556E-01  0.0000000E+00  0.1543210E-02
    1       -9.205278
    2       -6.783023
    3       -2.700486
    4       -1.026098
    5        1.336240
    6        1.804345
    7        2.763602
    8        7.837957
    9       11.222485
   10       14.783454
   11       14.906447
   12       17.797474
 
 -0.3333333E+00  0.5555556E-01  0.0000000E+00  0.1543210E-02
    1      -10.094393
    2       -7.570919
    3       -1.170267
    4        0.314939
    5        0.316276
    6        2.244549
    7        3.160728
    8        7.753027
    9       12.290410
   10       15.219195
   11       15.898937
   12       17.832679
 
 -0.2777778E+00  0.5555556E-01  0.0000000E+00  0.1543210E-02
    1      -10.844793
    2       -8.241364
    3       -0.560057
    4        0.390995
    5        1.643472
    6        2.816761
    7        3.656807
    8        7.321054
    9       13.817757
   10       15.603861
   11       17.037216
   12       17.815942
 
 -0.2222222E+00  0.5555556E-01  0.0000000E+00  0.1543210E-02
    1      -11.450101
    2       -8.783661
    3       -1.273301
    4        1.910556
    5        2.865456
    6        3.518431
    7        4.213051
    8        6.863383
    9       15.378635
   10       16.016487
   11       17.676102
   12       18.175364
 
 -0.1666667E+00  0.5555556E-01  0.0000000E+00  0.1543210E-02
    1      -11.906692
    2       -9.193286
    3       -1.813844
    4        3.281039
    5        3.847110
    6        4.335363
    7        4.768268
    8        6.482899
    9       16.367052
   10       16.747747
   11       17.340251
   12       18.217831
 
 -0.1111111E+00  0.5555556E-01  0.0000000E+00  0.1543210E-02
    1      -12.212297
    2       -9.467645
    3       -2.176530
    4        4.331150
    5        4.606871
    6        5.032819
    7        5.249583
    8        6.216614
    9       16.472880
   10       16.991260
   11       17.470988
   12       17.774655
 
 -0.5555556E-01  0.5555556E-01  0.0000000E+00  0.7716049E-03
    1      -12.365458
    2       -9.605175
    3       -2.358509
    4        4.907510
    5        5.070707
    6        5.402600
    7        5.540112
    8        6.080348
    9       16.419812
   10       16.741029
   11       17.140650
   12       17.417990
 
  0.1111111E+00  0.1111111E+00  0.0000000E+00  0.7716049E-03
    1      -11.525968
    2       -8.851808
    3       -1.362998
    4        2.360562
    5        2.850902
    6        3.720615
    7        4.069254
    8        6.803758
    9       15.646596
   10       16.796891
   11       17.417837
   12       18.265521
 
  0.1666667E+00  0.1111111E+00  0.0000000E+00  0.1543210E-02
    1      -10.995646
    2       -8.376514
    3       -0.737027
    4        1.106526
    5        1.882267
    6        2.838907
    7        3.398980
    8        7.224320
    9       14.292848
   10       16.704719
   11       17.130422
   12       18.039834
 
  0.2222222E+00  0.1111111E+00  0.0000000E+00  0.1543210E-02
    1      -10.318805
    2       -7.771157
    3       -0.349066
    4        0.057053
    5        0.839474
    6        1.985311
    7        2.829178
    8        7.690066
    9       12.814019
   10       15.993150
   11       16.359409
   12       18.539573
 
  0.2777778E+00  0.1111111E+00  0.0000000E+00  0.1543210E-02
    1       -9.500399
    2       -7.042895
    3       -1.851987
    4       -0.359957
    5        1.005650
    6        1.357314
    7        2.362865
    8        8.031302
    9       11.473151
   10       14.913140
   11       16.024909
   12       18.661351
 
  0.3333333E+00  0.1111111E+00  0.0000000E+00  0.1543210E-02
    1       -8.549116
    2       -6.210363
    3       -3.310442
    4       -1.616221
    5        0.935037
    6        2.017575
    7        2.078811
    8        7.768147
    9       10.843589
   10       13.898766
   11       15.762958
   12       18.655004
 
  0.3888889E+00  0.1111111E+00  0.0000000E+00  0.1543210E-02
    1       -7.488267
    2       -5.448314
    3       -4.503326
    4       -2.839166
    5        0.687907
    6        1.805856
    7        3.181059
    8        6.801978
    9       11.131037
   10       12.968802
   11       15.598615
   12       18.627790
 
  0.4444444E+00  0.1111111E+00  0.0000000E+00  0.1543210E-02
    1       -6.609177
    2       -5.911879
    3       -4.131709
    4       -3.828315
    5        0.606332
    6        1.734421
    7        3.827166
    8        6.137196
    9       11.565117
   10       12.383888
   11       15.542841
   12       18.615764
 
  0.5000000E+00  0.1111111E+00  0.0000000E+00  0.1543210E-02
    1       -7.488675
    2       -5.448451
    3       -4.503125
    4       -2.838741
    5        0.687840
    6        1.805733
    7        3.180857
    8        6.802188
    9       11.130882
   10       12.968690
   11       15.598902
   12       18.628177
 
 -0.4444444E+00  0.1111111E+00  0.0000000E+00  0.1543210E-02
    1       -8.549492
    2       -6.210715
    3       -3.309976
    4       -1.615891
    5        0.934984
    6        2.017356
    7        2.078583
    8        7.768398
    9       10.843268
   10       13.898542
   11       15.763547
   12       18.655871
 
 -0.3888889E+00  0.1111111E+00  0.0000000E+00  0.1543210E-02
    1       -9.500727
    2       -7.043214
    3       -1.851566
    4       -0.359946
    5        1.005434
    6        1.357510
    7        2.362616
    8        8.031476
    9       11.472709
   10       14.912839
   11       16.025837
   12       18.662988
 
 -0.3333333E+00  0.1111111E+00  0.0000000E+00  0.1543210E-02
    1      -10.319081
    2       -7.771427
    3       -0.348849
    4        0.056862
    5        0.838716
    6        1.986240
    7        2.829052
    8        7.690139
    9       12.813408
   10       15.992836
   11       16.360768
   12       18.542767
 
 -0.2777778E+00  0.1111111E+00  0.0000000E+00  0.1543210E-02
    1      -10.995850
    2       -8.376725
    3       -0.737187
    4        1.106150
    5        1.880742
    6        2.840637
    7        3.399546
    8        7.224341
    9       14.291978
   10       16.706813
   11       17.130169
   12       18.044739
 
 -0.2222222E+00  0.1111111E+00  0.0000000E+00  0.1543210E-02
    1      -11.526135
    2       -8.851971
    3       -1.363121
    4        2.358593
    5        2.849894
    6        3.721856
    7        4.071257
    8        6.803756
    9       15.645512
   10       16.801021
   11       17.421133
   12       18.264937
 
 -0.1666667E+00  0.1111111E+00  0.0000000E+00  0.1543210E-02
    1      -11.906734
    2       -9.193327
    3       -1.813875
    4        3.278701
    5        3.848466
    6        4.334144
    7        4.770738
    8        6.482895
    9       16.369630
   10       16.747200
   11       17.340171
   12       18.217522
 
 -0.1111111E+00  0.1111111E+00  0.0000000E+00  0.7716049E-03
    1      -12.135818
    2       -9.398973
    3       -2.085717
    4        3.971458
    5        4.586889
    6        4.684835
    7        5.194189
    8        6.283898
    9       16.253702
   10       17.282684
   11       17.497844
   12       17.610215
 
  0.1666667E+00  0.1666667E+00  0.0000000E+00  0.7716049E-03
    1      -10.393761
    2       -7.838188
    3       -0.029657
    4        0.186706
    5        0.806847
    6        2.053773
    7        2.481215
    8        7.665361
    9       13.039842
   10       15.972647
   11       17.604027
   12       18.184057
 
  0.2222222E+00  0.1666667E+00  0.0000000E+00  0.1543210E-02
    1       -9.648822
    2       -7.174181
    3       -1.046638
    4       -0.109360
    5        0.838658
    6        1.118873
    7        1.802350
    8        8.112039
    9       11.705409
   10       14.876947
   11       17.548257
   12       19.183522
 
  0.2777778E+00  0.1666667E+00  0.0000000E+00  0.1543210E-02
    1       -8.767408
    2       -6.396110
    3       -2.435627
    4       -1.050143
    5        0.326021
    6        1.346719
    7        1.848572
    8        8.291208
    9       10.610332
   10       13.915878
   11       17.275156
   12       19.881888
 
  0.3333333E+00  0.1666667E+00  0.0000000E+00  0.1543210E-02
    1       -7.763563
    2       -5.548390
    3       -3.777051
    4       -2.138604
    5       -0.140783
    6        1.049366
    7        2.949973
    8        7.628502
    9       10.400216
   10       13.107915
   11       17.064001
   12       19.960751
 
  0.3888889E+00  0.1666667E+00  0.0000000E+00  0.1543210E-02
    1       -6.696573
    2       -5.368478
    3       -4.247024
    4       -3.247342
    5       -0.349528
    6        0.901238
    7        3.936192
    8        6.631473
    9       10.686328
   10       12.545649
   11       16.952845
   12       19.951543
 
  0.4444444E+00  0.1666667E+00  0.0000000E+00  0.1543210E-02
    1       -6.697153
    2       -5.368073
    3       -4.247452
    4       -3.246778
    5       -0.349520
    6        0.901016
    7        3.935998
    8        6.631662
    9       10.686203
   10       12.545591
   11       16.953027
   12       19.951809
 
  0.5000000E+00  0.1666667E+00  0.0000000E+00  0.1543210E-02
    1       -7.764153
    2       -5.548887
    3       -3.776453
    4       -2.138186
    5       -0.140650
    6        1.049193
    7        2.949658
    8        7.628847
    9       10.399799
   10       13.107752
   11       17.064571
   12       19.961778
 
 -0.4444444E+00  0.1666667E+00  0.0000000E+00  0.1543210E-02
    1       -8.767935
    2       -6.396616
    3       -2.435067
    4       -1.050289
    5        0.326659
    6        1.346544
    7        1.848251
    8        8.291584
    9       10.609581
   10       13.915663
   11       17.276203
   12       19.884915
 
 -0.3888889E+00  0.1666667E+00  0.0000000E+00  0.1543210E-02
    1       -9.649274
    2       -7.174623
    3       -1.046516
    4       -0.110198
    5        0.838362
    6        1.120180
    7        1.802498
    8        8.112231
    9       11.704431
   10       14.876768
   11       17.550101
   12       19.189432
 
 -0.3333333E+00  0.1666667E+00  0.0000000E+00  0.1543210E-02
    1      -10.394133
    2       -7.838553
    3       -0.029913
    4        0.185482
    5        0.806248
    6        2.054781
    7        2.482690
    8        7.665435
    9       13.038527
   10       15.972569
   11       17.608972
   12       18.187453
 
 -0.2777778E+00  0.1666667E+00  0.0000000E+00  0.1543210E-02
    1      -10.995923
    2       -8.376794
    3       -0.737234
    4        1.104176
    5        1.881314
    6        2.840261
    7        3.401767
    8        7.224339
    9       14.291240
   10       16.709973
   11       17.130426
   12       18.044117
 
 -0.2222222E+00  0.1666667E+00  0.0000000E+00  0.1543210E-02
    1      -11.450211
    2       -8.783769
    3       -1.273381
    4        1.907916
    5        2.864663
    6        3.519606
    7        4.216007
    8        6.863377
    9       15.377401
   10       16.019817
   11       17.678089
   12       18.175642
 
 -0.1666667E+00  0.1666667E+00  0.0000000E+00  0.7716049E-03
    1      -11.754306
    2       -9.056598
    3       -1.633348
    4        2.664879
    5        3.623192
    6        3.969306
    7        4.693145
    8        6.611675
    9       15.903483
   10       16.238244
   11       17.447605
   12       18.934118
 
  0.2222222E+00  0.2222222E+00  0.0000000E+00  0.7716049E-03
    1       -8.840420
    2       -6.459316
    3       -1.830040
    4       -1.119464
    5        0.345390
    6        0.822432
    7        1.770675
    8        8.508665
    9       10.511646
   10       13.894217
   11       18.838661
   12       19.197038
 
  0.2777778E+00  0.2222222E+00  0.0000000E+00  0.1543210E-02
    1       -7.904445
    2       -5.646765
    3       -2.941828
    4       -1.880325
    5       -0.529578
    6        0.257957
    7        2.822718
    8        8.482343
    9        9.617159
   10       13.154593
   11       18.763509
   12       20.492939
 
  0.3333333E+00  0.2222222E+00  0.0000000E+00  0.1543210E-02
    1       -6.866952
    2       -4.897448
    3       -4.027501
    4       -2.657719
    5       -1.165127
    6       -0.010641
    7        3.900227
    8        7.494537
    9        9.638209
   10       12.688060
   11       18.598952
   12       21.551829
 
  0.3888889E+00  0.2222222E+00  0.0000000E+00  0.1543210E-02
    1       -6.021986
    2       -5.320109
    3       -3.622278
    4       -3.539428
    5       -1.360048
    6       -0.095165
    7        4.529530
    8        6.822245
    9        9.729246
   10       12.524097
   11       18.540739
   12       21.545318
 
  0.4444444E+00  0.2222222E+00  0.0000000E+00  0.1543210E-02
    1       -6.867746
    2       -4.897730
    3       -4.027189
    4       -2.657389
    5       -1.164638
    6       -0.010699
    7        3.899898
    8        7.494812
    9        9.637926
   10       12.687936
   11       18.599352
   12       21.549959
 
  0.5000000E+00  0.2222222E+00  0.0000000E+00  0.1543210E-02
    1       -7.905187
    2       -5.647451
    3       -2.941333
    4       -1.880590
    5       -0.528462
    6        0.258052
    7        2.822326
    8        8.482946
    9        9.616186
   10       13.154447
   11       18.764485
   12       20.498755
 
 -0.4444444E+00  0.2222222E+00  0.0000000E+00  0.1543210E-02
    1       -8.841071
    2       -6.459946
    3       -1.830626
    4       -1.119521
    5        0.346200
    6        0.823610
    7        1.770290
    8        8.509051
    9       10.510351
   10       13.894172
   11       18.843555
   12       19.199631
 
 -0.3888889E+00  0.2222222E+00  0.0000000E+00  0.1543210E-02
    1       -9.649370
    2       -7.174718
    3       -1.048248
    4       -0.109715
    5        0.838309
    6        1.119896
    7        1.804550
    8        8.112201
    9       11.703764
   10       14.877039
   11       17.554009
   12       19.187491
 
 -0.3333333E+00  0.2222222E+00  0.0000000E+00  0.1543210E-02
    1      -10.319246
    2       -7.771590
    3       -0.351123
    4        0.056758
    5        0.837914
    6        1.987535
    7        2.831800
    8        7.690126
    9       12.812057
   10       15.993292
   11       16.364545
   12       18.545050
 
 -0.2777778E+00  0.2222222E+00  0.0000000E+00  0.1543210E-02
    1      -10.845000
    2       -8.241568
    3       -0.560197
    4        0.388488
    5        1.641595
    6        2.819286
    7        3.659878
    8        7.321049
    9       13.815981
   10       15.607552
   11       17.037620
   12       17.819048
 
 -0.2222222E+00  0.2222222E+00  0.0000000E+00  0.7716049E-03
    1      -11.222787
    2       -8.579823
    3       -1.004953
    4        1.163760
    5        2.360234
    6        3.333267
    7        4.139617
    8        7.039120
    9       14.703031
   10       15.474917
   11       17.540846
   12       17.797945
 
  0.2777778E+00  0.2777778E+00  0.0000000E+00  0.7716049E-03
    1       -6.930022
    2       -4.842904
    3       -3.537752
    4       -2.721328
    5       -1.144919
    6       -0.670597
    7        3.873330
    8        8.425978
    9        8.654373
   10       12.737962
   11       20.273006
   12       20.293292
 
  0.3333333E+00  0.2777778E+00  0.0000000E+00  0.1543210E-02
    1       -5.912260
    2       -4.622827
    3       -3.931808
    4       -3.183822
    5       -1.788768
    6       -1.033220
    7        4.791593
    8        7.483141
    9        8.649083
   10       12.582757
   11       20.154001
   12       21.575849
 
  0.3888889E+00  0.2777778E+00  0.0000000E+00  0.1543210E-02
    1       -5.913120
    2       -4.622190
    3       -3.932341
    4       -3.183800
    5       -1.788096
    6       -1.033110
    7        4.791415
    8        7.483008
    9        8.649214
   10       12.582667
   11       20.154124
   12       21.580227
 
  0.4444444E+00  0.2777778E+00  0.0000000E+00  0.1543210E-02
    1       -6.930971
    2       -4.843678
    3       -3.537850
    4       -2.721080
    5       -1.144207
    6       -0.669583
    7        3.872969
    8        8.424676
    9        8.655421
   10       12.737775
   11       20.274473
   12       20.297646
 
  0.5000000E+00  0.2777778E+00  0.0000000E+00  0.1543210E-02
    1       -7.905308
    2       -5.647580
    3       -2.942810
    4       -1.880128
    5       -0.528778
    6        0.259898
    7        2.822301
    8        8.482237
    9        9.616446
   10       13.154505
   11       18.769070
   12       20.494621
 
 -0.4444444E+00  0.2777778E+00  0.0000000E+00  0.1543210E-02
    1       -8.768152
    2       -6.396835
    3       -2.437020
    4       -1.050999
    5        0.327876
    6        1.349027
    7        1.848161
    8        8.291234
    9       10.608808
   10       13.915975
   11       17.280548
   12       19.887886
 
 -0.3888889E+00  0.2777778E+00  0.0000000E+00  0.1543210E-02
    1       -9.501014
    2       -7.043499
    3       -1.853714
    4       -0.361530
    5        1.005280
    6        1.359867
    7        2.365486
    8        8.031336
    9       11.471123
   10       14.913284
   11       16.029918
   12       18.666590
 
 -0.3333333E+00  0.2777778E+00  0.0000000E+00  0.1543210E-02
    1      -10.094722
    2       -7.571245
    3       -1.172525
    4        0.312952
    5        0.316074
    6        2.247458
    7        3.163819
    8        7.752989
    9       12.288371
   10       15.223132
   11       15.899296
   12       17.836333
 
 -0.2777778E+00  0.2777778E+00  0.0000000E+00  0.7716049E-03
    1      -10.543911
    2       -7.972145
    3       -0.410366
    4       -0.207831
    5        1.004416
    6        2.751175
    7        3.613381
    8        7.504451
    9       13.090954
   10       15.056777
   11       16.648189
   12       17.552574
 
  0.3333333E+00  0.3333333E+00  0.0000000E+00  0.7716049E-03
    1       -5.274758
    2       -4.436630
    3       -4.435586
    4       -3.085327
    5       -1.767277
    6       -1.766407
    7        5.222056
    8        7.818811
    9        7.820803
   10       12.575209
   11       21.235638
   12       21.676024
 
  0.3888889E+00  0.3333333E+00  0.0000000E+00  0.1543210E-02
    1       -5.913273
    2       -4.623391
    3       -3.931994
    4       -3.183957
    5       -1.788337
    6       -1.031540
    7        4.791512
    8        7.481580
    9        8.650319
   10       12.582549
   11       20.158810
   12       21.576777
 
  0.4444444E+00  0.3333333E+00  0.0000000E+00  0.1543210E-02
    1       -6.868007
    2       -4.898286
    3       -4.028506
    4       -2.658004
    5       -1.163593
    6       -0.008560
    7        3.899950
    8        7.493382
    9        9.638679
   10       12.687796
   11       18.604156
   12       21.553831
 
  0.5000000E+00  0.3333333E+00  0.0000000E+00  0.1543210E-02
    1       -7.764513
    2       -5.549289
    3       -3.778226
    4       -2.139534
    5       -0.138539
    6        1.051745
    7        2.949597
    8        7.627684
    9       10.399678
   10       13.107831
   11       17.069151
   12       19.966060
 
 -0.4444444E+00  0.3333333E+00  0.0000000E+00  0.1543210E-02
    1       -8.549925
    2       -6.211155
    3       -3.311883
    4       -1.617559
    5        0.937679
    6        2.020235
    7        2.078418
    8        7.767636
    9       10.842153
   10       13.898785
   11       15.767849
   12       18.659958
 
 -0.3888889E+00  0.3333333E+00  0.0000000E+00  0.1543210E-02
    1       -9.205756
    2       -6.783498
    3       -2.702463
    4       -1.027925
    5        1.335999
    6        1.807362
    7        2.766680
    8        7.837590
    9       11.220657
   10       14.783629
   11       14.910571
   12       17.801440
 
 -0.3333333E+00  0.3333333E+00  0.0000000E+00  0.7716049E-03
    1       -9.722582
    2       -7.240117
    3       -1.978088
    4       -0.369984
    5        0.744561
    6        2.266959
    7        3.166229
    8        7.819482
    9       11.708857
   10       14.699611
   11       15.498019
   12       17.515703
 
  0.3888889E+00  0.3888889E+00  0.0000000E+00  0.7716049E-03
    1       -6.022666
    2       -5.321216
    3       -3.623218
    4       -3.540045
    5       -1.358361
    6       -0.093019
    7        4.529689
    8        6.820546
    9        9.730075
   10       12.523768
   11       18.545725
   12       21.549627
 
  0.4444444E+00  0.3888889E+00  0.0000000E+00  0.1543210E-02
    1       -6.697671
    2       -5.369381
    3       -4.248277
    4       -3.248149
    5       -0.347169
    6        0.903538
    7        3.936138
    8        6.629964
    9       10.686540
   10       12.545262
   11       16.957801
   12       19.956428
 
  0.5000000E+00  0.3888889E+00  0.0000000E+00  0.1543210E-02
    1       -7.489268
    2       -5.449264
    3       -4.504583
    4       -2.840259
    5        0.690610
    6        1.808575
    7        3.180814
    8        6.800734
    9       11.130391
   10       12.968593
   11       15.603383
   12       18.632533
 
 -0.4444444E+00  0.3888889E+00  0.0000000E+00  0.1543210E-02
    1       -8.190448
    2       -5.921698
    3       -4.115492
    4       -2.325030
    5        1.508061
    6        2.448920
    7        2.491687
    8        7.140653
    9       11.141134
   10       13.704915
   11       14.692859
   12       17.758475
 
 -0.3888889E+00  0.3888889E+00  0.0000000E+00  0.7716049E-03
    1       -8.766730
    2       -6.402138
    3       -3.474749
    4       -1.711405
    5        1.822515
    6        1.907120
    7        2.829349
    8        7.520971
    9       11.112755
   10       14.368400
   11       14.430856
   12       17.465356
 
  0.4444444E+00  0.4444444E+00  0.0000000E+00  0.7716049E-03
    1       -6.610025
    2       -5.913117
    3       -4.132803
    4       -3.829444
    5        0.609085
    6        1.737205
    7        3.827331
    8        6.135385
    9       11.565017
   10       12.383365
   11       15.547475
   12       18.620321
 
  0.5000000E+00  0.4444444E+00  0.0000000E+00  0.1543210E-02
    1       -7.105080
    2       -5.755552
    3       -4.593234
    4       -3.525284
    5        1.356682
    6        2.351214
    7        3.445031
    8        6.158975
    9       11.759183
   10       12.695435
   11       14.581538
   12       17.731657
 
 -0.4444444E+00  0.4444444E+00  0.0000000E+00  0.7716049E-03
    1       -7.699115
    2       -5.634458
    3       -4.688184
    4       -2.978881
    5        1.686083
    6        2.620777
    7        2.929497
    8        6.558929
    9       11.470148
   10       13.283450
   11       14.264975
   12       17.426038
 
  0.5000000E+00  0.5000000E+00  0.0000000E+00  0.3858025E-03
    1       -6.809307
    2       -6.114650
    3       -4.309780
    4       -3.983777
    5        1.611706
    6        2.550438
    7        3.577843
    8        5.897320
    9       12.258569
   10       12.311809
   11       14.208971
   12       17.411544
 