mesh: [     9,     9,     4 ]
nqpoint: 50     
reciprocal_lattice:
- [   0.40533564,   0.23404500,   0.00000000 ] # a*
- [   0.00002110,   0.46805346,   0.00000000 ] # b*
- [   0.00000000,   0.00000000,   0.29736495 ] # c*
natom:   4      
lattice:
- [     2.467155442383188,    -0.000111200019553,     0.000000000000000 ] # a
- [    -1.233674023183305,     2.136563688137034,     0.000000000000000 ] # b
- [     0.000000000000000,     0.000000000000000,     3.362871155000000 ] # c
points:
- symbol: C  # 1
  coordinates: [  0.999999697166835,  0.000000349172772,  0.250000000000000 ]
  mass: 12.010700
- symbol: C  # 2
  coordinates: [  0.000000349172772,  0.999999697166835,  0.750000000000000 ]
  mass: 12.010700
- symbol: C  # 3
  coordinates: [  0.333298929956719,  0.666701052703672,  0.250000000000000 ]
  mass: 12.010700
- symbol: C  # 4
  coordinates: [  0.666701052703672,  0.333298929956719,  0.750000000000000 ]
  mass: 12.010700
phonon:
- q-position: [    0.0000000,    0.0000000,    0.1250000 ]
  weight: 2    
  band:
  - # 1
    frequency:    -5.0277888675
  - # 2
    frequency:    -4.4509674025
  - # 3
    frequency:     1.2680524823
  - # 4
    frequency:     1.3601075616
  - # 5
    frequency:     5.0453378775
  - # 6
    frequency:     7.7716270227
  - # 7
    frequency:    25.2788891979
  - # 8
    frequency:    27.7227423139
  - # 9
    frequency:    43.1633341206
  - # 10
    frequency:    43.3795147871
  - # 11
    frequency:    45.7535371004
  - # 12
    frequency:    45.9867653474

- q-position: [    0.1111111,    0.0000000,    0.1250000 ]
  weight: 8    
  band:
  - # 1
    frequency:     2.3242244496
  - # 2
    frequency:     4.3363815423
  - # 3
    frequency:     5.2033402065
  - # 4
    frequency:     6.9711774361
  - # 5
    frequency:     8.3679874942
  - # 6
    frequency:    10.8723853849
  - # 7
    frequency:    24.9058086593
  - # 8
    frequency:    27.6011988456
  - # 9
    frequency:    42.4305869452
  - # 10
    frequency:    42.8416163914
  - # 11
    frequency:    45.1561800632
  - # 12
    frequency:    45.3515778210

- q-position: [    0.2222222,    0.0000000,    0.1250000 ]
  weight: 8    
  band:
  - # 1
    frequency:     7.3501960586
  - # 2
    frequency:     8.2800689836
  - # 3
    frequency:     8.8911171038
  - # 4
    frequency:     9.7931218774
  - # 5
    frequency:    16.6977511271
  - # 6
    frequency:    19.4934896997
  - # 7
    frequency:    23.9545283108
  - # 8
    frequency:    27.1506045202
  - # 9
    frequency:    40.0637269725
  - # 10
    frequency:    41.6595879229
  - # 11
    frequency:    43.4271950885
  - # 12
    frequency:    43.5938910615

- q-position: [    0.3333333,    0.0000000,    0.1250000 ]
  weight: 8    
  band:
  - # 1
    frequency:     7.6351361250
  - # 2
    frequency:    12.0320557110
  - # 3
    frequency:    13.1947737655
  - # 4
    frequency:    13.4242138917
  - # 5
    frequency:    22.7035196211
  - # 6
    frequency:    24.5261958045
  - # 7
    frequency:    25.7073605070
  - # 8
    frequency:    27.4272139735
  - # 9
    frequency:    36.9435823794
  - # 10
    frequency:    39.6647154179
  - # 11
    frequency:    40.6351524114
  - # 12
    frequency:    41.3389605371

- q-position: [    0.4444444,    0.0000000,    0.1250000 ]
  weight: 8    
  band:
  - # 1
    frequency:     8.1097970555
  - # 2
    frequency:    14.6409865530
  - # 3
    frequency:    15.6425850659
  - # 4
    frequency:    15.7083909406
  - # 5
    frequency:    22.3924448707
  - # 6
    frequency:    24.6110628642
  - # 7
    frequency:    31.0724068854
  - # 8
    frequency:    32.6260996637
  - # 9
    frequency:    34.4892574107
  - # 10
    frequency:    36.3818554057
  - # 11
    frequency:    37.2114540262
  - # 12
    frequency:    39.6690467347

- q-position: [    0.1111111,    0.1111111,    0.1250000 ]
  weight: 4    
  band:
  - # 1
    frequency:     6.6456139703
  - # 2
    frequency:     7.5916593818
  - # 3
    frequency:     8.4235768587
  - # 4
    frequency:     9.5803519645
  - # 5
    frequency:    15.4247561314
  - # 6
    frequency:    16.3622159269
  - # 7
    frequency:    24.2355084237
  - # 8
    frequency:    27.3504133998
  - # 9
    frequency:    40.9299552787
  - # 10
    frequency:    41.6050460445
  - # 11
    frequency:    44.0924062658
  - # 12
    frequency:    44.1418218762

- q-position: [    0.2222222,    0.1111111,    0.1250000 ]
  weight: 8    
  band:
  - # 1
    frequency:     6.8073495057
  - # 2
    frequency:    11.9177249721
  - # 3
    frequency:    12.6542935842
  - # 4
    frequency:    13.7077479688
  - # 5
    frequency:    21.9353296648
  - # 6
    frequency:    23.1488635441
  - # 7
    frequency:    23.6250008259
  - # 8
    frequency:    26.7606875482
  - # 9
    frequency:    38.2806063039
  - # 10
    frequency:    39.7580273816
  - # 11
    frequency:    41.8469628107
  - # 12
    frequency:    42.1095746457

- q-position: [    0.3333333,    0.1111111,    0.1250000 ]
  weight: 8    
  band:
  - # 1
    frequency:     7.8696336989
  - # 2
    frequency:    14.8961149931
  - # 3
    frequency:    15.8075553643
  - # 4
    frequency:    17.0275531399
  - # 5
    frequency:    22.3304363892
  - # 6
    frequency:    25.0160981641
  - # 7
    frequency:    28.1465913677
  - # 8
    frequency:    29.9381684861
  - # 9
    frequency:    35.5188912624
  - # 10
    frequency:    37.4592791682
  - # 11
    frequency:    38.4448778329
  - # 12
    frequency:    40.0817571313

- q-position: [   -0.5555556,    0.1111111,    0.1250000 ]
  weight: 8    
  band:
  - # 1
    frequency:     8.8702587995
  - # 2
    frequency:    15.8906387410
  - # 3
    frequency:    16.7170504542
  - # 4
    frequency:    18.2071169324
  - # 5
    frequency:    22.3690369988
  - # 6
    frequency:    24.0658378499
  - # 7
    frequency:    32.7169839995
  - # 8
    frequency:    33.0144248967
  - # 9
    frequency:    33.9030540839
  - # 10
    frequency:    34.5478062886
  - # 11
    frequency:    36.2022869093
  - # 12
    frequency:    39.2157173307

- q-position: [   -0.4444444,    0.1111111,    0.1250000 ]
  weight: 8    
  band:
  - # 1
    frequency:     8.9297347590
  - # 2
    frequency:    14.5050302817
  - # 3
    frequency:    14.6504667174
  - # 4
    frequency:    16.7809489767
  - # 5
    frequency:    22.2847916487
  - # 6
    frequency:    24.9033910558
  - # 7
    frequency:    27.9398042059
  - # 8
    frequency:    29.4406274034
  - # 9
    frequency:    35.8153759933
  - # 10
    frequency:    37.5463091758
  - # 11
    frequency:    38.8726459895
  - # 12
    frequency:    40.1561622505

- q-position: [   -0.3333333,    0.1111111,    0.1250000 ]
  weight: 8    
  band:
  - # 1
    frequency:     8.0537034879
  - # 2
    frequency:    10.6055180777
  - # 3
    frequency:    11.4322098174
  - # 4
    frequency:    13.4151925919
  - # 5
    frequency:    21.2258968405
  - # 6
    frequency:    22.9612922979
  - # 7
    frequency:    23.5229087688
  - # 8
    frequency:    26.5761826668
  - # 9
    frequency:    38.6905151370
  - # 10
    frequency:    40.3772731584
  - # 11
    frequency:    41.5866190448
  - # 12
    frequency:    42.2663119004

- q-position: [   -0.2222222,    0.1111111,    0.1250000 ]
  weight: 8    
  band:
  - # 1
    frequency:     2.1272388415
  - # 2
    frequency:     7.3306555661
  - # 3
    frequency:     8.4217729013
  - # 4
    frequency:     9.8694710875
  - # 5
    frequency:    14.2256317879
  - # 6
    frequency:    16.3986693222
  - # 7
    frequency:    24.2435732715
  - # 8
    frequency:    27.2374982705
  - # 9
    frequency:    41.2648767436
  - # 10
    frequency:    42.1249740407
  - # 11
    frequency:    43.6375302957
  - # 12
    frequency:    44.3773072831

- q-position: [   -0.1111111,    0.1111111,    0.1250000 ]
  weight: 4    
  band:
  - # 1
    frequency:    -6.2688261520
  - # 2
    frequency:     4.9385978383
  - # 3
    frequency:     6.9158822240
  - # 4
    frequency:     7.1356451387
  - # 5
    frequency:     8.9361731861
  - # 6
    frequency:     9.8685480635
  - # 7
    frequency:    24.8996345042
  - # 8
    frequency:    27.5720605364
  - # 9
    frequency:    42.6091775750
  - # 10
    frequency:    42.9893461209
  - # 11
    frequency:    44.8967932197
  - # 12
    frequency:    45.5071826564

- q-position: [    0.2222222,    0.2222222,    0.1250000 ]
  weight: 4    
  band:
  - # 1
    frequency:     7.9068510738
  - # 2
    frequency:    14.6814296439
  - # 3
    frequency:    17.5408483192
  - # 4
    frequency:    18.3293529166
  - # 5
    frequency:    22.3536783835
  - # 6
    frequency:    24.9065607043
  - # 7
    frequency:    27.2285090519
  - # 8
    frequency:    27.4517547059
  - # 9
    frequency:    36.7161927547
  - # 10
    frequency:    36.8720700055
  - # 11
    frequency:    39.0174120182
  - # 12
    frequency:    40.2685969461

- q-position: [    0.3333333,    0.2222222,    0.1250000 ]
  weight: 8    
  band:
  - # 1
    frequency:     9.7004511823
  - # 2
    frequency:    16.1163983509
  - # 3
    frequency:    20.5108510825
  - # 4
    frequency:    21.8277002095
  - # 5
    frequency:    22.1945483427
  - # 6
    frequency:    23.7570152656
  - # 7
    frequency:    29.9578410610
  - # 8
    frequency:    30.8763241890
  - # 9
    frequency:    33.6330164112
  - # 10
    frequency:    35.0009113550
  - # 11
    frequency:    36.6810914360
  - # 12
    frequency:    38.8409339986

- q-position: [   -0.5555556,    0.2222222,    0.1250000 ]
  weight: 8    
  band:
  - # 1
    frequency:    10.4680002370
  - # 2
    frequency:    15.8525549518
  - # 3
    frequency:    19.4773252709
  - # 4
    frequency:    21.8702505545
  - # 5
    frequency:    22.0556899908
  - # 6
    frequency:    23.7191903348
  - # 7
    frequency:    30.1458125273
  - # 8
    frequency:    30.4029194972
  - # 9
    frequency:    33.8393658753
  - # 10
    frequency:    34.4227270590
  - # 11
    frequency:    37.5989435950
  - # 12
    frequency:    38.7992426173

- q-position: [   -0.4444444,    0.2222222,    0.1250000 ]
  weight: 8    
  band:
  - # 1
    frequency:     9.5588631159
  - # 2
    frequency:    13.9355761757
  - # 3
    frequency:    15.1538113469
  - # 4
    frequency:    18.5572838318
  - # 5
    frequency:    22.3491797468
  - # 6
    frequency:    24.7253019261
  - # 7
    frequency:    26.2731836882
  - # 8
    frequency:    27.0761778760
  - # 9
    frequency:    36.8834794096
  - # 10
    frequency:    37.5394630516
  - # 11
    frequency:    39.3412438775
  - # 12
    frequency:    40.3500246682

- q-position: [   -0.3333333,    0.2222222,    0.1250000 ]
  weight: 8    
  band:
  - # 1
    frequency:     7.0065927114
  - # 2
    frequency:     9.2196545064
  - # 3
    frequency:    11.7602739043
  - # 4
    frequency:    14.4180902334
  - # 5
    frequency:    21.5352675577
  - # 6
    frequency:    22.2966943929
  - # 7
    frequency:    23.2847824793
  - # 8
    frequency:    26.4862202210
  - # 9
    frequency:    39.1774583971
  - # 10
    frequency:    40.0864527686
  - # 11
    frequency:    41.4149262226
  - # 12
    frequency:    42.4334013095

- q-position: [   -0.2222222,    0.2222222,    0.1250000 ]
  weight: 4    
  band:
  - # 1
    frequency:    -3.4023554974
  - # 2
    frequency:     6.6222039029
  - # 3
    frequency:    10.2866787235
  - # 4
    frequency:    11.4311972983
  - # 5
    frequency:    16.9772477441
  - # 6
    frequency:    17.8502419039
  - # 7
    frequency:    23.9965093613
  - # 8
    frequency:    27.0240191292
  - # 9
    frequency:    40.8260889995
  - # 10
    frequency:    41.7458752072
  - # 11
    frequency:    42.7639572616
  - # 12
    frequency:    44.0219576204

- q-position: [   -0.6666667,    0.3333333,    0.1250000 ]
  weight: 4    
  band:
  - # 1
    frequency:    11.1784346424
  - # 2
    frequency:    16.3674433661
  - # 3
    frequency:    22.2919786569
  - # 4
    frequency:    22.7645746775
  - # 5
    frequency:    23.8348414158
  - # 6
    frequency:    23.8772380301
  - # 7
    frequency:    30.4805190881
  - # 8
    frequency:    30.6083824182
  - # 9
    frequency:    31.6834944681
  - # 10
    frequency:    32.7438411411
  - # 11
    frequency:    37.7361300225
  - # 12
    frequency:    37.8283508430

- q-position: [   -0.5555556,    0.3333333,    0.1250000 ]
  weight: 8    
  band:
  - # 1
    frequency:    10.5863564614
  - # 2
    frequency:    15.8394651237
  - # 3
    frequency:    19.7442056805
  - # 4
    frequency:    21.5054808698
  - # 5
    frequency:    21.8705629543
  - # 6
    frequency:    23.7989688644
  - # 7
    frequency:    29.9866762008
  - # 8
    frequency:    30.4937345735
  - # 9
    frequency:    33.7997278691
  - # 10
    frequency:    34.3445447789
  - # 11
    frequency:    37.4621682313
  - # 12
    frequency:    38.8035282014

- q-position: [   -0.4444444,    0.3333333,    0.1250000 ]
  weight: 8    
  band:
  - # 1
    frequency:     8.6205806547
  - # 2
    frequency:    13.7906455773
  - # 3
    frequency:    14.6678886753
  - # 4
    frequency:    17.2959958910
  - # 5
    frequency:    22.4252558009
  - # 6
    frequency:    24.7815743183
  - # 7
    frequency:    27.9010055945
  - # 8
    frequency:    28.8979241045
  - # 9
    frequency:    35.8656252672
  - # 10
    frequency:    37.3563229676
  - # 11
    frequency:    39.1482198373
  - # 12
    frequency:    39.8384324966

- q-position: [   -0.3333333,    0.3333333,    0.1250000 ]
  weight: 4    
  band:
  - # 1
    frequency:     7.4772994691
  - # 2
    frequency:     8.7538598797
  - # 3
    frequency:    13.3786467389
  - # 4
    frequency:    14.5766925834
  - # 5
    frequency:    22.9475949484
  - # 6
    frequency:    24.6165323371
  - # 7
    frequency:    24.7652258209
  - # 8
    frequency:    26.6556633752
  - # 9
    frequency:    37.5931556338
  - # 10
    frequency:    39.4705236448
  - # 11
    frequency:    40.6533772616
  - # 12
    frequency:    41.4177101056

- q-position: [   -0.5555556,    0.4444444,    0.1250000 ]
  weight: 4    
  band:
  - # 1
    frequency:     8.9885149438
  - # 2
    frequency:    15.8656915088
  - # 3
    frequency:    16.8117075103
  - # 4
    frequency:    17.7902325259
  - # 5
    frequency:    22.1874729214
  - # 6
    frequency:    24.1130044404
  - # 7
    frequency:    32.5201053035
  - # 8
    frequency:    32.8332248111
  - # 9
    frequency:    34.0571788520
  - # 10
    frequency:    34.0866768224
  - # 11
    frequency:    36.1973694346
  - # 12
    frequency:    39.0568289074

- q-position: [   -0.4444444,    0.4444444,    0.1250000 ]
  weight: 4    
  band:
  - # 1
    frequency:     7.9470466458
  - # 2
    frequency:    13.8251130557
  - # 3
    frequency:    15.5883896471
  - # 4
    frequency:    16.0773403246
  - # 5
    frequency:    22.4629915105
  - # 6
    frequency:    24.5100403797
  - # 7
    frequency:    30.9267929586
  - # 8
    frequency:    32.0710877695
  - # 9
    frequency:    34.4846560700
  - # 10
    frequency:    36.0034508622
  - # 11
    frequency:    37.6347642565
  - # 12
    frequency:    39.3296893193

- q-position: [    0.0000000,    0.0000000,    0.3750000 ]
  weight: 2    
  band:
  - # 1
    frequency:    -1.2555838454
  - # 2
    frequency:     0.5902349980
  - # 3
    frequency:     2.9741835346
  - # 4
    frequency:     3.0374857767
  - # 5
    frequency:    14.3849450166
  - # 6
    frequency:    16.9702078555
  - # 7
    frequency:    23.8197602625
  - # 8
    frequency:    24.0900575288
  - # 9
    frequency:    43.1322233292
  - # 10
    frequency:    43.1903849017
  - # 11
    frequency:    44.2291934806
  - # 12
    frequency:    44.2979749531

- q-position: [    0.1111111,    0.0000000,    0.3750000 ]
  weight: 8    
  band:
  - # 1
    frequency:     4.2769276146
  - # 2
    frequency:     4.8383978083
  - # 3
    frequency:     7.0985867174
  - # 4
    frequency:     8.7841953304
  - # 5
    frequency:    15.4906440378
  - # 6
    frequency:    16.7071344075
  - # 7
    frequency:    23.6901900631
  - # 8
    frequency:    24.0047064925
  - # 9
    frequency:    42.3791731692
  - # 10
    frequency:    42.7905884194
  - # 11
    frequency:    43.5742474013
  - # 12
    frequency:    43.8084445399

- q-position: [    0.2222222,    0.0000000,    0.3750000 ]
  weight: 8    
  band:
  - # 1
    frequency:     8.2665887096
  - # 2
    frequency:     8.6064073255
  - # 3
    frequency:    11.4979471267
  - # 4
    frequency:    13.1059039260
  - # 5
    frequency:    18.2706732531
  - # 6
    frequency:    19.7380738292
  - # 7
    frequency:    23.0475472044
  - # 8
    frequency:    24.4670096075
  - # 9
    frequency:    40.1930604262
  - # 10
    frequency:    41.6402903906
  - # 11
    frequency:    41.6766827717
  - # 12
    frequency:    42.4381703924

- q-position: [    0.3333333,    0.0000000,    0.3750000 ]
  weight: 8    
  band:
  - # 1
    frequency:    11.9051739697
  - # 2
    frequency:    12.0814982992
  - # 3
    frequency:    12.4825005357
  - # 4
    frequency:    12.8149527985
  - # 5
    frequency:    21.5569283061
  - # 6
    frequency:    22.8615430309
  - # 7
    frequency:    25.8467406279
  - # 8
    frequency:    27.1130650638
  - # 9
    frequency:    37.2518188348
  - # 10
    frequency:    39.0922999566
  - # 11
    frequency:    39.6398248645
  - # 12
    frequency:    40.0775611469

- q-position: [    0.4444444,    0.0000000,    0.3750000 ]
  weight: 8    
  band:
  - # 1
    frequency:    10.8258924464
  - # 2
    frequency:    12.8077041648
  - # 3
    frequency:    14.6548763610
  - # 4
    frequency:    15.1217092096
  - # 5
    frequency:    21.8201572173
  - # 6
    frequency:    23.2133203599
  - # 7
    frequency:    31.2978060797
  - # 8
    frequency:    32.0566647790
  - # 9
    frequency:    34.8757684178
  - # 10
    frequency:    36.5482070881
  - # 11
    frequency:    36.7968883027
  - # 12
    frequency:    37.1023065358

- q-position: [    0.1111111,    0.1111111,    0.3750000 ]
  weight: 4    
  band:
  - # 1
    frequency:     7.4649686109
  - # 2
    frequency:     7.7718460955
  - # 3
    frequency:    11.6225370833
  - # 4
    frequency:    12.4878199727
  - # 5
    frequency:    17.0155404039
  - # 6
    frequency:    18.1524513147
  - # 7
    frequency:    23.1300205400
  - # 8
    frequency:    24.2774388702
  - # 9
    frequency:    41.0219302894
  - # 10
    frequency:    41.7345507029
  - # 11
    frequency:    42.4287701598
  - # 12
    frequency:    42.8700758085

- q-position: [    0.2222222,    0.1111111,    0.3750000 ]
  weight: 8    
  band:
  - # 1
    frequency:    10.5372617114
  - # 2
    frequency:    10.8528613544
  - # 3
    frequency:    13.9140004020
  - # 4
    frequency:    14.3044807074
  - # 5
    frequency:    20.7038840667
  - # 6
    frequency:    22.1108506433
  - # 7
    frequency:    23.5770073387
  - # 8
    frequency:    25.3419643842
  - # 9
    frequency:    38.5670372463
  - # 10
    frequency:    39.8112473664
  - # 11
    frequency:    40.4136445957
  - # 12
    frequency:    40.9342708396

- q-position: [    0.3333333,    0.1111111,    0.3750000 ]
  weight: 8    
  band:
  - # 1
    frequency:    10.5933123162
  - # 2
    frequency:    12.4688437378
  - # 3
    frequency:    16.0319545792
  - # 4
    frequency:    16.5819718661
  - # 5
    frequency:    21.8337111870
  - # 6
    frequency:    23.0011691404
  - # 7
    frequency:    28.5334615688
  - # 8
    frequency:    29.3424463495
  - # 9
    frequency:    35.8511472745
  - # 10
    frequency:    37.4861827117
  - # 11
    frequency:    37.7211983014
  - # 12
    frequency:    38.0866983535

- q-position: [   -0.5555556,    0.1111111,    0.3750000 ]
  weight: 8    
  band:
  - # 1
    frequency:    10.2948363040
  - # 2
    frequency:    12.5643092230
  - # 3
    frequency:    17.2057740238
  - # 4
    frequency:    17.8461291383
  - # 5
    frequency:    21.9639977624
  - # 6
    frequency:    23.1270421150
  - # 7
    frequency:    32.6334377371
  - # 8
    frequency:    32.8821553138
  - # 9
    frequency:    34.4694404932
  - # 10
    frequency:    34.8276712218
  - # 11
    frequency:    34.9939961559
  - # 12
    frequency:    36.6723580741

- q-position: [   -0.4444444,    0.1111111,    0.3750000 ]
  weight: 8    
  band:
  - # 1
    frequency:    10.6163793910
  - # 2
    frequency:    12.1461255221
  - # 3
    frequency:    15.7930011089
  - # 4
    frequency:    16.6180723891
  - # 5
    frequency:    21.8719261152
  - # 6
    frequency:    23.0777490687
  - # 7
    frequency:    28.5082198724
  - # 8
    frequency:    29.2473222430
  - # 9
    frequency:    35.9264821798
  - # 10
    frequency:    37.5337048775
  - # 11
    frequency:    37.7844854273
  - # 12
    frequency:    38.0825444216

- q-position: [   -0.3333333,    0.1111111,    0.3750000 ]
  weight: 8    
  band:
  - # 1
    frequency:     9.7951289290
  - # 2
    frequency:    10.5723061860
  - # 3
    frequency:    14.0004093869
  - # 4
    frequency:    14.1700127472
  - # 5
    frequency:    20.9659633684
  - # 6
    frequency:    22.2344284615
  - # 7
    frequency:    23.4265769740
  - # 8
    frequency:    25.2759662573
  - # 9
    frequency:    38.6375403893
  - # 10
    frequency:    39.8200241671
  - # 11
    frequency:    40.5928225196
  - # 12
    frequency:    40.8418093771

- q-position: [   -0.2222222,    0.1111111,    0.3750000 ]
  weight: 8    
  band:
  - # 1
    frequency:     6.0529015812
  - # 2
    frequency:     8.0331849860
  - # 3
    frequency:    11.2567132778
  - # 4
    frequency:    12.6419082449
  - # 5
    frequency:    17.3160201896
  - # 6
    frequency:    17.9388715184
  - # 7
    frequency:    23.2181039111
  - # 8
    frequency:    24.2878577392
  - # 9
    frequency:    41.1029236722
  - # 10
    frequency:    41.8667903137
  - # 11
    frequency:    42.3210475179
  - # 12
    frequency:    42.8778133883

- q-position: [   -0.1111111,    0.1111111,    0.3750000 ]
  weight: 4    
  band:
  - # 1
    frequency:     1.2851810583
  - # 2
    frequency:     6.2866065759
  - # 3
    frequency:     7.4115843616
  - # 4
    frequency:     8.2190511011
  - # 5
    frequency:    15.2705860269
  - # 6
    frequency:    16.8693302344
  - # 7
    frequency:    23.5983409634
  - # 8
    frequency:    24.1450135941
  - # 9
    frequency:    42.4662507417
  - # 10
    frequency:    42.8173613367
  - # 11
    frequency:    43.4376680701
  - # 12
    frequency:    43.8713965319

- q-position: [    0.2222222,    0.2222222,    0.3750000 ]
  weight: 4    
  band:
  - # 1
    frequency:    10.3212447123
  - # 2
    frequency:    12.2452333112
  - # 3
    frequency:    17.9456925895
  - # 4
    frequency:    18.5317608419
  - # 5
    frequency:    22.0820285320
  - # 6
    frequency:    22.4137369914
  - # 7
    frequency:    26.9935358611
  - # 8
    frequency:    27.2593521879
  - # 9
    frequency:    36.7146603461
  - # 10
    frequency:    37.2716003215
  - # 11
    frequency:    38.2077496184
  - # 12
    frequency:    38.3392822532

- q-position: [    0.3333333,    0.2222222,    0.3750000 ]
  weight: 8    
  band:
  - # 1
    frequency:    10.0263860612
  - # 2
    frequency:    12.6033382164
  - # 3
    frequency:    21.2531850534
  - # 4
    frequency:    21.8666992667
  - # 5
    frequency:    22.2131099687
  - # 6
    frequency:    22.8877552099
  - # 7
    frequency:    30.1350778423
  - # 8
    frequency:    30.5488117574
  - # 9
    frequency:    34.0064119750
  - # 10
    frequency:    34.5451760772
  - # 11
    frequency:    35.5361788197
  - # 12
    frequency:    36.6157803517

- q-position: [   -0.5555556,    0.2222222,    0.3750000 ]
  weight: 8    
  band:
  - # 1
    frequency:    10.1391845254
  - # 2
    frequency:    12.4078603418
  - # 3
    frequency:    20.9776656046
  - # 4
    frequency:    21.8780476489
  - # 5
    frequency:    22.2468245559
  - # 6
    frequency:    22.9515198715
  - # 7
    frequency:    30.2629856383
  - # 8
    frequency:    30.3522466876
  - # 9
    frequency:    34.0573606539
  - # 10
    frequency:    34.4381924710
  - # 11
    frequency:    35.9126131980
  - # 12
    frequency:    36.4563981775

- q-position: [   -0.4444444,    0.2222222,    0.3750000 ]
  weight: 8    
  band:
  - # 1
    frequency:    10.3291904096
  - # 2
    frequency:    11.7511916571
  - # 3
    frequency:    17.4698707086
  - # 4
    frequency:    18.6307888602
  - # 5
    frequency:    22.2365740973
  - # 6
    frequency:    22.5830200171
  - # 7
    frequency:    26.7000353748
  - # 8
    frequency:    27.2874903266
  - # 9
    frequency:    36.8523543787
  - # 10
    frequency:    37.3612301329
  - # 11
    frequency:    38.1894942526
  - # 12
    frequency:    38.3852070141

- q-position: [   -0.3333333,    0.2222222,    0.3750000 ]
  weight: 8    
  band:
  - # 1
    frequency:     9.3937548933
  - # 2
    frequency:    10.9388459218
  - # 3
    frequency:    13.6081920484
  - # 4
    frequency:    14.5555088122
  - # 5
    frequency:    20.8938138801
  - # 6
    frequency:    22.1682477560
  - # 7
    frequency:    23.4077811451
  - # 8
    frequency:    25.2794344653
  - # 9
    frequency:    38.9145384726
  - # 10
    frequency:    39.5853650080
  - # 11
    frequency:    40.4264661547
  - # 12
    frequency:    41.0109817907

- q-position: [   -0.2222222,    0.2222222,    0.3750000 ]
  weight: 4    
  band:
  - # 1
    frequency:     6.5093476344
  - # 2
    frequency:    10.0849129242
  - # 3
    frequency:    11.2118467577
  - # 4
    frequency:    12.8040437462
  - # 5
    frequency:    18.2036269561
  - # 6
    frequency:    19.6447369299
  - # 7
    frequency:    23.0838267475
  - # 8
    frequency:    24.5431594605
  - # 9
    frequency:    40.5299284408
  - # 10
    frequency:    41.3457426383
  - # 11
    frequency:    41.6359734015
  - # 12
    frequency:    42.5534228662

- q-position: [   -0.6666667,    0.3333333,    0.3750000 ]
  weight: 4    
  band:
  - # 1
    frequency:    10.0391865516
  - # 2
    frequency:    12.5840251376
  - # 3
    frequency:    22.4429504789
  - # 4
    frequency:    22.6288487909
  - # 5
    frequency:    25.1297659943
  - # 6
    frequency:    25.1721758301
  - # 7
    frequency:    30.1134192211
  - # 8
    frequency:    30.1169145863
  - # 9
    frequency:    31.9288907880
  - # 10
    frequency:    32.4136061140
  - # 11
    frequency:    35.7057954186
  - # 12
    frequency:    35.8179630829

- q-position: [   -0.5555556,    0.3333333,    0.3750000 ]
  weight: 8    
  band:
  - # 1
    frequency:    10.1868884542
  - # 2
    frequency:    12.3781575791
  - # 3
    frequency:    21.1599435957
  - # 4
    frequency:    21.8033492616
  - # 5
    frequency:    22.1641926455
  - # 6
    frequency:    22.9942656459
  - # 7
    frequency:    30.1502250760
  - # 8
    frequency:    30.3931725649
  - # 9
    frequency:    34.0778804507
  - # 10
    frequency:    34.4003909347
  - # 11
    frequency:    35.8566076269
  - # 12
    frequency:    36.4998773824

- q-position: [   -0.4444444,    0.3333333,    0.3750000 ]
  weight: 8    
  band:
  - # 1
    frequency:    10.5861512756
  - # 2
    frequency:    12.1301862372
  - # 3
    frequency:    15.7137834361
  - # 4
    frequency:    16.9735045901
  - # 5
    frequency:    21.8717864626
  - # 6
    frequency:    22.9652743988
  - # 7
    frequency:    28.4951020120
  - # 8
    frequency:    29.1046263319
  - # 9
    frequency:    36.0612355233
  - # 10
    frequency:    37.4197572934
  - # 11
    frequency:    37.6629630239
  - # 12
    frequency:    38.1796005546

- q-position: [   -0.3333333,    0.3333333,    0.3750000 ]
  weight: 4    
  band:
  - # 1
    frequency:    11.1995814105
  - # 2
    frequency:    11.8733718738
  - # 3
    frequency:    12.5019963707
  - # 4
    frequency:    13.4550804579
  - # 5
    frequency:    21.6515621923
  - # 6
    frequency:    22.7087715041
  - # 7
    frequency:    25.8313289797
  - # 8
    frequency:    26.9436367406
  - # 9
    frequency:    37.5799582398
  - # 10
    frequency:    38.8597599323
  - # 11
    frequency:    39.5027138614
  - # 12
    frequency:    40.2467953040

- q-position: [   -0.5555556,    0.4444444,    0.3750000 ]
  weight: 4    
  band:
  - # 1
    frequency:    10.3526261228
  - # 2
    frequency:    12.4756956061
  - # 3
    frequency:    17.4575215473
  - # 4
    frequency:    17.9270644208
  - # 5
    frequency:    21.8201246616
  - # 6
    frequency:    23.1175114534
  - # 7
    frequency:    32.5014960905
  - # 8
    frequency:    32.8010717259
  - # 9
    frequency:    34.6453165261
  - # 10
    frequency:    34.6613653616
  - # 11
    frequency:    34.9983735345
  - # 12
    frequency:    36.6787349025

- q-position: [   -0.4444444,    0.4444444,    0.3750000 ]
  weight: 4    
  band:
  - # 1
    frequency:    10.8031759289
  - # 2
    frequency:    12.6830312912
  - # 3
    frequency:    14.6671196117
  - # 4
    frequency:    15.5634219434
  - # 5
    frequency:    21.7450146954
  - # 6
    frequency:    23.1378061954
  - # 7
    frequency:    31.2419341141
  - # 8
    frequency:    31.8886035375
  - # 9
    frequency:    34.9930938906
  - # 10
    frequency:    36.3901136722
  - # 11
    frequency:    36.9109262812
  - # 12
    frequency:    37.0458878599

