# Thermal properties / unit cell (natom)

unit:
  temperature:   K
  free_energy:   kJ/mol
  entropy:       J/K/mol
  heat_capacity: J/K/mol

natom:     4
num_modes: 3888
num_integrated_modes: 3874

zero_point_energy:      60.3399956
high_T_entropy:        238.0249777

thermal_properties:
- temperature:         0.0000000
  free_energy:        60.3399956
  entropy:             0.0000000
  heat_capacity:       0.0000000
  energy:             60.3399956

- temperature:        10.0000000
  free_energy:        60.3399603
  entropy:             0.0152662
  heat_capacity:       0.0443003
  energy:             60.3401129

- temperature:        20.0000000
  free_energy:        60.3394816
  entropy:             0.0901354
  heat_capacity:       0.2033801
  energy:             60.3412843

- temperature:        30.0000000
  free_energy:        60.3380078
  entropy:             0.2102658
  heat_capacity:       0.4080596
  energy:             60.3443157

- temperature:        40.0000000
  free_energy:        60.3351753
  entropy:             0.3614590
  heat_capacity:       0.6709302
  energy:             60.3496337

- temperature:        50.0000000
  free_energy:        60.3306541
  entropy:             0.5502591
  heat_capacity:       1.0627951
  energy:             60.3581670

- temperature:        60.0000000
  free_energy:        60.3239941
  entropy:             0.7917961
  heat_capacity:       1.6369855
  energy:             60.3715019

- temperature:        70.0000000
  free_energy:        60.3145965
  entropy:             1.0996333
  heat_capacity:       2.4094368
  energy:             60.3915709

- temperature:        80.0000000
  free_energy:        60.3017525
  entropy:             1.4819770
  heat_capacity:       3.3674482
  energy:             60.4203106

- temperature:        90.0000000
  free_energy:        60.2846987
  entropy:             1.9416767
  heat_capacity:       4.4843093
  energy:             60.4594496

- temperature:       100.0000000
  free_energy:        60.2626645
  entropy:             2.4776189
  heat_capacity:       5.7301515
  energy:             60.5104264

- temperature:       110.0000000
  free_energy:        60.2349039
  entropy:             3.0862470
  heat_capacity:       7.0776859
  energy:             60.5743911

- temperature:       120.0000000
  free_energy:        60.2007133
  entropy:             3.7627482
  heat_capacity:       8.5042646
  energy:             60.6522431

- temperature:       130.0000000
  free_energy:        60.1594403
  entropy:             4.5018409
  heat_capacity:       9.9919548
  energy:             60.7446796

- temperature:       140.0000000
  free_energy:        60.1104855
  entropy:             5.2982397
  heat_capacity:      11.5268069
  energy:             60.8522391

- temperature:       150.0000000
  free_energy:        60.0533013
  entropy:             6.1469011
  heat_capacity:      13.0979561
  energy:             60.9753365

- temperature:       160.0000000
  free_energy:        59.9873889
  entropy:             7.0431340
  heat_capacity:      14.6968227
  energy:             61.1142904

- temperature:       170.0000000
  free_energy:        59.9122945
  entropy:             7.9826333
  heat_capacity:      16.3164838
  energy:             61.2693421

- temperature:       180.0000000
  free_energy:        59.8276052
  entropy:             8.9614722
  heat_capacity:      17.9512068
  energy:             61.4406702

- temperature:       190.0000000
  free_energy:        59.7329458
  entropy:             9.9760752
  heat_capacity:      19.5961132
  energy:             61.6284001

- temperature:       200.0000000
  free_energy:        59.6279754
  entropy:            11.0231838
  heat_capacity:      21.2469382
  energy:             61.8326121

- temperature:       210.0000000
  free_energy:        59.5123838
  entropy:            12.0998195
  heat_capacity:      22.8998631
  energy:             62.0533459

- temperature:       220.0000000
  free_energy:        59.3858897
  entropy:            13.2032502
  heat_capacity:      24.5514003
  energy:             62.2906047

- temperature:       230.0000000
  free_energy:        59.2482379
  entropy:            14.3309591
  heat_capacity:      26.1983180
  energy:             62.5443585

- temperature:       240.0000000
  free_energy:        59.0991973
  entropy:            15.4806177
  heat_capacity:      27.8375937
  energy:             62.8145456

- temperature:       250.0000000
  free_energy:        58.9385596
  entropy:            16.6500632
  heat_capacity:      29.4663888
  energy:             63.1010754

- temperature:       260.0000000
  free_energy:        58.7661369
  entropy:            17.8372795
  heat_capacity:      31.0820371
  energy:             63.4038295

- temperature:       270.0000000
  free_energy:        58.5817610
  entropy:            19.0403812
  heat_capacity:      32.6820436
  energy:             63.7226640

- temperature:       280.0000000
  free_energy:        58.3852822
  entropy:            20.2576011
  heat_capacity:      34.2640869
  energy:             64.0574105

- temperature:       290.0000000
  free_energy:        58.1765675
  entropy:            21.4872799
  heat_capacity:      35.8260261
  energy:             64.4078787

- temperature:       300.0000000
  free_energy:        57.9555003
  entropy:            22.7278573
  heat_capacity:      37.3659059
  energy:             64.7738575

- temperature:       310.0000000
  free_energy:        57.7219789
  entropy:            23.9778659
  heat_capacity:      38.8819617
  energy:             65.1551173

- temperature:       320.0000000
  free_energy:        57.4759161
  entropy:            25.2359247
  heat_capacity:      40.3726221
  energy:             65.5514120

- temperature:       330.0000000
  free_energy:        57.2172379
  entropy:            26.5007351
  heat_capacity:      41.8365093
  energy:             65.9624805

- temperature:       340.0000000
  free_energy:        56.9458830
  entropy:            27.7710765
  heat_capacity:      43.2724365
  energy:             66.3880490

- temperature:       350.0000000
  free_energy:        56.6618018
  entropy:            29.0458026
  heat_capacity:      44.6794035
  energy:             66.8278327

- temperature:       360.0000000
  free_energy:        56.3649559
  entropy:            30.3238385
  heat_capacity:      46.0565900
  energy:             67.2815378

- temperature:       370.0000000
  free_energy:        56.0553174
  entropy:            31.6041775
  heat_capacity:      47.4033465
  energy:             67.7488630

- temperature:       380.0000000
  free_energy:        55.7328678
  entropy:            32.8858784
  heat_capacity:      48.7191850
  energy:             68.2295016

- temperature:       390.0000000
  free_energy:        55.3975982
  entropy:            34.1680625
  heat_capacity:      50.0037678
  energy:             68.7231425

- temperature:       400.0000000
  free_energy:        55.0495077
  entropy:            35.4499110
  heat_capacity:      51.2568961
  energy:             69.2294721

- temperature:       410.0000000
  free_energy:        54.6886036
  entropy:            36.7306628
  heat_capacity:      52.4784979
  energy:             69.7481754

- temperature:       420.0000000
  free_energy:        54.3149005
  entropy:            38.0096111
  heat_capacity:      53.6686168
  energy:             70.2789371

- temperature:       430.0000000
  free_energy:        53.9284196
  entropy:            39.2861015
  heat_capacity:      54.8273992
  energy:             70.8214432

- temperature:       440.0000000
  free_energy:        53.5291887
  entropy:            40.5595290
  heat_capacity:      55.9550839
  energy:             71.3753814

- temperature:       450.0000000
  free_energy:        53.1172411
  entropy:            41.8293360
  heat_capacity:      57.0519908
  energy:             71.9404423

- temperature:       460.0000000
  free_energy:        52.6926157
  entropy:            43.0950092
  heat_capacity:      58.1185104
  energy:             72.5163200

- temperature:       470.0000000
  free_energy:        52.2553563
  entropy:            44.3560776
  heat_capacity:      59.1550945
  energy:             73.1027127

- temperature:       480.0000000
  free_energy:        51.8055110
  entropy:            45.6121099
  heat_capacity:      60.1622468
  energy:             73.6993237

- temperature:       490.0000000
  free_energy:        51.3431322
  entropy:            46.8627127
  heat_capacity:      61.1405149
  energy:             74.3058614

- temperature:       500.0000000
  free_energy:        50.8682760
  entropy:            48.1075274
  heat_capacity:      62.0904827
  energy:             74.9220397

- temperature:       510.0000000
  free_energy:        50.3810020
  entropy:            49.3462289
  heat_capacity:      63.0127635
  energy:             75.5475787

- temperature:       520.0000000
  free_energy:        49.8813728
  entropy:            50.5785231
  heat_capacity:      63.9079936
  energy:             76.1822048

- temperature:       530.0000000
  free_energy:        49.3694538
  entropy:            51.8041450
  heat_capacity:      64.7768268
  energy:             76.8256506

- temperature:       540.0000000
  free_energy:        48.8453129
  entropy:            53.0228567
  heat_capacity:      65.6199295
  energy:             77.4776556

- temperature:       550.0000000
  free_energy:        48.3090204
  entropy:            54.2344460
  heat_capacity:      66.4379763
  energy:             78.1379657

- temperature:       560.0000000
  free_energy:        47.7606484
  entropy:            55.4387240
  heat_capacity:      67.2316460
  energy:             78.8063338

- temperature:       570.0000000
  free_energy:        47.2002708
  entropy:            56.6355242
  heat_capacity:      68.0016183
  energy:             79.4825196

- temperature:       580.0000000
  free_energy:        46.6279633
  entropy:            57.8247003
  heat_capacity:      68.7485707
  energy:             80.1662895

- temperature:       590.0000000
  free_energy:        46.0438027
  entropy:            59.0061252
  heat_capacity:      69.4731759
  energy:             80.8574165

- temperature:       600.0000000
  free_energy:        45.4478670
  entropy:            60.1796895
  heat_capacity:      70.1760998
  energy:             81.5556807

- temperature:       610.0000000
  free_energy:        44.8402354
  entropy:            61.3453001
  heat_capacity:      70.8579997
  energy:             82.2608685

- temperature:       620.0000000
  free_energy:        44.2209878
  entropy:            62.5028790
  heat_capacity:      71.5195222
  energy:             82.9727728

- temperature:       630.0000000
  free_energy:        43.5902048
  entropy:            63.6523624
  heat_capacity:      72.1613026
  energy:             83.6911931

- temperature:       640.0000000
  free_energy:        42.9479677
  entropy:            64.7936991
  heat_capacity:      72.7839632
  energy:             84.4159351

- temperature:       650.0000000
  free_energy:        42.2943581
  entropy:            65.9268501
  heat_capacity:      73.3881128
  energy:             85.1468107

- temperature:       660.0000000
  free_energy:        41.6294581
  entropy:            67.0517872
  heat_capacity:      73.9743460
  energy:             85.8836376

- temperature:       670.0000000
  free_energy:        40.9533498
  entropy:            68.1684925
  heat_capacity:      74.5432425
  energy:             86.6262398

- temperature:       680.0000000
  free_energy:        40.2661157
  entropy:            69.2769572
  heat_capacity:      75.0953668
  energy:             87.3744466

- temperature:       690.0000000
  free_energy:        39.5678381
  entropy:            70.3771810
  heat_capacity:      75.6312680
  energy:             88.1280931

- temperature:       700.0000000
  free_energy:        38.8585995
  entropy:            71.4691716
  heat_capacity:      76.1514797
  energy:             88.8870197

- temperature:       710.0000000
  free_energy:        38.1384821
  entropy:            72.5529436
  heat_capacity:      76.6565197
  energy:             89.6510721

- temperature:       720.0000000
  free_energy:        37.4075680
  entropy:            73.6285183
  heat_capacity:      77.1468904
  energy:             90.4201012

- temperature:       730.0000000
  free_energy:        36.6659390
  entropy:            74.6959228
  heat_capacity:      77.6230785
  energy:             91.1939626

- temperature:       740.0000000
  free_energy:        35.9136766
  entropy:            75.7551897
  heat_capacity:      78.0855554
  energy:             91.9725170

- temperature:       750.0000000
  free_energy:        35.1508622
  entropy:            76.8063565
  heat_capacity:      78.5347775
  energy:             92.7556295

- temperature:       760.0000000
  free_energy:        34.3775764
  entropy:            77.8494651
  heat_capacity:      78.9711860
  energy:             93.5431699

- temperature:       770.0000000
  free_energy:        33.5938996
  entropy:            78.8845615
  heat_capacity:      79.3952077
  energy:             94.3350120

- temperature:       780.0000000
  free_energy:        32.7999117
  entropy:            79.9116954
  heat_capacity:      79.8072550
  energy:             95.1310341

- temperature:       790.0000000
  free_energy:        31.9956920
  entropy:            80.9309196
  heat_capacity:      80.2077264
  energy:             95.9311185

- temperature:       800.0000000
  free_energy:        31.1813195
  entropy:            81.9422898
  heat_capacity:      80.5970064
  energy:             96.7351513

- temperature:       810.0000000
  free_energy:        30.3568722
  entropy:            82.9458646
  heat_capacity:      80.9754666
  energy:             97.5430226

- temperature:       820.0000000
  free_energy:        29.5224280
  entropy:            83.9417047
  heat_capacity:      81.3434654
  energy:             98.3546258

- temperature:       830.0000000
  free_energy:        28.6780637
  entropy:            84.9298728
  heat_capacity:      81.7013487
  energy:             99.1698581

- temperature:       840.0000000
  free_energy:        27.8238559
  entropy:            85.9104337
  heat_capacity:      82.0494503
  energy:             99.9886202

- temperature:       850.0000000
  free_energy:        26.9598802
  entropy:            86.8834535
  heat_capacity:      82.3880920
  energy:            100.8108156

- temperature:       860.0000000
  free_energy:        26.0862117
  entropy:            87.8489998
  heat_capacity:      82.7175844
  energy:            101.6363515

- temperature:       870.0000000
  free_energy:        25.2029249
  entropy:            88.8071413
  heat_capacity:      83.0382267
  energy:            102.4651378

- temperature:       880.0000000
  free_energy:        24.3100933
  entropy:            89.7579479
  heat_capacity:      83.3503077
  energy:            103.2970875

- temperature:       890.0000000
  free_energy:        23.4077901
  entropy:            90.7014901
  heat_capacity:      83.6541056
  energy:            104.1321163

- temperature:       900.0000000
  free_energy:        22.4960875
  entropy:            91.6378393
  heat_capacity:      83.9498888
  energy:            104.9701429

- temperature:       910.0000000
  free_energy:        21.5750571
  entropy:            92.5670673
  heat_capacity:      84.2379160
  energy:            105.8110883

- temperature:       920.0000000
  free_energy:        20.6447697
  entropy:            93.4892462
  heat_capacity:      84.5184366
  energy:            106.6548762

- temperature:       930.0000000
  free_energy:        19.7052954
  entropy:            94.4044488
  heat_capacity:      84.7916909
  energy:            107.5014328

- temperature:       940.0000000
  free_energy:        18.7567037
  entropy:            95.3127477
  heat_capacity:      85.0579108
  energy:            108.3506866

- temperature:       950.0000000
  free_energy:        17.7990632
  entropy:            96.2142159
  heat_capacity:      85.3173196
  energy:            109.2025683

- temperature:       960.0000000
  free_energy:        16.8324419
  entropy:            97.1089261
  heat_capacity:      85.5701328
  energy:            110.0570110

- temperature:       970.0000000
  free_energy:        15.8569070
  entropy:            97.9969512
  heat_capacity:      85.8165581
  energy:            110.9139497

- temperature:       980.0000000
  free_energy:        14.8725249
  entropy:            98.8783639
  heat_capacity:      86.0567958
  energy:            111.7733215

- temperature:       990.0000000
  free_energy:        13.8793615
  entropy:            99.7532365
  heat_capacity:      86.2910388
  energy:            112.6350656

- temperature:      1000.0000000
  free_energy:        12.8774817
  entropy:           100.6216412
  heat_capacity:      86.5194734
  energy:            113.4991229
