  32  32   0   0
  0.7090409E+01  0.4934311E-09  0.4934311E-09  0.1076119E-08  0.5000000E-15
  1.000000000000000E-004
  CAR 
 graphite                                
     18.63217197    -15.28173220  301      6.77431610      1.00000000
    -15.282  0.0000E+00  0.0000E+00
    -15.169  0.0000E+00  0.0000E+00
    -15.056  0.0000E+00  0.0000E+00
    -14.943  0.0000E+00  0.0000E+00
    -14.830  0.0000E+00  0.0000E+00
    -14.717  0.0000E+00  0.0000E+00
    -14.603  0.0000E+00  0.0000E+00
    -14.490  0.0000E+00  0.0000E+00
    -14.377  0.0000E+00  0.0000E+00
    -14.264  0.0000E+00  0.0000E+00
    -14.151  0.0000E+00  0.0000E+00
    -14.038  0.0000E+00  0.0000E+00
    -13.925  0.0000E+00  0.0000E+00
    -13.812  0.0000E+00  0.0000E+00
    -13.699  0.0000E+00  0.0000E+00
    -13.586  0.0000E+00  0.0000E+00
    -13.473  0.0000E+00  0.0000E+00
    -13.360  0.0000E+00  0.0000E+00
    -13.247  0.1940E+00  0.2252E-02
    -13.134  0.9976E+00  0.8415E-01
    -13.021  0.1490E+01  0.2277E+00
    -12.908  0.1790E+01  0.4121E+00
    -12.795  0.2116E+01  0.6320E+00
    -12.682  0.2390E+01  0.8881E+00
    -12.569  0.2636E+01  0.1172E+01
    -12.456  0.2920E+01  0.1486E+01
    -12.343  0.3226E+01  0.1833E+01
    -12.229  0.3486E+01  0.2212E+01
    -12.116  0.3817E+01  0.2623E+01
    -12.003  0.4447E+01  0.3091E+01
    -11.890  0.5270E+01  0.3645E+01
    -11.777  0.5796E+01  0.4274E+01
    -11.664  0.5164E+01  0.4916E+01
    -11.551  0.4024E+01  0.5428E+01
    -11.438  0.4853E+01  0.5907E+01
    -11.325  0.6011E+01  0.6534E+01
    -11.212  0.4769E+01  0.7187E+01
    -11.099  0.5007E+01  0.7734E+01
    -10.986  0.2776E+01  0.8132E+01
    -10.873  0.6046E+01  0.8603E+01
    -10.760  0.4612E+01  0.9170E+01
    -10.647  0.3454E+01  0.9663E+01
    -10.534  0.5892E+01  0.1017E+02
    -10.421  0.6544E+01  0.1090E+02
    -10.308  0.4731E+01  0.1152E+02
    -10.195  0.4722E+01  0.1207E+02
    -10.082  0.4908E+01  0.1261E+02
     -9.969  0.4963E+01  0.1322E+02
     -9.856  0.4947E+01  0.1377E+02
     -9.742  0.5060E+01  0.1434E+02
     -9.629  0.5014E+01  0.1491E+02
     -9.516  0.5299E+01  0.1549E+02
     -9.403  0.5345E+01  0.1609E+02
     -9.290  0.5393E+01  0.1670E+02
     -9.177  0.5529E+01  0.1732E+02
     -9.064  0.5546E+01  0.1794E+02
     -8.951  0.5845E+01  0.1858E+02
     -8.838  0.6099E+01  0.1925E+02
     -8.725  0.6281E+01  0.1994E+02
     -8.612  0.6562E+01  0.2067E+02
     -8.499  0.5450E+01  0.2135E+02
     -8.386  0.4431E+01  0.2190E+02
     -8.273  0.3987E+01  0.2237E+02
     -8.160  0.3787E+01  0.2281E+02
     -8.047  0.4236E+01  0.2326E+02
     -7.934  0.5243E+01  0.2379E+02
     -7.821  0.5689E+01  0.2442E+02
     -7.708  0.6226E+01  0.2509E+02
     -7.595  0.7851E+01  0.2588E+02
     -7.482  0.7284E+01  0.2674E+02
     -7.368  0.7026E+01  0.2756E+02
     -7.255  0.8675E+01  0.2843E+02
     -7.142  0.4730E+01  0.2916E+02
     -7.029  0.3842E+01  0.2963E+02
     -6.916  0.3955E+01  0.3006E+02
     -6.803  0.3395E+01  0.3049E+02
     -6.690  0.2749E+01  0.3083E+02
     -6.577  0.2146E+01  0.3111E+02
     -6.464  0.1814E+01  0.3133E+02
     -6.351  0.2358E+01  0.3154E+02
     -6.238  0.5622E+01  0.3196E+02
     -6.125  0.4184E+01  0.3243E+02
     -6.012  0.4344E+01  0.3292E+02
     -5.899  0.4983E+01  0.3344E+02
     -5.786  0.5039E+01  0.3401E+02
     -5.673  0.5135E+01  0.3458E+02
     -5.560  0.6664E+01  0.3524E+02
     -5.447  0.8292E+01  0.3608E+02
     -5.334  0.7627E+01  0.3697E+02
     -5.221  0.6957E+01  0.3779E+02
     -5.108  0.7038E+01  0.3858E+02
     -4.995  0.6599E+01  0.3936E+02
     -4.881  0.5614E+01  0.4003E+02
     -4.768  0.5417E+01  0.4065E+02
     -4.655  0.5233E+01  0.4125E+02
     -4.542  0.5103E+01  0.4183E+02
     -4.429  0.5031E+01  0.4241E+02
     -4.316  0.4886E+01  0.4297E+02
     -4.203  0.4791E+01  0.4351E+02
     -4.090  0.4748E+01  0.4405E+02
     -3.977  0.4158E+01  0.4456E+02
     -3.864  0.3721E+01  0.4500E+02
     -3.751  0.3680E+01  0.4541E+02
     -3.638  0.4093E+01  0.4585E+02
     -3.525  0.5382E+01  0.4637E+02
     -3.412  0.6776E+01  0.4705E+02
     -3.299  0.8003E+01  0.4791E+02
     -3.186  0.7849E+01  0.4881E+02
     -3.073  0.7349E+01  0.4967E+02
     -2.960  0.7420E+01  0.5049E+02
     -2.847  0.4122E+01  0.5124E+02
     -2.734  0.2787E+01  0.5158E+02
     -2.621  0.3579E+01  0.5193E+02
     -2.507  0.5688E+01  0.5244E+02
     -2.394  0.7628E+01  0.5321E+02
     -2.281  0.9122E+01  0.5416E+02
     -2.168  0.8650E+01  0.5519E+02
     -2.055  0.7142E+01  0.5608E+02
     -1.942  0.5954E+01  0.5679E+02
     -1.829  0.6491E+01  0.5748E+02
     -1.716  0.7730E+01  0.5828E+02
     -1.603  0.9087E+01  0.5926E+02
     -1.490  0.9629E+01  0.6030E+02
     -1.377  0.9292E+01  0.6138E+02
     -1.264  0.8093E+01  0.6235E+02
     -1.151  0.8665E+01  0.6327E+02
     -1.038  0.8443E+01  0.6432E+02
     -0.925  0.8548E+01  0.6533E+02
     -0.812  0.7821E+01  0.6626E+02
     -0.699  0.8004E+01  0.6713E+02
     -0.586  0.9249E+01  0.6812E+02
     -0.473  0.9621E+01  0.6920E+02
     -0.360  0.9905E+01  0.7030E+02
     -0.247  0.1106E+02  0.7146E+02
     -0.134  0.1327E+02  0.7284E+02
     -0.020  0.1267E+02  0.7431E+02
      0.093  0.1336E+02  0.7579E+02
      0.206  0.1174E+02  0.7724E+02
      0.319  0.1225E+02  0.7865E+02
      0.432  0.1209E+02  0.7999E+02
      0.545  0.1545E+02  0.8153E+02
      0.658  0.1548E+02  0.8334E+02
      0.771  0.1488E+02  0.8506E+02
      0.884  0.1294E+02  0.8659E+02
      0.997  0.1136E+02  0.8798E+02
      1.110  0.9614E+01  0.8916E+02
      1.223  0.9632E+01  0.9024E+02
      1.336  0.1013E+02  0.9135E+02
      1.449  0.1196E+02  0.9258E+02
      1.562  0.1025E+02  0.9390E+02
      1.675  0.1059E+02  0.9514E+02
      1.788  0.9153E+01  0.9622E+02
      1.901  0.9521E+01  0.9727E+02
      2.014  0.9784E+01  0.9836E+02
      2.127  0.9522E+01  0.9944E+02
      2.240  0.9822E+01  0.1006E+03
      2.353  0.9856E+01  0.1017E+03
      2.467  0.1022E+02  0.1028E+03
      2.580  0.1051E+02  0.1040E+03
      2.693  0.1037E+02  0.1052E+03
      2.806  0.9882E+01  0.1063E+03
      2.919  0.9126E+01  0.1074E+03
      3.032  0.8912E+01  0.1084E+03
      3.145  0.8040E+01  0.1094E+03
      3.258  0.8065E+01  0.1103E+03
      3.371  0.8807E+01  0.1112E+03
      3.484  0.1124E+02  0.1124E+03
      3.597  0.1020E+02  0.1136E+03
      3.710  0.8690E+01  0.1147E+03
      3.823  0.7396E+01  0.1156E+03
      3.936  0.5851E+01  0.1163E+03
      4.049  0.5337E+01  0.1169E+03
      4.162  0.5658E+01  0.1176E+03
      4.275  0.4301E+01  0.1181E+03
      4.388  0.3769E+01  0.1186E+03
      4.501  0.3993E+01  0.1190E+03
      4.614  0.4706E+01  0.1195E+03
      4.727  0.5792E+01  0.1201E+03
      4.841  0.6741E+01  0.1208E+03
      4.954  0.1000E+02  0.1217E+03
      5.067  0.6650E+01  0.1227E+03
      5.180  0.6197E+01  0.1234E+03
      5.293  0.4848E+01  0.1240E+03
      5.406  0.5883E+01  0.1246E+03
      5.519  0.3527E+01  0.1251E+03
      5.632  0.3742E+01  0.1255E+03
      5.745  0.3620E+01  0.1259E+03
      5.858  0.3240E+01  0.1263E+03
      5.971  0.2878E+01  0.1267E+03
      6.084  0.2441E+01  0.1270E+03
      6.197  0.2029E+01  0.1272E+03
      6.310  0.1874E+01  0.1274E+03
      6.423  0.2492E+01  0.1277E+03
      6.536  0.1271E+01  0.1279E+03
      6.649  0.2653E+00  0.1280E+03
      6.762  0.6737E-02  0.1280E+03
      6.875  0.9879E-01  0.1280E+03
      6.988  0.3124E+00  0.1280E+03
      7.101  0.5339E+00  0.1281E+03
      7.214  0.7609E+00  0.1281E+03
      7.328  0.9786E+00  0.1282E+03
      7.441  0.1069E+01  0.1284E+03
      7.554  0.1180E+01  0.1285E+03
      7.667  0.1328E+01  0.1286E+03
      7.780  0.1504E+01  0.1288E+03
      7.893  0.1652E+01  0.1290E+03
      8.006  0.1807E+01  0.1292E+03
      8.119  0.2616E+01  0.1294E+03
      8.232  0.3118E+01  0.1297E+03
      8.345  0.4054E+01  0.1301E+03
      8.458  0.7027E+01  0.1307E+03
      8.571  0.9599E+01  0.1317E+03
      8.684  0.6917E+01  0.1327E+03
      8.797  0.6887E+01  0.1335E+03
      8.910  0.5996E+01  0.1342E+03
      9.023  0.6524E+01  0.1349E+03
      9.136  0.6571E+01  0.1356E+03
      9.249  0.5898E+01  0.1364E+03
      9.362  0.5171E+01  0.1370E+03
      9.475  0.4708E+01  0.1376E+03
      9.588  0.4454E+01  0.1381E+03
      9.702  0.4125E+01  0.1385E+03
      9.815  0.4280E+01  0.1390E+03
      9.928  0.4839E+01  0.1395E+03
     10.041  0.5200E+01  0.1401E+03
     10.154  0.4304E+01  0.1406E+03
     10.267  0.3814E+01  0.1411E+03
     10.380  0.3817E+01  0.1415E+03
     10.493  0.4201E+01  0.1420E+03
     10.606  0.4595E+01  0.1425E+03
     10.719  0.4214E+01  0.1430E+03
     10.832  0.3947E+01  0.1434E+03
     10.945  0.3764E+01  0.1439E+03
     11.058  0.3569E+01  0.1443E+03
     11.171  0.3473E+01  0.1447E+03
     11.284  0.3415E+01  0.1451E+03
     11.397  0.3385E+01  0.1455E+03
     11.510  0.3254E+01  0.1458E+03
     11.623  0.3201E+01  0.1462E+03
     11.736  0.3136E+01  0.1466E+03
     11.849  0.3075E+01  0.1469E+03
     11.962  0.3057E+01  0.1473E+03
     12.075  0.3005E+01  0.1476E+03
     12.189  0.3087E+01  0.1479E+03
     12.302  0.3015E+01  0.1483E+03
     12.415  0.2847E+01  0.1486E+03
     12.528  0.3354E+01  0.1490E+03
     12.641  0.3204E+01  0.1494E+03
     12.754  0.3152E+01  0.1497E+03
     12.867  0.2703E+01  0.1501E+03
     12.980  0.2152E+01  0.1503E+03
     13.093  0.1707E+01  0.1506E+03
     13.206  0.2106E+01  0.1508E+03
     13.319  0.2419E+01  0.1510E+03
     13.432  0.2772E+01  0.1513E+03
     13.545  0.4009E+01  0.1517E+03
     13.658  0.3100E+01  0.1521E+03
     13.771  0.3829E+01  0.1525E+03
     13.884  0.5006E+01  0.1530E+03
     13.997  0.6029E+01  0.1536E+03
     14.110  0.6808E+01  0.1543E+03
     14.223  0.6588E+01  0.1551E+03
     14.336  0.5968E+01  0.1558E+03
     14.449  0.7543E+01  0.1565E+03
     14.563  0.9866E+01  0.1575E+03
     14.676  0.9087E+01  0.1586E+03
     14.789  0.1100E+02  0.1597E+03
     14.902  0.1207E+02  0.1610E+03
     15.015  0.1110E+02  0.1623E+03
     15.128  0.1276E+02  0.1637E+03
     15.241  0.1236E+02  0.1650E+03
     15.354  0.6773E+01  0.1660E+03
     15.467  0.3910E+01  0.1666E+03
     15.580  0.2745E+01  0.1669E+03
     15.693  0.2174E+01  0.1672E+03
     15.806  0.1790E+01  0.1674E+03
     15.919  0.1339E+01  0.1676E+03
     16.032  0.1104E+01  0.1677E+03
     16.145  0.8305E+00  0.1678E+03
     16.258  0.5511E+00  0.1679E+03
     16.371  0.3029E+00  0.1680E+03
     16.484  0.9133E-01  0.1680E+03
     16.597  0.4080E-02  0.1680E+03
     16.710  0.0000E+00  0.1680E+03
     16.823  0.0000E+00  0.1680E+03
     16.936  0.0000E+00  0.1680E+03
     17.050  0.0000E+00  0.1680E+03
     17.163  0.0000E+00  0.1680E+03
     17.276  0.0000E+00  0.1680E+03
     17.389  0.0000E+00  0.1680E+03
     17.502  0.0000E+00  0.1680E+03
     17.615  0.0000E+00  0.1680E+03
     17.728  0.0000E+00  0.1680E+03
     17.841  0.0000E+00  0.1680E+03
     17.954  0.0000E+00  0.1680E+03
     18.067  0.0000E+00  0.1680E+03
     18.180  0.0000E+00  0.1680E+03
     18.293  0.0000E+00  0.1680E+03
     18.406  0.0000E+00  0.1680E+03
     18.519  0.0000E+00  0.1680E+03
     18.632  0.0000E+00  0.1680E+03
