   32   32    1    1
  0.8905205E+01  0.4932875E-09  0.4932875E-09  0.1352877E-08  0.5000000E-15
  1.000000000000000E-004
  CAR 
 graphite                                
    128     76     84
 
  0.0000000E+00  0.0000000E+00  0.0000000E+00  0.6944444E-02
    1      -15.017927
    2      -14.881724
    3      -14.881195
    4      -14.736095
    5       -9.701506
    6       -9.691168
    7       -9.688255
    8       -9.646000
    9       -9.644423
   10       -9.634226
   11       -9.632785
   12       -9.632775
   13       -9.628831
   14       -9.597862
   15       -9.585111
   16       -9.582564
   17       -8.626113
   18       -8.624893
   19       -8.623744
   20       -8.596218
   21       -8.595526
   22       -8.593345
   23       -8.592828
   24       -8.592818
   25       -8.590378
   26       -8.546717
   27       -8.545837
   28       -8.543412
   29       -3.862454
   30       -3.011022
   31       -3.009297
   32       -1.976928
   33       -1.800166
   34       -1.797913
   35       -1.782313
   36       -1.774920
   37       -1.774130
   38       -1.774124
   39       -1.770168
   40       -1.757425
   41       -1.755398
   42       -1.748758
   43       -1.745967
   44       -1.730658
   45        1.595067
   46        1.602106
   47        1.602491
   48        1.607585
   49        1.613859
   50        1.618690
   51        1.619323
   52        1.625879
   53        1.862365
   54        1.865457
   55        1.867492
   56        2.243486
   57        2.246076
   58        2.253320
   59        2.253669
   60        2.253744
   61        2.257671
   62        2.509714
   63        2.527177
   64        2.528920
   65        6.114303
   66        6.116480
   67        6.122100
   68        6.257788
   69        6.260689
   70        6.262781
   71        6.265119
   72        6.265467
   73        6.268864
   74        6.764438
   75        6.770881
   76        6.774159
   77        8.843186
   78       11.415315
   79       11.418330
   80       11.812400
   81       11.816298
   82       11.848045
   83       11.995733
   84       11.999807
 
  0.1666667E+00 -0.1387779E-16  0.0000000E+00  0.1388889E-01
    1      -14.852360
    2      -14.717467
    3      -14.716946
    4      -14.573368
    5      -10.999561
    6      -10.896470
    7      -10.896009
    8      -10.788220
    9      -10.128239
   10      -10.120962
   11      -10.037764
   12      -10.037142
   13      -10.030108
   14      -10.029183
   15       -9.943815
   16       -9.935888
   17       -8.005543
   18       -7.999561
   19       -7.934103
   20       -7.932010
   21       -7.927045
   22       -7.926222
   23       -7.855505
   24       -7.849158
   25       -7.161623
   26       -7.087768
   27       -7.086378
   28       -7.009566
   29       -3.661466
   30       -2.815354
   31       -2.813636
   32       -2.291249
   33       -2.274567
   34       -2.259698
   35       -2.259490
   36       -2.243661
   37       -2.241776
   38       -2.227325
   39       -2.210556
   40       -1.788686
   41       -1.635611
   42       -1.611797
   43       -1.608904
   44       -1.584842
   45        0.782071
   46        0.944192
   47        0.958798
   48        0.962850
   49        0.976868
   50        1.256512
   51        1.267844
   52        1.272375
   53        1.284943
   54        1.406186
   55        1.408379
   56        1.639061
   57        1.643647
   58        2.083246
   59        2.136113
   60        2.138600
   61        2.144736
   62        2.145614
   63        2.592145
   64        2.605182
   65        6.299930
   66        6.302327
   67        6.539658
   68        6.543126
   69        6.545294
   70        6.548992
   71        6.986144
   72        7.043335
   73        7.050122
   74        7.363537
   75        7.367410
   76        7.934839
   77        9.043858
   78       11.590350
   79       11.593350
   80       11.905000
   81       12.080163
   82       12.081613
   83       12.256349
   84       12.546620
 
  0.3333333E+00  0.0000000E+00  0.0000000E+00  0.1388889E-01
    1      -14.357448
    2      -14.226511
    3      -14.226015
    4      -14.086936
    5      -12.409585
    6      -12.294176
    7      -12.293744
    8      -12.172204
    9      -10.550616
   10      -10.546944
   11      -10.451766
   12      -10.451223
   13      -10.448022
   14      -10.446823
   15      -10.347755
   16      -10.343926
   17       -6.832108
   18       -6.823059
   19       -6.765625
   20       -6.763488
   21       -6.755942
   22       -6.754820
   23       -6.694419
   24       -6.685506
   25       -5.046239
   26       -4.985527
   27       -4.983877
   28       -4.921400
   29       -3.448094
   30       -3.434040
   31       -3.406728
   32       -3.406372
   33       -3.393255
   34       -3.391309
   35       -3.363454
   36       -3.349260
   37       -3.062964
   38       -2.233566
   39       -2.231850
   40       -1.230455
   41       -1.161656
   42       -1.138918
   43       -1.135809
   44       -1.112846
   45       -0.760666
   46       -0.708444
   47       -0.679947
   48       -0.676906
   49       -0.648405
   50       -0.017148
   51       -0.015394
   52        0.457694
   53        0.474691
   54        0.478894
   55        0.496228
   56        0.857121
   57        1.337155
   58        1.340539
   59        1.947627
   60        1.950151
   61        1.953301
   62        1.954224
   63        2.613815
   64        2.620409
   65        6.805271
   66        6.808327
   67        7.116264
   68        7.118524
   69        7.120886
   70        7.124303
   71        7.518758
   72        7.522207
   73        9.132803
   74        9.503745
   75        9.507300
   76        9.647535
   77        9.990500
   78       11.940383
   79       12.093324
   80       12.096571
   81       12.223106
   82       12.309910
   83       12.311696
   84       12.593543
 
  0.5000000E+00  0.0000000E+00  0.0000000E+00  0.6944444E-02
    1      -13.540520
    2      -13.537752
    3      -13.417087
    4      -13.414571
    5      -13.414557
    6      -13.411490
    7      -13.283890
    8      -13.281058
    9      -10.699155
   10      -10.697450
   11      -10.598688
   12      -10.597344
   13      -10.597313
   14      -10.595200
   15      -10.492322
   16      -10.490568
   17       -5.921270
   18       -5.919534
   19       -5.884884
   20       -5.884882
   21       -5.884130
   22       -5.880112
   23       -5.849606
   24       -5.847146
   25       -4.333639
   26       -4.331964
   27       -4.311261
   28       -4.308678
   29       -4.307690
   30       -4.307687
   31       -4.279997
   32       -4.278859
   33       -2.826816
   34       -2.823400
   35       -2.783345
   36       -2.778123
   37       -2.778116
   38       -2.777424
   39       -2.733641
   40       -2.730982
   41       -2.083699
   42       -2.081437
   43       -1.285814
   44       -1.283621
   45       -1.283443
   46       -1.280132
   47       -0.428254
   48       -0.424791
   49       -0.406621
   50       -0.405464
   51       -0.405443
   52       -0.397965
   53       -0.383795
   54       -0.376510
   55       -0.327684
   56       -0.325099
   57        1.218504
   58        1.220557
   59        1.863571
   60        1.866797
   61        1.867071
   62        1.868455
   63        2.597464
   64        2.599790
   65        7.134696
   66        7.137211
   67        7.422794
   68        7.422982
   69        7.423018
   70        7.427910
   71        7.712867
   72        7.715405
   73       10.645872
   74       10.646812
   75       11.562186
   76       11.565522
   77       11.777401
   78       11.784993
   79       11.785785
   80       11.790037
   81       12.164900
   82       12.168510
   83       12.553409
   84       12.568712
 
 -0.1355253E-19  0.1666667E+00  0.0000000E+00  0.1388889E-01
    1      -14.852356
    2      -14.717466
    3      -14.716939
    4      -14.573364
    5      -10.999575
    6      -10.896476
    7      -10.896041
    8      -10.788245
    9      -10.128328
   10      -10.120727
   11      -10.037981
   12      -10.037152
   13      -10.030099
   14      -10.028566
   15       -9.943861
   16       -9.935590
   17       -8.005889
   18       -8.000441
   19       -7.934115
   20       -7.933329
   21       -7.927166
   22       -7.926929
   23       -7.855771
   24       -7.849842
   25       -7.160713
   26       -7.086418
   27       -7.085957
   28       -7.008700
   29       -3.661477
   30       -2.815364
   31       -2.813650
   32       -2.290103
   33       -2.274460
   34       -2.259681
   35       -2.257094
   36       -2.243685
   37       -2.241775
   38       -2.226053
   39       -2.210580
   40       -1.788700
   41       -1.636693
   42       -1.611803
   43       -1.611375
   44       -1.586304
   45        0.781444
   46        0.947581
   47        0.962852
   48        0.963239
   49        0.978614
   50        1.254913
   51        1.267838
   52        1.268086
   53        1.280950
   54        1.405973
   55        1.407092
   56        1.639223
   57        1.644605
   58        2.082311
   59        2.136496
   60        2.138591
   61        2.144776
   62        2.147640
   63        2.592241
   64        2.606304
   65        6.298187
   66        6.302098
   67        6.539032
   68        6.541570
   69        6.544974
   70        6.547355
   71        6.987796
   72        7.042906
   73        7.048403
   74        7.365669
   75        7.368315
   76        7.936334
   77        9.043848
   78       11.590295
   79       11.593295
   80       11.904377
   81       12.080021
   82       12.080471
   83       12.255683
   84       12.548665
 
  0.1666667E+00  0.1666667E+00  0.0000000E+00  0.1388889E-01
    1      -14.521880
    2      -14.389634
    3      -14.389128
    4      -14.248554
    5      -11.621453
    6      -11.618550
    7      -11.513610
    8      -11.511020
    9      -11.511003
   10      -11.507744
   11      -11.397772
   12      -11.394799
   13       -9.276114
   14       -9.222820
   15       -9.221686
   16       -9.177002
   17       -8.221227
   18       -8.196029
   19       -8.192463
   20       -8.151992
   21       -6.052414
   22       -6.048957
   23       -5.987188
   24       -5.983421
   25       -5.983403
   26       -5.980413
   27       -5.916087
   28       -5.912717
   29       -3.620319
   30       -3.577474
   31       -3.575700
   32       -3.531582
   33       -3.261385
   34       -2.426266
   35       -2.424555
   36       -1.963047
   37       -1.960448
   38       -1.933381
   39       -1.931949
   40       -1.931944
   41       -1.927745
   42       -1.901749
   43       -1.898559
   44       -1.415056
   45       -0.089989
   46       -0.075584
   47       -0.071542
   48       -0.058652
   49        0.138827
   50        0.140794
   51        0.580235
   52        0.589051
   53        0.593477
   54        0.604923
   55        0.831150
   56        0.833079
   57        0.833206
   58        0.836425
   59        1.627302
   60        1.629714
   61        2.461426
   62        2.841231
   63        2.843498
   64        3.095302
   65        6.037936
   66        6.045741
   67        6.050957
   68        6.330153
   69        7.936474
   70        7.938942
   71        8.315143
   72        8.319126
   73        8.319639
   74        8.321587
   75        8.806892
   76        8.809646
   77        9.447633
   78       11.943473
   79       11.946539
   80       12.690941
   81       12.695190
   82       12.890365
   83       12.893920
   84       12.896379
 
  0.3333333E+00  0.1666667E+00  0.0000000E+00  0.1388889E-01
    1      -13.865022
    2      -13.737997
    3      -13.737530
    4      -13.602919
    5      -12.892369
    6      -12.773110
    7      -12.772646
    8      -12.646774
    9      -11.936848
   10      -11.825378
   11      -11.824823
   12      -11.707643
   13       -9.259864
   14       -9.176837
   15       -9.176531
   16       -9.091419
   17       -7.363954
   18       -7.309434
   19       -7.306501
   20       -7.249813
   21       -5.054304
   22       -5.012546
   23       -5.010642
   24       -4.964950
   25       -4.891549
   26       -4.844094
   27       -4.842304
   28       -4.794392
   29       -3.910067
   30       -3.860043
   31       -3.858428
   32       -3.807202
   33       -2.862708
   34       -2.830826
   35       -2.829518
   36       -2.795573
   37       -2.470827
   38       -1.819403
   39       -1.790655
   40       -1.787106
   41       -1.755414
   42       -1.657583
   43       -1.656159
   44       -1.323072
   45       -1.316285
   46       -1.297185
   47       -1.294382
   48       -1.267857
   49       -0.681915
   50       -0.546131
   51       -0.544516
   52       -0.425813
   53       -0.407643
   54       -0.403037
   55       -0.383649
   56       -0.197175
   57        0.370106
   58        0.525547
   59        0.526885
   60        1.371781
   61        2.753831
   62        3.249536
   63        3.251525
   64        3.714059
   65        5.693216
   66        5.903463
   67        5.907044
   68        6.212888
   69        8.744647
   70        9.034066
   71        9.036015
   72        9.343217
   73       10.229601
   74       10.255640
   75       10.526507
   76       10.529108
   77       10.891860
   78       11.448596
   79       12.489596
   80       12.519806
   81       12.531215
   82       12.645187
   83       12.773802
   84       12.784652
 
  0.5000000E+00  0.1666667E+00  0.0000000E+00  0.1388889E-01
    1      -13.866218
    2      -13.739199
    3      -13.738713
    4      -13.604107
    5      -12.890684
    6      -12.771419
    7      -12.770974
    8      -12.645097
    9      -11.938079
   10      -11.826605
   11      -11.826041
   12      -11.708870
   13       -9.257020
   14       -9.173750
   15       -9.173417
   16       -9.087984
   17       -7.359366
   18       -7.303892
   19       -7.302685
   20       -7.245155
   21       -5.062487
   22       -5.020286
   23       -5.019828
   24       -4.973679
   25       -4.900913
   26       -4.853785
   27       -4.850618
   28       -4.802988
   29       -3.913751
   30       -3.864081
   31       -3.861762
   32       -3.810921
   33       -2.851671
   34       -2.820204
   35       -2.817312
   36       -2.783913
   37       -2.472120
   38       -1.817321
   39       -1.787882
   40       -1.786212
   41       -1.753659
   42       -1.658800
   43       -1.657440
   44       -1.319588
   45       -1.314557
   46       -1.294071
   47       -1.290445
   48       -1.264245
   49       -0.683184
   50       -0.544469
   51       -0.542778
   52       -0.427675
   53       -0.408812
   54       -0.406236
   55       -0.386475
   56       -0.198441
   57        0.371763
   58        0.524091
   59        0.525478
   60        1.370045
   61        2.754898
   62        3.253598
   63        3.254451
   64        3.722495
   65        5.689785
   66        5.904080
   67        5.905969
   68        6.212462
   69        8.740837
   70        9.030677
   71        9.033312
   72        9.342066
   73       10.229896
   74       10.254031
   75       10.525168
   76       10.528200
   77       10.889388
   78       11.450967
   79       12.487150
   80       12.520305
   81       12.531788
   82       12.643822
   83       12.771164
   84       12.781995
 
 -0.3333333E+00  0.1666667E+00  0.0000000E+00  0.1388889E-01
    1      -14.522595
    2      -14.390352
    3      -14.389833
    4      -14.249263
    5      -11.623612
    6      -11.617816
    7      -11.514795
    8      -11.514256
    9      -11.508924
   10      -11.508506
   11      -11.400053
   12      -11.394225
   13       -9.265603
   14       -9.210851
   15       -9.210482
   16       -9.164265
   17       -8.221862
   18       -8.194495
   19       -8.194120
   20       -8.151499
   21       -6.060266
   22       -6.054688
   23       -5.994346
   24       -5.992012
   25       -5.988525
   26       -5.986924
   27       -5.923945
   28       -5.918643
   29       -3.633770
   30       -3.590337
   31       -3.589923
   32       -3.545127
   33       -3.262179
   34       -2.427043
   35       -2.425346
   36       -1.958511
   37       -1.945598
   38       -1.929588
   39       -1.926555
   40       -1.916337
   41       -1.914001
   42       -1.897049
   43       -1.884248
   44       -1.415843
   45       -0.094692
   46       -0.079240
   47       -0.078951
   48       -0.064334
   49        0.135942
   50        0.142040
   51        0.586337
   52        0.596651
   53        0.596892
   54        0.608317
   55        0.828238
   56        0.829630
   57        0.834704
   58        0.836658
   59        1.622887
   60        1.630518
   61        2.463617
   62        2.850246
   63        2.850624
   64        3.112081
   65        6.031844
   66        6.047384
   67        6.049599
   68        6.333113
   69        7.932900
   70        7.936250
   71        8.311243
   72        8.314805
   73        8.315046
   74        8.318352
   75        8.804114
   76        8.804824
   77        9.446561
   78       11.942319
   79       11.945374
   80       12.691554
   81       12.718340
   82       12.891260
   83       12.896975
   84       12.924543
 
 -0.1666667E+00  0.1666667E+00  0.0000000E+00  0.1388889E-01
    1      -14.852595
    2      -14.717704
    3      -14.717173
    4      -14.573601
    5      -11.005867
    6      -10.902840
    7      -10.902402
    8      -10.794688
    9      -10.119672
   10      -10.117643
   11      -10.029291
   12      -10.027752
   13      -10.027732
   14      -10.025155
   15       -9.934686
   16       -9.932597
   17       -8.003876
   18       -8.002055
   19       -7.932336
   20       -7.929867
   21       -7.929850
   22       -7.928775
   23       -7.853549
   24       -7.851814
   25       -7.167971
   26       -7.094489
   27       -7.092319
   28       -7.015846
   29       -3.661748
   30       -2.815627
   31       -2.813916
   32       -2.290787
   33       -2.288723
   34       -2.259545
   35       -2.258843
   36       -2.258837
   37       -2.254962
   38       -2.227083
   39       -2.224466
   40       -1.788966
   41       -1.619640
   42       -1.595526
   43       -1.593355
   44       -1.569085
   45        0.775976
   46        0.936364
   47        0.950182
   48        0.954918
   49        0.969740
   50        1.263925
   51        1.276495
   52        1.280646
   53        1.291999
   54        1.399065
   55        1.400540
   56        1.644479
   57        1.646554
   58        2.073222
   59        2.145208
   60        2.145862
   61        2.146000
   62        2.149815
   63        2.605176
   64        2.607268
   65        6.297938
   66        6.300422
   67        6.539493
   68        6.544855
   69        6.545141
   70        6.546847
   71        6.985070
   72        7.045220
   73        7.048180
   74        7.359387
   75        7.363567
   76        7.930607
   77        9.043476
   78       11.589866
   79       11.592867
   80       11.937273
   81       12.112666
   82       12.113698
   83       12.288389
   84       12.543851
 
  0.0000000E+00  0.3333333E+00  0.0000000E+00  0.1388889E-01
    1      -14.357432
    2      -14.226505
    3      -14.225987
    4      -14.086918
    5      -12.409550
    6      -12.294163
    7      -12.293685
    8      -12.172167
    9      -10.550938
   10      -10.546680
   11      -10.452546
   12      -10.451252
   13      -10.448016
   14      -10.446016
   15      -10.348018
   16      -10.343601
   17       -6.832621
   18       -6.823958
   19       -6.765638
   20       -6.764982
   21       -6.756005
   22       -6.755773
   23       -6.694839
   24       -6.686216
   25       -5.045206
   26       -4.983905
   27       -4.983489
   28       -4.920418
   29       -3.446927
   30       -3.433729
   31       -3.406387
   32       -3.404326
   33       -3.392666
   34       -3.391307
   35       -3.362154
   36       -3.349007
   37       -3.063009
   38       -2.233606
   39       -2.231912
   40       -1.230517
   41       -1.162850
   42       -1.138925
   43       -1.138566
   44       -1.114508
   45       -0.760899
   46       -0.706414
   47       -0.676906
   48       -0.676318
   49       -0.646766
   50       -0.017327
   51       -0.015872
   52        0.456154
   53        0.474685
   54        0.475038
   55        0.493474
   56        0.856705
   57        1.337225
   58        1.341399
   59        1.947926
   60        1.950102
   61        1.953320
   62        1.956074
   63        2.614042
   64        2.621418
   65        6.804118
   66        6.807256
   67        7.114863
   68        7.116861
   69        7.120904
   70        7.123105
   71        7.517245
   72        7.521696
   73        9.133968
   74        9.505167
   75        9.507887
   76        9.647519
   77        9.991482
   78       11.940163
   79       12.093073
   80       12.096329
   81       12.222420
   82       12.309892
   83       12.310145
   84       12.592935
 
  0.1666667E+00  0.3333333E+00  0.0000000E+00  0.1388889E-01
    1      -13.865008
    2      -13.737991
    3      -13.737506
    4      -13.602902
    5      -12.892334
    6      -12.773098
    7      -12.772583
    8      -12.646735
    9      -11.936893
   10      -11.825389
   11      -11.824904
   12      -11.707690
   13       -9.259800
   14       -9.176743
   15       -9.176488
   16       -9.091346
   17       -7.364316
   18       -7.309436
   19       -7.307348
   20       -7.250309
   21       -5.053866
   22       -5.011792
   23       -5.010639
   24       -4.964620
   25       -4.892904
   26       -4.845074
   27       -4.844088
   28       -4.795809
   29       -3.908711
   30       -3.858436
   31       -3.857359
   32       -3.805874
   33       -2.861099
   34       -2.829519
   35       -2.827601
   36       -2.793932
   37       -2.470865
   38       -1.818180
   39       -1.788834
   40       -1.787095
   41       -1.754660
   42       -1.657584
   43       -1.656214
   44       -1.324548
   45       -1.316501
   46       -1.297579
   47       -1.297181
   48       -1.269632
   49       -0.681957
   50       -0.546329
   51       -0.544840
   52       -0.426528
   53       -0.407645
   54       -0.405131
   55       -0.385403
   56       -0.196859
   57        0.369795
   58        0.525841
   59        0.527329
   60        1.372237
   61        2.754298
   62        3.250451
   63        3.251556
   64        3.714462
   65        5.692720
   66        5.903423
   67        5.905688
   68        6.212097
   69        8.743355
   70        9.033260
   71        9.034515
   72        9.342192
   73       10.230710
   74       10.255672
   75       10.527454
   76       10.530116
   77       10.892797
   78       11.448539
   79       12.489922
   80       12.519461
   81       12.530925
   82       12.645216
   83       12.774350
   84       12.785082
 
  0.3333333E+00  0.3333333E+00  0.0000000E+00  0.1388889E-01
    1      -13.056695
    2      -13.054045
    3      -13.051536
    4      -12.937543
    5      -12.934400
    6      -12.934382
    7      -12.932763
    8      -12.931499
    9      -12.928941
   10      -12.808273
   11      -12.805656
   12      -12.803075
   13       -8.044488
   14       -7.962228
   15       -7.960573
   16       -7.954009
   17       -7.951899
   18       -7.947707
   19       -7.945431
   20       -7.865900
   21       -5.910700
   22       -5.910330
   23       -5.906609
   24       -5.905777
   25       -3.149535
   26       -3.146172
   27       -3.144519
   28       -3.125259
   29       -3.120745
   30       -3.120736
   31       -3.120086
   32       -3.119821
   33       -3.115011
   34       -3.097425
   35       -3.095302
   36       -3.091537
   37       -1.789102
   38       -1.784996
   39       -1.782548
   40       -1.772231
   41       -1.769152
   42       -1.767344
   43       -1.766616
   44       -1.766599
   45       -1.761654
   46       -1.749099
   47       -1.747638
   48       -1.742787
   49       -1.505944
   50       -1.503744
   51       -1.501181
   52       -0.728532
   53       -0.725258
   54       -0.725069
   55       -0.723741
   56       -0.722520
   57       -0.719564
   58        0.201999
   59        0.204339
   60        0.207057
   61        4.001012
   62        4.584040
   63        4.591811
   64        4.599527
   65        4.599902
   66        4.619043
   67        4.620341
   68        5.286372
   69       10.751159
   70       10.754034
   71       10.757927
   72       10.972253
   73       10.976868
   74       10.977108
   75       10.978154
   76       10.978801
   77       10.980783
   78       11.205258
   79       11.211294
   80       11.213977
   81       11.260311
   82       11.262556
   83       11.269894
   84       13.482181
 
  0.5000000E+00  0.3333333E+00  0.0000000E+00  0.1388889E-01
    1      -13.866918
    2      -13.739910
    3      -13.739397
    4      -13.604802
    5      -12.894223
    6      -12.775017
    7      -12.774439
    8      -12.648619
    9      -11.933061
   10      -11.821528
   11      -11.821110
   12      -11.703868
   13       -9.249662
   14       -9.166544
   15       -9.166013
   16       -9.080770
   17       -7.367658
   18       -7.312380
   19       -7.311853
   20       -7.254511
   21       -5.060725
   22       -5.018972
   23       -5.017824
   24       -4.972116
   25       -4.899348
   26       -4.852319
   27       -4.849926
   28       -4.802462
   29       -3.920530
   30       -3.870997
   31       -3.867985
   32       -3.817213
   33       -2.857143
   34       -2.826362
   35       -2.822768
   36       -2.789860
   37       -2.472950
   38       -1.826320
   39       -1.796795
   40       -1.794469
   41       -1.762019
   42       -1.659729
   43       -1.658428
   44       -1.318564
   45       -1.309371
   46       -1.283447
   47       -1.280498
   48       -1.254075
   49       -0.684071
   50       -0.548472
   51       -0.546992
   52       -0.417773
   53       -0.398473
   54       -0.396544
   55       -0.376481
   56       -0.193120
   57        0.367450
   58        0.529388
   59        0.531127
   60        1.375802
   61        2.760361
   62        3.258234
   63        3.259581
   64        3.725230
   65        5.693481
   66        5.900139
   67        5.901651
   68        6.201725
   69        8.745077
   70        9.030718
   71        9.033204
   72        9.336280
   73       10.224155
   74       10.252833
   75       10.521274
   76       10.524567
   77       10.889557
   78       11.446337
   79       12.483291
   80       12.514667
   81       12.526237
   82       12.650543
   83       12.775666
   84       12.786562
 
 -0.3333333E+00  0.3333333E+00  0.0000000E+00  0.1388889E-01
    1      -14.358386
    2      -14.227462
    3      -14.226926
    4      -14.087863
    5      -12.413385
    6      -12.298032
    7      -12.297477
    8      -12.176002
    9      -10.543342
   10      -10.541570
   11      -10.444748
   12      -10.443287
   13      -10.443261
   14      -10.441134
   15      -10.340366
   16      -10.338548
   17       -6.831274
   18       -6.829351
   19       -6.765147
   20       -6.762399
   21       -6.762381
   22       -6.761413
   23       -6.693916
   24       -6.692108
   25       -5.055207
   26       -4.994714
   27       -4.992344
   28       -4.930101
   29       -3.445451
   30       -3.443720
   31       -3.404049
   32       -3.403970
   33       -3.403928
   34       -3.400145
   35       -3.361074
   36       -3.358899
   37       -3.064070
   38       -2.234659
   39       -2.232982
   40       -1.231594
   41       -1.146802
   42       -1.123773
   43       -1.121298
   44       -1.098202
   45       -0.764923
   46       -0.718390
   47       -0.690246
   48       -0.686084
   49       -0.657762
   50       -0.021552
   51       -0.020131
   52        0.468168
   53        0.485668
   54        0.489265
   55        0.506357
   56        0.852004
   57        1.343592
   58        1.345563
   59        1.955712
   60        1.956590
   61        1.956762
   62        1.960490
   63        2.622564
   64        2.624853
   65        6.805580
   66        6.808266
   67        7.113598
   68        7.118481
   69        7.118656
   70        7.119876
   71        7.513197
   72        7.515884
   73        9.126933
   74        9.498167
   75        9.501391
   76        9.646154
   77        9.986749
   78       11.943295
   79       12.092090
   80       12.095384
   81       12.250324
   82       12.339366
   83       12.340602
   84       12.618779
 
 -0.1666667E+00  0.3333333E+00  0.0000000E+00  0.1388889E-01
    1      -14.522583
    2      -14.390348
    3      -14.389813
    4      -14.249250
    5      -11.624020
    6      -11.617504
    7      -11.515595
    8      -11.514712
    9      -11.508860
   10      -11.507313
   11      -11.400380
   12      -11.393804
   13       -9.264881
   14       -9.210835
   15       -9.209015
   16       -9.163524
   17       -8.223597
   18       -8.197223
   19       -8.194491
   20       -8.152977
   21       -6.060807
   22       -6.053547
   23       -5.994355
   24       -5.993736
   25       -5.986937
   26       -5.985292
   27       -5.924396
   28       -5.917281
   29       -3.632795
   30       -3.590323
   31       -3.587837
   32       -3.543993
   33       -3.262210
   34       -2.427074
   35       -2.425387
   36       -1.959745
   37       -1.945550
   38       -1.929596
   39       -1.929183
   40       -1.915697
   41       -1.914001
   42       -1.898287
   43       -1.883958
   44       -1.415887
   45       -0.093095
   46       -0.079235
   47       -0.074840
   48       -0.060958
   49        0.135796