  32  32   0   0
  0.8730593E+01  0.4932875E-09  0.4932875E-09  0.1326350E-08  0.5000000E-15
  1.000000000000000E-004
  CAR 
 graphite                                
     15.90698469    -16.86296456  301      4.77458917      1.00000000
    -16.863  0.0000E+00  0.0000E+00
    -16.754  0.0000E+00  0.0000E+00
    -16.644  0.0000E+00  0.0000E+00
    -16.535  0.0000E+00  0.0000E+00
    -16.426  0.0000E+00  0.0000E+00
    -16.317  0.0000E+00  0.0000E+00
    -16.208  0.0000E+00  0.0000E+00
    -16.098  0.0000E+00  0.0000E+00
    -15.989  0.0000E+00  0.0000E+00
    -15.880  0.0000E+00  0.0000E+00
    -15.771  0.0000E+00  0.0000E+00
    -15.661  0.0000E+00  0.0000E+00
    -15.552  0.0000E+00  0.0000E+00
    -15.443  0.0000E+00  0.0000E+00
    -15.334  0.0000E+00  0.0000E+00
    -15.224  0.0000E+00  0.0000E+00
    -15.115  0.0000E+00  0.0000E+00
    -15.006  0.0000E+00  0.0000E+00
    -14.897  0.0000E+00  0.0000E+00
    -14.788  0.1638E+01  0.4997E-01
    -14.678  0.2496E+01  0.2619E+00
    -14.569  0.3682E+01  0.6018E+00
    -14.460  0.4733E+01  0.1096E+01
    -14.351  0.5063E+01  0.1633E+01
    -14.241  0.4863E+01  0.2172E+01
    -14.132  0.4944E+01  0.2708E+01
    -14.023  0.4929E+01  0.3250E+01
    -13.914  0.4947E+01  0.3791E+01
    -13.804  0.4970E+01  0.4331E+01
    -13.695  0.5033E+01  0.4878E+01
    -13.586  0.5642E+01  0.5468E+01
    -13.477  0.5855E+01  0.6100E+01
    -13.368  0.6852E+01  0.6840E+01
    -13.258  0.4416E+01  0.7390E+01
    -13.149  0.1900E+01  0.7737E+01
    -13.040  0.3984E+01  0.8018E+01
    -12.931  0.4189E+01  0.8449E+01
    -12.821  0.7551E+01  0.8959E+01
    -12.712  0.5634E+01  0.9719E+01
    -12.603  0.6405E+01  0.1039E+02
    -12.494  0.4394E+01  0.1095E+02
    -12.384  0.4603E+01  0.1144E+02
    -12.275  0.4757E+01  0.1196E+02
    -12.166  0.4958E+01  0.1248E+02
    -12.057  0.5139E+01  0.1303E+02
    -11.947  0.5429E+01  0.1360E+02
    -11.838  0.5683E+01  0.1424E+02
    -11.729  0.5240E+01  0.1484E+02
    -11.620  0.5072E+01  0.1540E+02
    -11.511  0.4964E+01  0.1594E+02
    -11.401  0.4993E+01  0.1648E+02
    -11.292  0.5083E+01  0.1703E+02
    -11.183  0.5138E+01  0.1759E+02
    -11.074  0.5357E+01  0.1816E+02
    -10.964  0.5565E+01  0.1876E+02
    -10.855  0.5915E+01  0.1939E+02
    -10.746  0.5824E+01  0.2003E+02
    -10.637  0.5822E+01  0.2066E+02
    -10.527  0.5918E+01  0.2130E+02
    -10.418  0.4810E+01  0.2189E+02
    -10.309  0.4449E+01  0.2238E+02
    -10.200  0.5147E+01  0.2291E+02
    -10.091  0.5332E+01  0.2349E+02
     -9.981  0.5490E+01  0.2408E+02
     -9.872  0.5712E+01  0.2469E+02
     -9.763  0.6419E+01  0.2533E+02
     -9.654  0.7924E+01  0.2611E+02
     -9.544  0.9594E+01  0.2713E+02
     -9.435  0.6359E+01  0.2799E+02
     -9.326  0.6247E+01  0.2870E+02
     -9.217  0.6551E+01  0.2933E+02
     -9.107  0.3485E+01  0.2978E+02
     -8.998  0.3109E+01  0.3014E+02
     -8.889  0.2734E+01  0.3046E+02
     -8.780  0.2358E+01  0.3073E+02
     -8.670  0.2994E+01  0.3101E+02
     -8.561  0.2508E+01  0.3133E+02
     -8.452  0.1387E+01  0.3155E+02
     -8.343  0.2022E+01  0.3173E+02
     -8.234  0.3574E+01  0.3201E+02
     -8.124  0.7053E+01  0.3270E+02
     -8.015  0.4195E+01  0.3324E+02
     -7.906  0.4068E+01  0.3367E+02
     -7.797  0.6809E+01  0.3415E+02
     -7.687  0.7794E+01  0.3492E+02
     -7.578  0.6747E+01  0.3566E+02
     -7.469  0.7839E+01  0.3646E+02
     -7.360  0.9062E+01  0.3738E+02
     -7.250  0.7087E+01  0.3826E+02
     -7.141  0.6154E+01  0.3896E+02
     -7.032  0.5885E+01  0.3961E+02
     -6.923  0.5637E+01  0.4024E+02
     -6.814  0.5430E+01  0.4085E+02
     -6.704  0.5247E+01  0.4143E+02
     -6.595  0.5060E+01  0.4199E+02
     -6.486  0.4881E+01  0.4254E+02
     -6.377  0.4832E+01  0.4307E+02
     -6.267  0.4804E+01  0.4359E+02
     -6.158  0.4707E+01  0.4411E+02
     -6.049  0.4523E+01  0.4462E+02
     -5.940  0.4404E+01  0.4510E+02
     -5.830  0.3586E+01  0.4553E+02
     -5.721  0.4105E+01  0.4596E+02
     -5.612  0.4742E+01  0.4645E+02
     -5.503  0.5498E+01  0.4700E+02
     -5.393  0.6325E+01  0.4765E+02
     -5.284  0.8988E+01  0.4847E+02
     -5.175  0.9440E+01  0.4955E+02
     -5.066  0.7060E+01  0.5045E+02
     -4.957  0.4681E+01  0.5109E+02
     -4.847  0.2674E+01  0.5148E+02
     -4.738  0.2764E+01  0.5176E+02
     -4.629  0.3897E+01  0.5212E+02
     -4.520  0.5281E+01  0.5262E+02
     -4.410  0.6842E+01  0.5328E+02
     -4.301  0.8110E+01  0.5411E+02
     -4.192  0.7167E+01  0.5496E+02
     -4.083  0.5863E+01  0.5567E+02
     -3.973  0.5927E+01  0.5629E+02
     -3.864  0.7447E+01  0.5709E+02
     -3.755  0.6928E+01  0.5787E+02
     -3.646  0.7008E+01  0.5864E+02
     -3.537  0.6718E+01  0.5938E+02
     -3.427  0.9689E+01  0.6018E+02
     -3.318  0.1039E+02  0.6125E+02
     -3.209  0.8270E+01  0.6228E+02
     -3.100  0.8486E+01  0.6321E+02
     -2.990  0.7440E+01  0.6408E+02
     -2.881  0.6831E+01  0.6484E+02
     -2.772  0.7657E+01  0.6563E+02
     -2.663  0.8722E+01  0.6652E+02
     -2.553  0.1118E+02  0.6758E+02
     -2.444  0.1380E+02  0.6895E+02
     -2.335  0.1201E+02  0.7044E+02
     -2.226  0.1135E+02  0.7165E+02
     -2.116  0.1234E+02  0.7297E+02
     -2.007  0.1426E+02  0.7435E+02
     -1.898  0.1319E+02  0.7595E+02
     -1.789  0.1566E+02  0.7747E+02
     -1.680  0.1154E+02  0.7916E+02
     -1.570  0.1427E+02  0.8041E+02
     -1.461  0.1800E+02  0.8252E+02
     -1.352  0.1977E+02  0.8454E+02
     -1.243  0.1425E+02  0.8632E+02
     -1.133  0.1251E+02  0.8778E+02
     -1.024  0.1173E+02  0.8910E+02
     -0.915  0.7809E+01  0.9017E+02
     -0.806  0.8063E+01  0.9104E+02
     -0.696  0.1081E+02  0.9204E+02
     -0.587  0.1417E+02  0.9348E+02
     -0.478  0.1886E+02  0.9511E+02
     -0.369  0.8905E+01  0.9636E+02
     -0.260  0.9584E+01  0.9733E+02
     -0.150  0.1027E+02  0.9841E+02
     -0.041  0.1068E+02  0.9958E+02
      0.068  0.1113E+02  0.1008E+03
      0.177  0.9502E+01  0.1019E+03
      0.287  0.9542E+01  0.1029E+03
      0.396  0.9806E+01  0.1040E+03
      0.505  0.9604E+01  0.1051E+03
      0.614  0.9335E+01  0.1061E+03
      0.724  0.9286E+01  0.1071E+03
      0.833  0.9341E+01  0.1082E+03
      0.942  0.9265E+01  0.1092E+03
      1.051  0.9262E+01  0.1102E+03
      1.161  0.9240E+01  0.1112E+03
      1.270  0.9539E+01  0.1122E+03
      1.379  0.9475E+01  0.1133E+03
      1.488  0.9274E+01  0.1143E+03
      1.597  0.9449E+01  0.1153E+03
      1.707  0.8998E+01  0.1164E+03
      1.816  0.6502E+01  0.1172E+03
      1.925  0.6441E+01  0.1179E+03
      2.034  0.6047E+01  0.1186E+03
      2.144  0.4442E+01  0.1191E+03
      2.253  0.4352E+01  0.1196E+03
      2.362  0.5786E+01  0.1201E+03
      2.471  0.7500E+01  0.1209E+03
      2.581  0.8612E+01  0.1218E+03
      2.690  0.4542E+01  0.1225E+03
      2.799  0.7089E+01  0.1232E+03
      2.908  0.6678E+01  0.1240E+03
      3.017  0.5078E+01  0.1246E+03
      3.127  0.4197E+01  0.1252E+03
      3.236  0.3610E+01  0.1256E+03
      3.345  0.3286E+01  0.1259E+03
      3.454  0.2965E+01  0.1263E+03
      3.564  0.2646E+01  0.1266E+03
      3.673  0.2244E+01  0.1269E+03
      3.782  0.1923E+01  0.1271E+03
      3.891  0.1683E+01  0.1273E+03
      4.001  0.1439E+01  0.1275E+03
      4.110  0.1198E+01  0.1276E+03
      4.219  0.9956E+00  0.1277E+03
      4.328  0.8358E+00  0.1278E+03
      4.438  0.6124E+00  0.1279E+03
      4.547  0.4009E+00  0.1280E+03
      4.656  0.1990E+00  0.1280E+03
      4.765  0.7391E-02  0.1280E+03
      4.874  0.1028E+00  0.1280E+03
      4.984  0.2403E+00  0.1280E+03
      5.093  0.3884E+00  0.1281E+03
      5.202  0.5513E+00  0.1281E+03
      5.311  0.7302E+00  0.1282E+03
      5.421  0.9339E+00  0.1283E+03
      5.530  0.1230E+01  0.1284E+03
      5.639  0.1608E+01  0.1285E+03
      5.748  0.1952E+01  0.1287E+03
      5.858  0.2317E+01  0.1290E+03
      5.967  0.2817E+01  0.1292E+03
      6.076  0.3324E+01  0.1296E+03
      6.185  0.4339E+01  0.1300E+03
      6.294  0.6125E+01  0.1307E+03
      6.404  0.8254E+01  0.1317E+03
      6.513  0.8163E+01  0.1326E+03
      6.622  0.7463E+01  0.1335E+03
      6.731  0.7709E+01  0.1343E+03
      6.841  0.6482E+01  0.1351E+03
      6.950  0.5908E+01  0.1358E+03
      7.059  0.5729E+01  0.1364E+03
      7.168  0.4913E+01  0.1370E+03
      7.278  0.4125E+01  0.1375E+03
      7.387  0.3574E+01  0.1379E+03
      7.496  0.3527E+01  0.1383E+03
      7.605  0.3902E+01  0.1387E+03
      7.714  0.4290E+01  0.1392E+03
      7.824  0.4614E+01  0.1397E+03
      7.933  0.4814E+01  0.1402E+03
      8.042  0.4628E+01  0.1407E+03
      8.151  0.4447E+01  0.1412E+03
      8.261  0.4268E+01  0.1417E+03
      8.370  0.4065E+01  0.1421E+03
      8.479  0.3887E+01  0.1425E+03
      8.588  0.3732E+01  0.1430E+03
      8.698  0.3617E+01  0.1434E+03
      8.807  0.3535E+01  0.1438E+03
      8.916  0.3446E+01  0.1441E+03
      9.025  0.3313E+01  0.1445E+03
      9.135  0.3216E+01  0.1449E+03
      9.244  0.3260E+01  0.1452E+03
      9.353  0.3577E+01  0.1456E+03
      9.462  0.3895E+01  0.1460E+03
      9.571  0.3997E+01  0.1464E+03
      9.681  0.3802E+01  0.1469E+03
      9.790  0.3807E+01  0.1473E+03
      9.899  0.3854E+01  0.1477E+03
     10.008  0.3883E+01  0.1481E+03
     10.118  0.3912E+01  0.1485E+03
     10.227  0.3883E+01  0.1490E+03
     10.336  0.3876E+01  0.1494E+03
     10.445  0.3886E+01  0.1498E+03
     10.555  0.3898E+01  0.1502E+03
     10.664  0.4407E+01  0.1507E+03
     10.773  0.4977E+01  0.1512E+03
     10.882  0.5343E+01  0.1518E+03
     10.991  0.4978E+01  0.1523E+03
     11.101  0.4814E+01  0.1528E+03
     11.210  0.4631E+01  0.1534E+03
     11.319  0.3566E+01  0.1539E+03
     11.428  0.3423E+01  0.1542E+03
     11.538  0.3177E+01  0.1546E+03
     11.647  0.3399E+01  0.1550E+03
     11.756  0.3933E+01  0.1554E+03
     11.865  0.3254E+01  0.1558E+03
     11.975  0.2925E+01  0.1560E+03
     12.084  0.6737E+01  0.1566E+03
     12.193  0.7229E+01  0.1574E+03
     12.302  0.1129E+02  0.1584E+03
     12.412  0.1323E+02  0.1598E+03
     12.521  0.1340E+02  0.1612E+03
     12.630  0.1336E+02  0.1627E+03
     12.739  0.1106E+02  0.1641E+03
     12.848  0.7370E+01  0.1651E+03
     12.958  0.6171E+01  0.1658E+03
     13.067  0.5551E+01  0.1665E+03
     13.176  0.5545E+01  0.1671E+03
     13.285  0.3310E+01  0.1676E+03
     13.395  0.1906E+01  0.1678E+03
     13.504  0.5700E+00  0.1680E+03
     13.613  0.2595E-01  0.1680E+03
     13.722  0.9473E-02  0.1680E+03
     13.832  0.1581E-02  0.1680E+03
     13.941  0.0000E+00  0.1680E+03
     14.050  0.0000E+00  0.1680E+03
     14.159  0.0000E+00  0.1680E+03
     14.268  0.0000E+00  0.1680E+03
     14.378  0.0000E+00  0.1680E+03
     14.487  0.0000E+00  0.1680E+03
     14.596  0.0000E+00  0.1680E+03
     14.705  0.0000E+00  0.1680E+03
     14.815  0.0000E+00  0.1680E+03
     14.924  0.0000E+00  0.1680E+03
     15.033  0.0000E+00  0.1680E+03
     15.142  0.0000E+00  0.1680E+03
     15.252  0.0000E+00  0.1680E+03
     15.361  0.0000E+00  0.1680E+03
     15.470  0.0000E+00  0.1680E+03
     15.579  0.0000E+00  0.1680E+03
     15.689  0.0000E+00  0.1680E+03
     15.798  0.0000E+00  0.1680E+03
     15.907  0.0000E+00  0.1680E+03
