   32   32    1    1
  0.8730593E+01  0.4932875E-09  0.4932875E-09  0.1326350E-08  0.5000000E-15
  1.000000000000000E-004
  CAR 
 graphite                                
    128    163     84
 
  0.0000000E+00  0.0000000E+00  0.0000000E+00  0.3086420E-02
    1      -14.862965
    2      -14.705120
    3      -14.704239
    4      -14.534592
    5       -9.532929
    6       -9.522529
    7       -9.520201
    8       -9.466651
    9       -9.465379
   10       -9.454654
   11       -9.453675
   12       -9.453627
   13       -9.449234
   14       -9.411509
   15       -9.398585
   16       -9.395297
   17       -8.450128
   18       -8.448279
   19       -8.446625
   20       -8.416078
   21       -8.415597
   22       -8.413229
   23       -8.413094
   24       -8.412905
   25       -8.409964
   26       -8.356575
   27       -8.356129
   28       -8.354130
   29       -3.769986
   30       -2.832687
   31       -2.830817
   32       -1.684915
   33       -1.622569
   34       -1.620226
   35       -1.604619
   36       -1.591591
   37       -1.591136
   38       -1.591126
   39       -1.586600
   40       -1.573961
   41       -1.572449
   42       -1.559954
   43       -1.557150
   44       -1.541873
   45        1.777073
   46        1.784885
   47        1.786047
   48        1.791878
   49        1.797515
   50        1.802140
   51        1.804405
   52        1.811515
   53        1.987873
   54        1.990141
   55        1.991621
   56        2.420079
   57        2.423239
   58        2.430069
   59        2.430544
   60        2.430782
   61        2.435564
   62        2.705864
   63        2.724707
   64        2.727378
   65        6.298431
   66        6.301673
   67        6.308835
   68        6.432121
   69        6.434329
   70        6.436746
   71        6.438617
   72        6.438922
   73        6.441805
   74        6.996730
   75        7.004064
   76        7.006554
   77        9.186221
   78       11.914848
   79       11.919389
   80       11.962645
   81       11.966655
   82       11.998241
   83       12.174636
   84       12.180031
 
  0.1111111E+00  0.1387779E-16  0.0000000E+00  0.6172840E-02
    1      -14.789195
    2      -14.632035
    3      -14.631159
    4      -14.462266
    5      -10.323105
    6      -10.210141
    7      -10.209124
    8      -10.091221
    9       -9.783680
   10       -9.774877
   11       -9.686100
   12       -9.685565
   13       -9.676828
   14       -9.675486
   15       -9.587313
   16       -9.577085
   17       -8.151294
   18       -8.147349
   19       -8.075217
   20       -8.072531
   21       -8.069787
   22       -8.068342
   23       -7.986413
   24       -7.981612
   25       -7.638081
   26       -7.549278
   27       -7.548156
   28       -7.454450
   29       -3.680445
   30       -2.745734
   31       -2.743863
   32       -1.849040
   33       -1.831983
   34       -1.814925
   35       -1.814260
   36       -1.798068
   37       -1.796602
   38       -1.779617
   39       -1.762483
   40       -1.601426
   41       -1.548142
   42       -1.518746
   43       -1.515315
   44       -1.485876
   45        1.391646
   46        1.481779
   47        1.495960
   48        1.499735
   49        1.512945
   50        1.622448
   51        1.633858
   52        1.639079
   53        1.651895
   54        1.867841
   55        1.871540
   56        2.003256
   57        2.006544
   58        2.368552
   59        2.371596
   60        2.377943
   61        2.379732
   62        2.602895
   63        2.767990
   64        2.784574
   65        6.370028
   66        6.375551
   67        6.564009
   68        6.567748
   69        6.569665
   70        6.572850
   71        6.644917
   72        6.976384
   73        6.979926
   74        7.132838
   75        7.140885
   76        7.607704
   77        9.274492
   78       11.989054
   79       11.993007
   80       12.006038
   81       12.211912
   82       12.213671
   83       12.298609
   84       12.332853
 
  0.2222222E+00  0.1387779E-16  0.0000000E+00  0.6172840E-02
    1      -14.568319
    2      -14.413118
    3      -14.412253
    4      -14.245640
    5      -11.336184
    6      -11.210344
    7      -11.209537
    8      -11.076664
    9      -10.131812
   10      -10.125895
   11      -10.020831
   12      -10.020502
   13      -10.014966
   14      -10.013538
   15       -9.904400
   16       -9.897971
   17       -7.472493
   18       -7.465242
   19       -7.387549
   20       -7.384992
   21       -7.379340
   22       -7.378040
   23       -7.294815
   24       -7.287366
   25       -6.311558
   26       -6.228446
   27       -6.227419
   28       -6.140802
   29       -3.412661
   30       -2.485674
   31       -2.483806
   32       -2.457221
   33       -2.441145
   34       -2.415304
   35       -2.414771
   36       -2.399507
   37       -2.398088
   38       -2.371549
   39       -2.355430
   40       -1.352229
   41       -1.332817
   42       -1.304142
   43       -1.300626
   44       -1.271821
   45        0.364757
   46        0.654708
   47        0.677567
   48        0.681145
   49        0.703979
   50        1.113416
   51        1.116028
   52        1.201261
   53        1.217621
   54        1.222862
   55        1.239855
   56        1.641483
   57        1.645534
   58        1.965752
   59        2.247652
   60        2.250549
   61        2.255370
   62        2.257025
   63        2.842734
   64        2.854538
   65        6.602453
   66        6.604806
   67        6.898779
   68        6.902027
   69        6.904513
   70        6.907783
   71        7.439546
   72        7.444966
   73        7.759277
   74        8.199977
   75        8.202827
   76        8.819665
   77        9.540037
   78       12.123754
   79       12.209547
   80       12.213163
   81       12.322148
   82       12.324209
   83       12.507714
   84       13.161445
 
  0.3333333E+00  0.8326673E-16  0.0000000E+00  0.6172840E-02
    1      -14.201361
    2      -14.049458
    3      -14.048614
    4      -13.885801
    5      -12.250395
    6      -12.115987
    7      -12.115197
    8      -11.972354
    9      -10.388627
   10      -10.384948
   11      -10.272592
   12      -10.272256
   13      -10.269144
   14      -10.267491
   15      -10.150390
   16      -10.146501
   17       -6.663607
   18       -6.654638
   19       -6.585235
   20       -6.582574
   21       -6.575606
   22       -6.573985
   23       -6.500827
   24       -6.491991
   25       -4.876357
   26       -4.804293
   27       -4.803037
   28       -4.728466
   29       -3.274103
   30       -3.260106
   31       -3.224832
   32       -3.224635
   33       -3.211247
   34       -3.209706
   35       -3.173248
   36       -3.159119
   37       -2.969133
   38       -2.055704
   39       -2.053824
   40       -0.983486
   41       -0.956111
   42       -0.952423
   43       -0.941525
   44       -0.924422
   45       -0.660609
   46       -0.531871
   47       -0.497185
   48       -0.494411
   49       -0.459618
   50        0.159764
   51        0.161994
   52        0.637278
   53        0.657840
   54        0.662708
   55        0.683787
   56        1.131919
   57        1.446595
   58        1.449804
   59        2.124004
   60        2.126887
   61        2.129801
   62        2.131301
   63        2.862892
   64        2.870051
   65        6.948746
   66        6.951580
   67        7.290856
   68        7.293371
   69        7.295603
   70        7.299395
   71        7.741180
   72        7.744518
   73        9.264349
   74        9.678575
   75        9.681297
   76        9.983012
   77       10.222855
   78       12.192619
   79       12.417252
   80       12.491668
   81       12.494041
   82       12.542103
   83       12.544590
   84       12.824921
 
  0.4444444E+00  0.2775558E-16  0.0000000E+00  0.6172840E-02
    1      -13.690327
    2      -13.542940
    3      -13.542134
    4      -13.384650
    5      -13.038267
    6      -12.896757
    7      -12.895931
    8      -12.745083
    9      -10.520738
   10      -10.518715
   11      -10.403005
   12      -10.402424
   13      -10.401392
   14      -10.399244
   15      -10.278339
   16      -10.276224
   17       -5.910009
   18       -5.903141
   19       -5.853275
   20       -5.850385
   21       -5.846515
   22       -5.843467
   23       -5.793855
   24       -5.787714
   25       -4.021435
   26       -4.013781
   27       -3.981667
   28       -3.980407
   29       -3.973749
   30       -3.971855
   31       -3.935217
   32       -3.926761
   33       -3.393793
   34       -3.334197
   35       -3.332570
   36       -3.271030
   37       -2.355041
   38       -1.919758
   39       -1.873419
   40       -1.871196
   41       -1.822440
   42       -1.579516
   43       -1.461162
   44       -1.459108
   45       -0.715739
   46       -0.713691
   47       -0.516808
   48       -0.490769
   49       -0.486836
   50       -0.460426
   51       -0.377426
   52        0.039240
   53        0.063113
   54        0.067589
   55        0.091798
   56        0.324524
   57        1.339185
   58        1.341364
   59        2.049732
   60        2.052896
   61        2.053998
   62        2.055489
   63        2.857771
   64        2.861093
   65        7.229416
   66        7.232159
   67        7.559085
   68        7.560477
   69        7.561559
   70        7.566317
   71        7.905539
   72        7.908378
   73       10.600174
   74       10.892387
   75       11.218383
   76       11.221731
   77       11.381900
   78       11.672322
   79       12.492354
   80       12.581326
   81       12.586503
   82       12.591125
   83       12.692102
   84       12.696577
 
  0.0000000E+00  0.1111111E+00  0.0000000E+00  0.6172840E-02
    1      -14.789193
    2      -14.632035
    3      -14.631155
    4      -14.462264
    5      -10.323209
    6      -10.210151
    7      -10.209367
    8      -10.091376
    9       -9.783690
   10       -9.774543
   11       -9.686034
   12       -9.685570
   13       -9.676824
   14       -9.674777
   15       -9.587271
   16       -9.576689
   17       -8.151645
   18       -8.148394
   19       -8.075227
   20       -8.074124
   21       -8.069812
   22       -8.069207
   23       -7.986733
   24       -7.982409
   25       -7.637046
   26       -7.548189
   27       -7.547271
   28       -7.453499
   29       -3.680449
   30       -2.745738
   31       -2.743870
   32       -1.847817
   33       -1.831902
   34       -1.814919
   35       -1.811695
   36       -1.798215
   37       -1.796602
   38       -1.778319
   39       -1.762564
   40       -1.601433
   41       -1.549251
   42       -1.518751
   43       -1.517797
   44       -1.487301
   45        1.390916
   46        1.485620
   47        1.499738
   48        1.500671
   49        1.514703
   50        1.620751
   51        1.633852
   52        1.634568
   53        1.647622
   54        1.867962
   55        1.872440
   56        2.002945
   57        2.004875
   58        2.368978
   59        2.371550
   60        2.378057
   61        2.381798
   62        2.601586
   63        2.768087
   64        2.785970
   65        6.367990
   66        6.375354
   67        6.563706
   68        6.566032
   69        6.569286
   70        6.570978
   71        6.647058
   72        6.978946
   73        6.980918
   74        7.132627
   75        7.139060
   76        7.609355
   77        9.274486
   78       11.989010
   79       11.992970
   80       12.005391
   81       12.211806
   82       12.212455
   83       12.299510
   84       12.333043
 
  0.1111111E+00  0.1111111E+00  0.0000000E+00  0.6172840E-02
    1      -14.641757
    2      -14.485919
    3      -14.485049
    4      -14.317673
    5      -10.789577
    6      -10.786548
    7      -10.670448
    8      -10.668194
    9      -10.668169
   10      -10.664314
   11      -10.542600
   12      -10.539481
   13       -9.343464
   14       -9.278035
   15       -9.277323
   16       -9.224302
   17       -8.263180
   18       -8.232727
   19       -8.228669
   20       -8.175884
   21       -6.954519
   22       -6.951177
   23       -6.869114
   24       -6.865799
   25       -6.865774
   26       -6.862535
   27       -6.776142
   28       -6.772866
   29       -3.501664
   30       -2.572075
   31       -2.570202
   32       -2.516646
   33       -2.474599
   34       -2.473086
   35       -2.430099
   36       -1.704370
   37       -1.701913
   38       -1.670742
   39       -1.670102
   40       -1.670093
   41       -1.665381
   42       -1.636003
   43       -1.632981
   44       -1.434974
   45        0.946447
   46        0.953925
   47        0.956799
   48        0.968102
   49        0.970717
   50        0.983330
   51        1.308755
   52        1.317900
   53        1.323190
   54        1.335398
   55        1.642939
   56        1.644617
   57        1.644841
   58        1.648801
   59        2.254948
   60        2.392216
   61        2.394797
   62        2.686571
   63        2.689217
   64        2.966542
   65        6.294338
   66        6.360295
   67        6.365544
   68        6.815326
   69        7.116610
   70        7.119534
   71        7.518624
   72        7.522595
   73        7.523017
   74        7.524865
   75        8.133802
   76        8.136403
   77        9.451753
   78       12.138679
   79       12.142460
   80       12.378144
   81       12.382137
   82       12.583843
   83       12.585449
   84       12.590196
 
  0.2222222E+00  0.1111111E+00  0.0000000E+00  0.6172840E-02
    1      -14.347750
    2      -14.194518
    3      -14.193667
    4      -14.029352
    5      -11.756306
    6      -11.626559
    7      -11.625769
    8      -11.488331
    9      -11.130950
   10      -11.007279
   11      -11.006348
   12      -10.875728
   13       -9.397311
   14       -9.303164
   15       -9.302891
   16       -9.208426
   17       -7.803410
   18       -7.732837
   19       -7.729373
   20       -7.649950
   21       -6.167263
   22       -6.087822
   23       -6.086711
   24       -6.004047
   25       -5.569974
   26       -5.493057
   27       -5.492037
   28       -5.412288
   29       -3.426217
   30       -3.375229
   31       -3.373768
   32       -3.320878
   33       -3.145825
   34       -2.232029
   35       -2.226827
   36       -2.224936
   37       -2.191392
   38       -2.190906
   39       -2.149351
   40       -1.416015
   41       -1.384703
   42       -1.381259
   43       -1.349454
   44       -1.104805
   45       -0.094716
   46       -0.003168
   47        0.020412
   48        0.024401
   49        0.046931
   50        0.614369
   51        0.692925
   52        0.695191
   53        0.763318
   54        0.778343
   55        0.784226
   56        0.801117
   57        1.356044
   58        1.357800
   59        1.612371
   60        2.199877
   61        2.387359
   62        2.888897
   63        2.891440
   64        3.286514
   65        6.259067
   66        6.369275
   67        6.374251
   68        6.757119
   69        7.688941
   70        8.092725
   71        8.094966
   72        8.463690
   73        8.617128
   74        8.891606
   75        8.894058
   76        9.451973
   77        9.807200
   78       12.433785
   79       12.437043
   80       12.513645
   81       12.726025
   82       12.728042
   83       12.798805
   84       13.197497
 
  0.3333333E+00  0.1111111E+00  0.0000000E+00  0.6172840E-02
    1      -13.908614
    2      -13.759338
    3      -13.758516
    4      -13.598726
    5      -12.607919
    6      -12.470286
    7      -12.469473
    8      -12.323081
    9      -11.340188
   10      -11.214301
   11      -11.213360
   12      -11.080443
   13       -9.542252
   14       -9.437209
   15       -9.436628
   16       -9.327590
   17       -7.038220
   18       -6.966475
   19       -6.963178
   20       -6.888213
   21       -5.365242
   22       -5.299899
   23       -5.298050
   24       -5.231096
   25       -4.364962
   26       -4.312300
   27       -4.310645
   28       -4.254392
   29       -4.118562
   30       -4.053669
   31       -4.052426
   32       -3.985712
   33       -2.931737
   34       -2.888304
   35       -2.887905
   36       -2.841700
   37       -2.616615
   38       -1.714913
   39       -1.713066
   40       -1.251252
   41       -1.213377
   42       -1.210102
   43       -1.173009
   44       -1.072584
   45       -0.999141
   46       -0.969614
   47       -0.966050
   48       -0.936056
   49       -0.616782
   50       -0.230645
   51       -0.228573
   52        0.137068
   53        0.158864
   54        0.164080
   55        0.186789
   56        0.403061
   57        0.776497
   58        1.171786
   59        1.173495
   60        2.066401
   61        2.380889
   62        2.979466
   63        2.981642
   64        3.576899
   65        6.226725
   66        6.489017
   67        6.493289
   68        6.858036
   69        8.198096
   70        8.548006
   71        8.550615
   72        8.935951
   73       10.031552
   74       10.338492
   75       10.399205
   76       10.401444
   77       10.867267
   78       11.902007
   79       12.786207
   80       12.795032
   81       12.798987
   82       12.907031
   83       12.909371
   84       13.168238
 
  0.4444444E+00  0.1111111E+00  0.0000000E+00  0.6172840E-02
    1      -13.329010
    2      -13.326009
    3      -13.185502
    4      -13.183769
    5      -13.182810
    6      -13.179667
    7      -13.030257
    8      -13.027188
    9      -11.410791
   10      -11.284377
   11      -11.283426
   12      -11.149781
   13       -9.597240
   14       -9.490162
   15       -9.489407
   16       -9.377668
   17       -6.525022
   18       -6.478996
   19       -6.475877
   20       -6.432358
   21       -4.887980
   22       -4.883385
   23       -4.856509
   24       -4.854871
   25       -4.849616
   26       -4.845860
   27       -4.818971
   28       -4.809986
   29       -3.344985
   30       -3.319956
   31       -3.317661
   32       -3.286681
   33       -2.658310
   34       -2.654165
   35       -2.608101
   36       -2.603928
   37       -2.601949
   38       -2.601496
   39       -2.551735
   40       -2.548142
   41       -1.922800
   42       -1.920292
   43       -1.045414
   44       -1.043556
   45       -1.042811
   46       -1.039329
   47       -0.472501
   48       -0.468009
   49       -0.444355
   50       -0.444150
   51       -0.442134
   52       -0.434637
   53       -0.414913
   54       -0.407708
   55        0.016007
   56        0.018876
   57        0.330663
   58        1.107997
   59        1.109692
   60        2.018261
   61        2.367814
   62        3.003123
   63        3.004954
   64        3.688014
   65        6.224208
   66        6.556753
   67        6.560140
   68        6.912780
   69        8.418790
   70        8.725364
   71        8.728464
   72        9.033397
   73       11.042309
   74       11.044067
   75       11.629577
   76       11.633229
   77       11.890665
   78       11.895520
   79       11.896439
   80       11.899584
   81       12.274312
   82       12.277987
   83       13.023176
   84       13.040326
 
 -0.4444444E+00  0.1111111E+00  0.0000000E+00  0.6172840E-02
    1      -13.909349
    2      -13.760088
    3      -13.759248
    4      -13.599462
    5      -12.606741
    6      -12.469101
    7      -12.468308
    8      -12.321910
    9      -11.341951
   10      -11.216075
   11      -11.215129
   12      -11.082237
   13       -9.539353
   14       -9.434231
   15       -9.433409
   16       -9.324242
   17       -7.031685
   18       -6.959044
   19       -6.957515
   20       -6.881727
   21       -5.375122
   22       -5.310281
   23       -5.306901
   24       -5.240377
   25       -4.375407
   26       -4.322259
   27       -4.322077
   28       -4.265260
   29       -4.121105
   30       -4.056418
   31       -4.054816
   32       -3.988309
   33       -2.919120
   34       -2.876290
   35       -2.874079
   36       -2.828666
   37       -2.617422
   38       -1.715696
   39       -1.713883
   40       -1.249770
   41       -1.211334
   42       -1.209462
   43       -1.171769
   44       -1.071386
   45       -0.996626
   46       -0.967326
   47       -0.963303
   48       -0.933516
   49       -0.617581
   50       -0.229514
   51       -0.227366
   52        0.135554
   53        0.157852
   54        0.161575
   55        0.184692
   56        0.401346
   57        0.777620
   58        1.169671
   59        1.171389
   60        2.063538
   61        2.382340
   62        2.983328
   63        2.985035
   64        3.585177
   65        6.224725
   66        6.490884
   67        6.493482
   68        6.858251
   69        8.194093
   70        8.543959
   71        8.547519
   72        8.934622
   73       10.031611
   74       10.337386
   75       10.398186
   76       10.400507
   77       10.865374
   78       11.903626
   79       12.783692
   80       12.794864
   81       12.798676
   82       12.904440
   83       12.907551
   84       13.152740
 
 -0.3333333E+00  0.1111111E+00  0.0000000E+00  0.6172840E-02
    1      -14.348271
    2      -14.195053
    3      -14.194189
    4      -14.029872
    5      -11.754913
    6      -11.625161
    7      -11.624379
    8      -11.486935
    9      -11.134520
   10      -11.010878
   11      -11.009963
   12      -10.879377
   13       -9.390892
   14       -9.296356
   15       -9.295521
   16       -9.200485
   17       -7.799334
   18       -7.726905
   19       -7.725922
   20       -7.644841
   21       -6.177080
   22       -6.098455
   23       -6.095570
   24       -6.013653
   25       -5.572452
   26       -5.495656
   27       -5.494437
   28       -5.414812
   29       -3.439977
   30       -3.388669
   31       -3.387959
   32       -3.334727
   33       -3.146410
   34       -2.227408
   35       -2.225562
   36       -2.215961
   37       -2.175994
   38       -2.174141
   39       -2.133151
   40       -1.414050
   41       -1.382858
   42       -1.379204
   43       -1.347515
   44       -1.105389
   45       -0.093389
   46       -0.004066
   47        0.020291
   48        0.021499
   49        0.045106
   50        0.611099
   51        0.694138
   52        0.696471
   53        0.765290
   54        0.780968
   55        0.784208
   56        0.800938
   57        1.351896
   58        1.353677
   59        1.613497
   60        2.194020
   61        2.389212
   62        2.896005
   63        2.897813
   64        3.301722
   65        6.253570
   66        6.372247
   67        6.374409
   68        6.760270
   69        7.684556
   70        8.086403
   71        8.090313
   72        8.463278
   73        8.613273
   74        8.890179
   75        8.892979
   76        9.449959
   77        9.806388
   78       12.432867
   79       12.436091
   80       12.511889
   81       12.723940
   82       12.726441
   83       12.798715
   84       13.197138
 
 -0.2222222E+00  0.1111111E+00  0.0000000E+00  0.6172840E-02
    1      -14.642079
    2      -14.486246
    3      -14.485368
    4      -14.317997
    5      -10.793464
    6      -10.786444
    7      -10.673739
    8      -10.672908
    9      -10.666642
   10      -10.665776
   11      -10.546738
   12      -10.539521
   13       -9.332678
   14       -9.265923
   15       -9.265109
   16       -9.210719
   17       -8.263566
   18       -8.230474
   19       -8.229654
   20       -8.174545
   21       -6.960415
   22       -6.955482
   23       -6.874749
   24       -6.872024
   25       -6.869013
   26       -6.867942
   27       -6.782144
   28       -6.777311
   29       -3.502019
   30       -2.572424
   31       -2.570563
   32       -2.532107
   33       -2.489788
   34       -2.488922
   35       -2.445630
   36       -1.701222
   37       -1.686535
   38       -1.668904
   39       -1.665450
   40       -1.653411
   41       -1.651649
   42       -1.632672
   43       -1.618130
   44       -1.435329
   45        0.943555
   46        0.949047
   47        0.953768
   48        0.960805
   49        0.963859
   50        0.975987
   51        1.317035
   52        1.327700
   53        1.328443
   54        1.340358
   55        1.637791
   56        1.639708
   57        1.645496
   58        1.648413
   59        2.256719
   60        2.383859
   61        2.394890
   62        2.695499
   63        2.697455
   64        2.985432
   65        6.286754
   66        6.364016
   67        6.366052
   68        6.821878
   69        7.116661
   70        7.116788
   71        7.515097
   72        7.518812
   73        7.519315
   74        7.522119
   75        8.130205
   76        8.132410
   77        9.451246
   78       12.138012
   79       12.141770
   80       12.379327
   81       12.412391
   82       12.584997
   83       12.598059
   84       12.618311
 
 -0.1111111E+00  0.1111111E+00  0.0000000E+00  0.6172840E-02
    1      -14.789296
    2      -14.632129
    3      -14.631246
    4      -14.462367
    5      -10.330732
    6      -10.217817
    7      -10.217193
    8      -10.099353
    9       -9.774467
   10       -9.772342
   11       -9.676591
   12       -9.675437
   13       -9.675392
   14       -9.671947
   15       -9.576992
   16       -9.574468
   17       -8.150784
   18       -8.148726
   19       -8.073699
   20       -8.071424
   21       -8.071390
   22       -8.069907
   23       -7.984909
   24       -7.983133
   25       -7.642694
   26       -7.554891
   27       -7.552058
   28       -7.459276
   29       -3.680565
   30       -2.745829
   31       -2.743965
   32       -1.849112
   33       -1.846897
   34       -1.814870
   35       -1.814524
   36       -1.814512
   37       -1.809999
   38       -1.779909
   39       -1.777163
   40       -1.601544
   41       -1.532085
   42       -1.501915
   43       -1.500227
   44       -1.470010
   45        1.385846
   46        1.474982
   47        1.487645
   48        1.493093
   49        1.507004
   50        1.628808
   51        1.642069
   52        1.645979
   53        1.657964
   54        1.871802
   55        1.873537
   56        1.995131
   57        1.997254
   58        2.377764
   59        2.378749
   60        2.378935
   61        2.383600
   62        2.588896
   63        2.783962
   64        2.786648
   65        6.367671
   66        6.370943
   67        6.564724
   68        6.569549
   69        6.569824
   70        6.571337
   71        6.648072
   72        6.972949
   73        6.977544
   74        7.137326
   75        7.139869
   76        7.602929
   77        9.274314
   78       11.988774
   79       11.992786
   80       12.038731
   81       12.244956
   82       12.245968
   83       12.296957
   84       12.301113
 
  0.0000000E+00  0.2222222E+00  0.0000000E+00  0.6172840E-02
    1      -14.568312
    2      -14.413117
    3      -14.412239
    4      -14.245633
    5      -11.336165
    6      -11.210343
    7      -11.209507
    8      -11.076653
    9      -10.131992
   10      -10.125661
   11      -10.021172
   12      -10.020617
   13      -10.014962
   14      -10.012851
   15       -9.904507
   16       -9.897684
   17       -7.472866
   18       -7.466106
   19       -7.387558
   20       -7.386333
   21       -7.379369
   22       -7.378865
   23       -7.295118
   24       -7.288046
   25       -6.310612
   26       -6.227451
   27       -6.226566
   28       -6.139894
   29       -3.412679
   30       -2.485688
   31       -2.483832
   32       -2.456051
   33       -2.441039
   34       -2.415293
   35       -2.412327
   36       -2.399396
   37       -2.398087
   38       -2.370249
   39       -2.355384
   40       -1.352257
   41       -1.333987
   42       -1.304146
   43       -1.303248
   44       -1.273333
   45        0.364309
   46        0.657543
   47        0.681145
   48        0.681984
   49        0.705820
   50        1.113194
   51        1.115093
   52        1.199508
   53        1.217615
   54        1.218417
   55        1.236481
   56        1.641538
   57        1.646422
   58        1.964949
   59        2.248061
   60        2.250485
   61        2.255443
   62        2.258961
   63        2.842906
   64        2.855818
   65        6.600724
   66        6.604361
   67        6.898264
   68        6.900061
   69        6.904420
   70        6.906131
   71        7.438686
   72        7.443647
   73        7.760888
   74        8.201782
   75        8.203708
   76        8.820931
   77        9.540019
   78       12.123072
   79       12.209399
   80       12.213010
   81       12.322054
   82       12.322898
   83       12.507001
   84       13.172704
 
  0.1111111E+00  0.2222222E+00  0.0000000E+00  0.6172840E-02
    1      -14.347744
    2      -14.194517
    3      -14.193657
    4      -14.029346
    5      -11.756266
    6      -11.626555
    7      -11.625694
    8      -11.488292
    9      -11.130980
   10      -11.007281
   11      -11.006400
   12      -10.875751
   13       -9.397300
   14       -9.303153
   15       -9.302878
   16       -9.208414
   17       -7.803475
   18       -7.732838
   19       -7.729541
   20       -7.650055
   21       -6.168297
   22       -6.088777
   23       -6.087796
   24       -6.005058
   25       -5.568943
   26       -5.492061
   27       -5.491002
   28       -5.411283
   29       -3.426122
   30       -3.375069
   31       -3.373768
   32       -3.320810
   33       -3.145839
   34       -2.230770
   35       -2.226836
   36       -2.224962
   37       -2.191382
   38       -2.188251
   39       -2.147919
   40       -1.417286
   41       -1.384709
   42       -1.384044
   43       -1.351017
   44       -1.104827
   45       -0.095074
   46       -0.001535
   47        0.022475
   48        0.024404
   49        0.047626