       N       E                     dE             d eps       ncg     rms          rms(c)
DAV:   1     0.556109354741E+03    0.55611E+03   -0.72743E+04 27384   0.161E+03
DAV:   2    -0.266333707312E+03   -0.82244E+03   -0.79198E+03 33900   0.310E+02
DAV:   3    -0.311344258629E+03   -0.45011E+02   -0.44559E+02 33312   0.723E+01
DAV:   4    -0.312152336513E+03   -0.80808E+00   -0.80677E+00 34080   0.105E+01
DAV:   5    -0.312174945351E+03   -0.22609E-01   -0.22600E-01 34212   0.168E+00    0.221E+01
DAV:   6    -0.298155452759E+03    0.14019E+02   -0.14447E+01 31296   0.106E+01    0.116E+01
DAV:   7    -0.293786939595E+03    0.43685E+01   -0.14708E+01 31224   0.108E+01    0.188E+00
DAV:   8    -0.293834428187E+03   -0.47489E-01   -0.33774E-01 30972   0.169E+00    0.247E-01
DAV:   9    -0.293836034977E+03   -0.16068E-02   -0.10792E-02 33012   0.366E-01    0.104E-01
DAV:  10    -0.293836878868E+03   -0.84389E-03   -0.45753E-03 37392   0.204E-01    0.622E-02
DAV:  11    -0.293836814925E+03    0.63942E-04   -0.72018E-04 32712   0.106E-01    0.414E-02
DAV:  12    -0.293836875354E+03   -0.60428E-04   -0.56585E-04 36300   0.650E-02    0.265E-02
