  32  32   0   0
  0.5760957E+01  0.4934311E-09  0.4934311E-09  0.8743465E-09  0.5000000E-15
  1.000000000000000E-004
  CAR 
 graphite                                
     20.73886542    -13.63840006  301      9.74952496      1.00000000
    -13.638  0.0000E+00  0.0000E+00
    -13.524  0.0000E+00  0.0000E+00
    -13.409  0.0000E+00  0.0000E+00
    -13.295  0.0000E+00  0.0000E+00
    -13.180  0.0000E+00  0.0000E+00
    -13.065  0.0000E+00  0.0000E+00
    -12.951  0.0000E+00  0.0000E+00
    -12.836  0.0000E+00  0.0000E+00
    -12.722  0.0000E+00  0.0000E+00
    -12.607  0.1552E-14  0.1778E-15
    -12.492  0.1027E-09  0.1177E-10
    -12.378  0.5352E-06  0.6134E-07
    -12.263  0.2486E-03  0.2855E-04
    -12.149  0.1462E-01  0.1704E-02
    -12.034  0.1741E+00  0.2166E-01
    -11.920  0.5695E+00  0.8692E-01
    -11.805  0.8347E+00  0.1826E+00
    -11.690  0.1151E+01  0.3145E+00
    -11.576  0.1186E+01  0.4504E+00
    -11.461  0.1555E+01  0.6285E+00
    -11.347  0.1711E+01  0.8246E+00
    -11.232  0.1282E+01  0.9715E+00
    -11.117  0.1955E+01  0.1196E+01
    -11.003  0.2553E+01  0.1488E+01
    -10.888  0.1885E+01  0.1704E+01
    -10.774  0.1641E+01  0.1892E+01
    -10.659  0.2562E+01  0.2186E+01
    -10.544  0.2408E+01  0.2462E+01
    -10.430  0.2677E+01  0.2768E+01
    -10.315  0.2883E+01  0.3099E+01
    -10.201  0.2582E+01  0.3395E+01
    -10.086  0.2609E+01  0.3694E+01
     -9.971  0.2452E+01  0.3975E+01
     -9.857  0.2786E+01  0.4294E+01
     -9.742  0.3689E+01  0.4717E+01
     -9.628  0.4342E+01  0.5214E+01
     -9.513  0.2876E+01  0.5544E+01
     -9.399  0.2103E+01  0.5785E+01
     -9.284  0.3062E+01  0.6136E+01
     -9.169  0.4039E+01  0.6598E+01
     -9.055  0.4320E+01  0.7093E+01
     -8.940  0.4375E+01  0.7595E+01
     -8.826  0.3663E+01  0.8014E+01
     -8.711  0.3350E+01  0.8398E+01
     -8.596  0.3413E+01  0.8789E+01
     -8.482  0.4166E+01  0.9267E+01
     -8.367  0.5118E+01  0.9853E+01
     -8.253  0.5232E+01  0.1045E+02
     -8.138  0.3831E+01  0.1089E+02
     -8.023  0.4996E+01  0.1146E+02
     -7.909  0.5558E+01  0.1210E+02
     -7.794  0.4650E+01  0.1263E+02
     -7.680  0.5255E+01  0.1324E+02
     -7.565  0.5151E+01  0.1383E+02
     -7.450  0.4122E+01  0.1430E+02
     -7.336  0.4852E+01  0.1485E+02
     -7.221  0.5168E+01  0.1545E+02
     -7.107  0.6200E+01  0.1616E+02
     -6.992  0.6725E+01  0.1693E+02
     -6.878  0.4587E+01  0.1745E+02
     -6.763  0.3799E+01  0.1789E+02
     -6.648  0.4099E+01  0.1836E+02
     -6.534  0.5294E+01  0.1897E+02
     -6.419  0.6257E+01  0.1968E+02
     -6.305  0.6808E+01  0.2046E+02
     -6.190  0.5504E+01  0.2109E+02
     -6.075  0.5598E+01  0.2174E+02
     -5.961  0.4586E+01  0.2226E+02
     -5.846  0.4626E+01  0.2279E+02
     -5.732  0.5061E+01  0.2337E+02
     -5.617  0.4310E+01  0.2386E+02
     -5.502  0.5821E+01  0.2453E+02
     -5.388  0.4975E+01  0.2510E+02
     -5.273  0.4539E+01  0.2562E+02
     -5.159  0.6564E+01  0.2637E+02
     -5.044  0.5715E+01  0.2703E+02
     -4.929  0.5674E+01  0.2768E+02
     -4.815  0.4999E+01  0.2825E+02
     -4.700  0.5951E+01  0.2893E+02
     -4.586  0.5474E+01  0.2956E+02
     -4.471  0.4314E+01  0.3006E+02
     -4.357  0.3059E+01  0.3041E+02
     -4.242  0.2784E+01  0.3072E+02
     -4.127  0.3282E+01  0.3110E+02
     -4.013  0.3342E+01  0.3148E+02
     -3.898  0.4987E+01  0.3206E+02
     -3.784  0.5671E+01  0.3270E+02
     -3.669  0.4651E+01  0.3324E+02
     -3.554  0.4822E+01  0.3379E+02
     -3.440  0.6220E+01  0.3450E+02
     -3.325  0.4422E+01  0.3501E+02
     -3.211  0.5411E+01  0.3563E+02
     -3.096  0.7317E+01  0.3647E+02
     -2.981  0.8367E+01  0.3743E+02
     -2.867  0.5085E+01  0.3801E+02
     -2.752  0.4430E+01  0.3852E+02
     -2.638  0.6337E+01  0.3924E+02
     -2.523  0.4886E+01  0.3980E+02
     -2.408  0.4908E+01  0.4037E+02
     -2.294  0.4627E+01  0.4090E+02
     -2.179  0.5720E+01  0.4155E+02
     -2.065  0.6455E+01  0.4229E+02
     -1.950  0.5364E+01  0.4291E+02
     -1.836  0.6494E+01  0.4365E+02
     -1.721  0.4845E+01  0.4421E+02
     -1.606  0.4872E+01  0.4476E+02
     -1.492  0.4821E+01  0.4532E+02
     -1.377  0.4365E+01  0.4582E+02
     -1.263  0.5550E+01  0.4645E+02
     -1.148  0.6259E+01  0.4717E+02
     -1.033  0.8220E+01  0.4811E+02
     -0.919  0.6844E+01  0.4890E+02
     -0.804  0.4207E+01  0.4938E+02
     -0.690  0.4726E+01  0.4992E+02
     -0.575  0.6653E+01  0.5068E+02
     -0.460  0.7580E+01  0.5155E+02
     -0.346  0.9010E+01  0.5258E+02
     -0.231  0.8924E+01  0.5361E+02
     -0.117  0.5597E+01  0.5425E+02
     -0.002  0.5597E+01  0.5489E+02
      0.113  0.6870E+01  0.5568E+02
      0.227  0.7316E+01  0.5651E+02
      0.342  0.8171E+01  0.5745E+02
      0.456  0.7930E+01  0.5836E+02
      0.571  0.7349E+01  0.5920E+02
      0.685  0.8876E+01  0.6022E+02
      0.800  0.9092E+01  0.6126E+02
      0.915  0.5296E+01  0.6187E+02
      1.029  0.6672E+01  0.6263E+02
      1.144  0.1017E+02  0.6380E+02
      1.258  0.8006E+01  0.6471E+02
      1.373  0.7523E+01  0.6558E+02
      1.488  0.1018E+02  0.6674E+02
      1.602  0.9707E+01  0.6785E+02
      1.717  0.7695E+01  0.6874E+02
      1.831  0.7976E+01  0.6965E+02
      1.946  0.8568E+01  0.7063E+02
      2.061  0.1225E+02  0.7204E+02
      2.175  0.1381E+02  0.7362E+02
      2.290  0.9391E+01  0.7469E+02
      2.404  0.9020E+01  0.7573E+02
      2.519  0.9828E+01  0.7685E+02
      2.634  0.1066E+02  0.7808E+02
      2.748  0.1193E+02  0.7944E+02
      2.863  0.1234E+02  0.8086E+02
      2.977  0.1370E+02  0.8243E+02
      3.092  0.1243E+02  0.8385E+02
      3.206  0.1104E+02  0.8512E+02
      3.321  0.8736E+01  0.8612E+02
      3.436  0.9454E+01  0.8720E+02
      3.550  0.1384E+02  0.8879E+02
      3.665  0.1411E+02  0.9040E+02
      3.779  0.1233E+02  0.9182E+02
      3.894  0.1091E+02  0.9307E+02
      4.009  0.8428E+01  0.9403E+02
      4.123  0.1057E+02  0.9524E+02
      4.238  0.7561E+01  0.9611E+02
      4.352  0.7401E+01  0.9696E+02
      4.467  0.8574E+01  0.9794E+02
      4.582  0.1095E+02  0.9920E+02
      4.696  0.1046E+02  0.1004E+03
      4.811  0.8783E+01  0.1014E+03
      4.925  0.6352E+01  0.1021E+03
      5.040  0.6404E+01  0.1029E+03
      5.155  0.6735E+01  0.1036E+03
      5.269  0.8099E+01  0.1046E+03
      5.384  0.9122E+01  0.1056E+03
      5.498  0.8278E+01  0.1066E+03
      5.613  0.5923E+01  0.1072E+03
      5.727  0.5049E+01  0.1078E+03
      5.842  0.7342E+01  0.1087E+03
      5.957  0.7390E+01  0.1095E+03
      6.071  0.5472E+01  0.1101E+03
      6.186  0.5217E+01  0.1107E+03
      6.300  0.5437E+01  0.1114E+03
      6.415  0.4734E+01  0.1119E+03
      6.530  0.3462E+01  0.1123E+03
      6.644  0.3495E+01  0.1127E+03
      6.759  0.4300E+01  0.1132E+03
      6.873  0.5044E+01  0.1138E+03
      6.988  0.3328E+01  0.1141E+03
      7.103  0.3074E+01  0.1145E+03
      7.217  0.1805E+01  0.1147E+03
      7.332  0.2680E+01  0.1150E+03
      7.446  0.5205E+01  0.1156E+03
      7.561  0.6252E+01  0.1163E+03
      7.676  0.5786E+01  0.1170E+03
      7.790  0.3276E+01  0.1174E+03
      7.905  0.2338E+01  0.1176E+03
      8.019  0.4288E+01  0.1181E+03
      8.134  0.8201E+01  0.1191E+03
      8.248  0.8083E+01  0.1200E+03
      8.363  0.5828E+01  0.1207E+03
      8.478  0.5628E+01  0.1213E+03
      8.592  0.5124E+01  0.1219E+03
      8.707  0.5305E+01  0.1225E+03
      8.821  0.7098E+01  0.1233E+03
      8.936  0.7297E+01  0.1241E+03
      9.051  0.4298E+01  0.1246E+03
      9.165  0.4739E+01  0.1252E+03
      9.280  0.3789E+01  0.1256E+03
      9.394  0.4253E+01  0.1261E+03
      9.509  0.6216E+01  0.1268E+03
      9.624  0.5901E+01  0.1275E+03
      9.738  0.4100E+01  0.1280E+03
      9.853  0.3142E+01  0.1283E+03
      9.967  0.1573E+01  0.1285E+03
     10.082  0.1138E+01  0.1286E+03
     10.197  0.1177E+01  0.1288E+03
     10.311  0.4311E+00  0.1288E+03
     10.426  0.4419E+00  0.1289E+03
     10.540  0.2723E+01  0.1292E+03
     10.655  0.3715E+01  0.1296E+03
     10.769  0.3183E+01  0.1300E+03
     10.884  0.2286E+01  0.1302E+03
     10.999  0.6193E+00  0.1303E+03
     11.113  0.8669E+00  0.1304E+03
     11.228  0.3606E+01  0.1308E+03
     11.342  0.6282E+01  0.1315E+03
     11.457  0.5811E+01  0.1322E+03
     11.572  0.5935E+01  0.1329E+03
     11.686  0.6907E+01  0.1337E+03
     11.801  0.4752E+01  0.1342E+03
     11.915  0.4095E+01  0.1347E+03
     12.030  0.4223E+01  0.1352E+03
     12.145  0.5273E+01  0.1358E+03
     12.259  0.6641E+01  0.1365E+03
     12.374  0.6122E+01  0.1372E+03
     12.488  0.5333E+01  0.1378E+03
     12.603  0.4496E+01  0.1384E+03
     12.718  0.3387E+01  0.1387E+03
     12.832  0.3006E+01  0.1391E+03
     12.947  0.4075E+01  0.1396E+03
     13.061  0.6485E+01  0.1403E+03
     13.176  0.6089E+01  0.1410E+03
     13.290  0.4057E+01  0.1415E+03
     13.405  0.3614E+01  0.1419E+03
     13.520  0.3324E+01  0.1423E+03
     13.634  0.3737E+01  0.1427E+03
     13.749  0.4994E+01  0.1433E+03
     13.863  0.3391E+01  0.1436E+03
     13.978  0.2107E+01  0.1439E+03
     14.093  0.2820E+01  0.1442E+03
     14.207  0.3328E+01  0.1446E+03
     14.322  0.4785E+01  0.1451E+03
     14.436  0.6319E+01  0.1459E+03
     14.551  0.6721E+01  0.1466E+03
     14.666  0.3736E+01  0.1471E+03
     14.780  0.5844E+01  0.1477E+03
     14.895  0.6255E+01  0.1485E+03
     15.009  0.5276E+01  0.1491E+03
     15.124  0.5425E+01  0.1497E+03
     15.239  0.6414E+01  0.1504E+03
     15.353  0.7045E+01  0.1512E+03
     15.468  0.4394E+01  0.1517E+03
     15.582  0.3735E+01  0.1522E+03
     15.697  0.6333E+01  0.1529E+03
     15.811  0.6502E+01  0.1536E+03
     15.926  0.4986E+01  0.1542E+03
     16.041  0.4927E+01  0.1548E+03
     16.155  0.6632E+01  0.1555E+03
     16.270  0.9469E+01  0.1566E+03
     16.384  0.5586E+01  0.1572E+03
     16.499  0.4873E+01  0.1578E+03
     16.614  0.5172E+01  0.1584E+03
     16.728  0.6868E+01  0.1592E+03
     16.843  0.8394E+01  0.1601E+03
     16.957  0.7170E+01  0.1610E+03
     17.072  0.5306E+01  0.1616E+03
     17.187  0.7650E+01  0.1624E+03
     17.301  0.7381E+01  0.1633E+03
     17.416  0.5247E+01  0.1639E+03
     17.530  0.5463E+01  0.1645E+03
     17.645  0.3520E+01  0.1649E+03
     17.760  0.3041E+01  0.1653E+03
     17.874  0.2942E+01  0.1656E+03
     17.989  0.3787E+01  0.1660E+03
     18.103  0.5235E+01  0.1666E+03
     18.218  0.3437E+01  0.1670E+03
     18.332  0.2622E+01  0.1673E+03
     18.447  0.1888E+01  0.1676E+03
     18.562  0.1606E+01  0.1677E+03
     18.676  0.8825E+00  0.1678E+03
     18.791  0.4119E+00  0.1679E+03
     18.905  0.4075E+00  0.1679E+03
     19.020  0.3127E+00  0.1680E+03
     19.135  0.1086E+00  0.1680E+03
     19.249  0.1173E+00  0.1680E+03
     19.364  0.2485E-01  0.1680E+03
     19.478  0.5783E-03  0.1680E+03
     19.593  0.1254E-05  0.1680E+03
     19.708  0.2287E-09  0.1680E+03
     19.822  0.3325E-14  0.1680E+03
     19.937  0.0000E+00  0.1680E+03
     20.051  0.0000E+00  0.1680E+03
     20.166  0.0000E+00  0.1680E+03
     20.281  0.0000E+00  0.1680E+03
     20.395  0.0000E+00  0.1680E+03
     20.510  0.0000E+00  0.1680E+03
     20.624  0.0000E+00  0.1680E+03
     20.739  0.0000E+00  0.1680E+03
