 running on    6 total cores
 distrk:  each k-point on    6 cores,    1 groups
 distr:  one band on    1 cores,    6 groups
 using from now: INCAR     
 vasp.5.3.5 31Mar14 (build Nov 02 2014 15:17:37) complex                        
  
 POSCAR found :  1 types and      32 ions
 scaLAPACK will be used

 ----------------------------------------------------------------------------- 
|                                                                             |
|           W    W    AA    RRRRR   N    N  II  N    N   GGGG   !!!           |
|           W    W   A  A   R    R  NN   N  II  NN   N  G    G  !!!           |
|           W    W  A    A  R    R  N N  N  II  N N  N  G       !!!           |
|           W WW W  AAAAAA  RRRRR   N  N N  II  N  N N  G  GGG   !            |
|           WW  WW  A    A  R   R   N   NN  II  N   NN  G    G                |
|           W    W  A    A  R    R  N    N  II  N    N   GGGG   !!!           |
|                                                                             |
|      For optimal performance we recommend to set                            |
|        NCORE= 4 - approx SQRT( number of cores)                             |
|      NCORE specifies how many cores store one orbital (NPAR=cpu/NCORE).     |
|      This setting can  greatly improve the performance of VASP for DFT.     |
|      The default, NPAR=number of cores might be grossly inefficient         |
|      on modern multi-core architectures or massively parallel machines.     |
|      Do your own testing !!!!                                               |
|      Unfortunately you need to use the default for GW and RPA calculations. |
|      (for HF NCORE is supported but not extensively tested yet)             |
|                                                                             |
 ----------------------------------------------------------------------------- 


 ----------------------------------------------------------------------------- 
|                                                                             |
|  ADVICE TO THIS USER RUNNING 'VASP/VAMP'   (HEAR YOUR MASTER'S VOICE ...):  |
|                                                                             |
|      You have a (more or less) 'large supercell' and for larger cells       |
|      it might be more efficient to use real space projection operators      |
|      So try LREAL= Auto  in the INCAR   file.                               |
|      Mind: If you want to do a very accurate calculations keep the          |
|      reciprocal projection scheme          (i.e. LREAL=.FALSE.)             |
|                                                                             |
 ----------------------------------------------------------------------------- 

 LDA part: xc-table for Pade appr. of Perdew
 POSCAR, INCAR and KPOINTS ok, starting setup
 WARNING: small aliasing (wrap around) errors must be expected
 FFT: planning ...
 WAVECAR not read
 WARNING: random wavefunctions but no delay for mixing, default for NELMDL
 entering main loop
       N       E                     dE             d eps       ncg     rms          rms(c)
DAV:   1     0.556109157052E+03    0.55611E+03   -0.72743E+04 27384   0.161E+03
DAV:   2    -0.266299167309E+03   -0.82241E+03   -0.79199E+03 33852   0.310E+02
DAV:   3    -0.311343865652E+03   -0.45045E+02   -0.44587E+02 33348   0.723E+01
DAV:   4    -0.312151618556E+03   -0.80775E+00   -0.80642E+00 33960   0.105E+01
DAV:   5    -0.312175013593E+03   -0.23395E-01   -0.23385E-01 34152   0.170E+00    0.221E+01
DAV:   6    -0.298155473569E+03    0.14020E+02   -0.14448E+01 31296   0.106E+01    0.116E+01
DAV:   7    -0.293787074757E+03    0.43684E+01   -0.14709E+01 31152   0.108E+01    0.188E+00
DAV:   8    -0.293834469555E+03   -0.47395E-01   -0.33762E-01 30984   0.169E+00    0.251E-01
DAV:   9    -0.293836108052E+03   -0.16385E-02   -0.10899E-02 32916   0.369E-01    0.105E-01
DAV:  10    -0.293836941564E+03   -0.83351E-03   -0.49613E-03 37704   0.212E-01    0.648E-02
DAV:  11    -0.293836881604E+03    0.59960E-04   -0.78047E-04 32688   0.111E-01    0.428E-02
DAV:  12    -0.293836942467E+03   -0.60863E-04   -0.61416E-04 36132   0.685E-02    0.255E-02
DAV:  13    -0.293836934232E+03    0.82353E-05   -0.66981E-05 31308   0.267E-02    0.148E-02
DAV:  14    -0.293836936923E+03   -0.26906E-05   -0.11651E-04 36072   0.150E-02    0.176E-02
DAV:  15    -0.293836933281E+03    0.36421E-05   -0.99708E-06 23940   0.737E-03    0.936E-03
DAV:  16    -0.293836941261E+03   -0.79804E-05   -0.13934E-04 32784   0.156E-02    0.221E-02
DAV:  17    -0.293836934309E+03    0.69517E-05   -0.89995E-06 22740   0.790E-03    0.149E-02
DAV:  18    -0.293836932626E+03    0.16833E-05   -0.37722E-05 25644   0.825E-03    0.769E-03
DAV:  19    -0.293836932297E+03    0.32926E-06   -0.25378E-06 19536   0.353E-03
   1 F= -.29935289E+03 E0= -.29935289E+03  d E =0.000000E+00
