 running on    6 total cores
 distrk:  each k-point on    6 cores,    1 groups
 distr:  one band on    1 cores,    6 groups
 using from now: INCAR     
 vasp.5.3.5 31Mar14 (build Nov 02 2014 15:17:37) complex                        
  
 POSCAR found :  1 types and      32 ions
 scaLAPACK will be used

 ----------------------------------------------------------------------------- 
|                                                                             |
|           W    W    AA    RRRRR   N    N  II  N    N   GGGG   !!!           |
|           W    W   A  A   R    R  NN   N  II  NN   N  G    G  !!!           |
|           W    W  A    A  R    R  N N  N  II  N N  N  G       !!!           |
|           W WW W  AAAAAA  RRRRR   N  N N  II  N  N N  G  GGG   !            |
|           WW  WW  A    A  R   R   N   NN  II  N   NN  G    G                |
|           W    W  A    A  R    R  N    N  II  N    N   GGGG   !!!           |
|                                                                             |
|      For optimal performance we recommend to set                            |
|        NCORE= 4 - approx SQRT( number of cores)                             |
|      NCORE specifies how many cores store one orbital (NPAR=cpu/NCORE).     |
|      This setting can  greatly improve the performance of VASP for DFT.     |
|      The default, NPAR=number of cores might be grossly inefficient         |
|      on modern multi-core architectures or massively parallel machines.     |
|      Do your own testing !!!!                                               |
|      Unfortunately you need to use the default for GW and RPA calculations. |
|      (for HF NCORE is supported but not extensively tested yet)             |
|                                                                             |
 ----------------------------------------------------------------------------- 


 ----------------------------------------------------------------------------- 
|                                                                             |
|  ADVICE TO THIS USER RUNNING 'VASP/VAMP'   (HEAR YOUR MASTER'S VOICE ...):  |
|                                                                             |
|      You have a (more or less) 'large supercell' and for larger cells       |
|      it might be more efficient to use real space projection operators      |
|      So try LREAL= Auto  in the INCAR   file.                               |
|      Mind: If you want to do a very accurate calculations keep the          |
|      reciprocal projection scheme          (i.e. LREAL=.FALSE.)             |
|                                                                             |
 ----------------------------------------------------------------------------- 

 LDA part: xc-table for Pade appr. of Perdew
 POSCAR, INCAR and KPOINTS ok, starting setup
 WARNING: small aliasing (wrap around) errors must be expected
 FFT: planning ...
 WAVECAR not read
 WARNING: random wavefunctions but no delay for mixing, default for NELMDL
 entering main loop
       N       E                     dE             d eps       ncg     rms          rms(c)
DAV:   1     0.462581750202E+03    0.46258E+03   -0.76266E+04 27384   0.168E+03
DAV:   2    -0.250171660747E+03   -0.71275E+03   -0.68264E+03 34236   0.304E+02
DAV:   3    -0.286258612308E+03   -0.36087E+02   -0.35562E+02 33612   0.641E+01
DAV:   4    -0.286821018517E+03   -0.56241E+00   -0.56059E+00 33132   0.869E+00
DAV:   5    -0.286833423035E+03   -0.12405E-01   -0.12398E-01 33360   0.119E+00    0.219E+01
DAV:   6    -0.275512269411E+03    0.11321E+02   -0.96889E+00 31092   0.983E+00    0.116E+01
DAV:   7    -0.271896974283E+03    0.36153E+01   -0.96723E+00 29520   0.100E+01    0.156E+00
DAV:   8    -0.271923066925E+03   -0.26093E-01   -0.22379E-01 32196   0.153E+00    0.533E-01
DAV:   9    -0.271925583703E+03   -0.25168E-02   -0.55964E-03 32484   0.319E-01    0.666E-02
DAV:  10    -0.271925719243E+03   -0.13554E-03   -0.20222E-04 33696   0.503E-02    0.289E-02
DAV:  11    -0.271925763301E+03   -0.44058E-04   -0.63252E-05 31656   0.320E-02    0.486E-03
DAV:  12    -0.271925761994E+03    0.13069E-05   -0.16813E-06 21624   0.455E-03    0.139E-03
DAV:  13    -0.271925761969E+03    0.24732E-07   -0.62400E-07 19344   0.258E-03
   1 F= -.27555468E+03 E0= -.27554543E+03  d E =-.185051E-01
