<?xml version="1.0" encoding="ISO-8859-1"?>
<modeling>
 <generator>
  <i name="program" type="string">vasp </i>
  <i name="version" type="string">5.3.5  </i>
  <i name="subversion" type="string">31Mar14 (build Nov 02 2014 15:17:37) complex                          parallel </i>
  <i name="platform" type="string">ion-Intel-MKL </i>
  <i name="date" type="string">2016 08 14 </i>
  <i name="time" type="string">00:23:40 </i>
 </generator>
 <incar>
  <i type="string" name="SYSTEM">graphite</i>
  <i type="string" name="PREC">accurate</i>
  <i type="int" name="NELM">   200</i>
  <i type="int" name="IBRION">    -1</i>
  <i name="EDIFF">      0.00000100</i>
  <i name="EDIFFG">      0.00100000</i>
  <i type="int" name="NSW">     0</i>
  <i type="int" name="ISIF">     2</i>
  <i name="ENCUT">    600.00000000</i>
  <i type="int" name="ISMEAR">     0</i>
  <i name="SIGMA">      0.10000000</i>
  <i type="logical" name="LWAVE"> F  </i>
  <i type="logical" name="LCHARG"> F  </i>
  <i type="int" name="NELM">   200</i>
  <i type="string" name="GGA">PE</i>
 </incar>
 <kpoints>
  <generation param="Gamma">
   <v type="int" name="divisions">       9        9        4 </v>
   <v name="usershift">      0.00000000       0.00000000       0.00000000 </v>
   <v name="genvec1">      0.11111111       0.00000000       0.00000000 </v>
   <v name="genvec2">      0.00000000       0.11111111       0.00000000 </v>
   <v name="genvec3">      0.00000000       0.00000000       0.25000000 </v>
   <v name="shift">      0.00000000       0.00000000       0.00000000 </v>
  </generation>
  <varray name="kpointlist" >
   <v>       0.00000000       0.00000000       0.00000000 </v>
   <v>       0.11111111       0.00000000       0.00000000 </v>
   <v>       0.22222222       0.00000000       0.00000000 </v>
   <v>       0.33333333       0.00000000       0.00000000 </v>
   <v>       0.44444444       0.00000000       0.00000000 </v>
   <v>      -0.00000000       0.11111111       0.00000000 </v>
   <v>       0.11111111       0.11111111       0.00000000 </v>
   <v>       0.22222222       0.11111111       0.00000000 </v>
   <v>       0.33333333       0.11111111       0.00000000 </v>
   <v>       0.44444444       0.11111111       0.00000000 </v>
   <v>      -0.44444444       0.11111111       0.00000000 </v>
   <v>      -0.33333333       0.11111111       0.00000000 </v>
   <v>      -0.22222222       0.11111111       0.00000000 </v>
   <v>      -0.11111111       0.11111111       0.00000000 </v>
   <v>      -0.00000000       0.22222222       0.00000000 </v>
   <v>       0.11111111       0.22222222       0.00000000 </v>
   <v>       0.22222222       0.22222222       0.00000000 </v>
   <v>       0.33333333       0.22222222       0.00000000 </v>
   <v>       0.44444444       0.22222222       0.00000000 </v>
   <v>      -0.44444444       0.22222222       0.00000000 </v>
   <v>      -0.33333333       0.22222222       0.00000000 </v>
   <v>      -0.22222222       0.22222222       0.00000000 </v>
   <v>      -0.11111111       0.22222222       0.00000000 </v>
   <v>      -0.00000000       0.33333333       0.00000000 </v>
   <v>       0.11111111       0.33333333       0.00000000 </v>
   <v>       0.22222222       0.33333333       0.00000000 </v>
   <v>       0.33333333       0.33333333       0.00000000 </v>
   <v>       0.44444444       0.33333333       0.00000000 </v>
   <v>      -0.44444444       0.33333333       0.00000000 </v>
   <v>      -0.33333333       0.33333333       0.00000000 </v>
   <v>      -0.22222222       0.33333333       0.00000000 </v>
   <v>      -0.11111111       0.33333333       0.00000000 </v>
   <v>      -0.00000000       0.44444444       0.00000000 </v>
   <v>       0.11111111       0.44444444       0.00000000 </v>
   <v>       0.22222222       0.44444444       0.00000000 </v>
   <v>       0.33333333       0.44444444       0.00000000 </v>
   <v>       0.44444444       0.44444444       0.00000000 </v>
   <v>      -0.44444444       0.44444444       0.00000000 </v>
   <v>      -0.33333333       0.44444444       0.00000000 </v>
   <v>      -0.22222222       0.44444444       0.00000000 </v>
   <v>      -0.11111111       0.44444444       0.00000000 </v>
   <v>       0.00000000       0.00000000       0.25000000 </v>
   <v>       0.11111111       0.00000000       0.25000000 </v>
   <v>       0.22222222       0.00000000       0.25000000 </v>
   <v>       0.33333333       0.00000000       0.25000000 </v>
   <v>       0.44444444       0.00000000       0.25000000 </v>
   <v>      -0.44444444      -0.00000000       0.25000000 </v>
   <v>      -0.33333333      -0.00000000       0.25000000 </v>
   <v>      -0.22222222      -0.00000000       0.25000000 </v>
   <v>      -0.11111111      -0.00000000       0.25000000 </v>
   <v>      -0.00000000       0.11111111       0.25000000 </v>
   <v>       0.11111111       0.11111111       0.25000000 </v>
   <v>       0.22222222       0.11111111       0.25000000 </v>
   <v>       0.33333333       0.11111111       0.25000000 </v>
   <v>       0.44444444       0.11111111       0.25000000 </v>
   <v>      -0.44444444       0.11111111       0.25000000 </v>
   <v>      -0.33333333       0.11111111       0.25000000 </v>
   <v>      -0.22222222       0.11111111       0.25000000 </v>
   <v>      -0.11111111       0.11111111       0.25000000 </v>
   <v>      -0.00000000       0.22222222       0.25000000 </v>
   <v>       0.11111111       0.22222222       0.25000000 </v>
   <v>       0.22222222       0.22222222       0.25000000 </v>
   <v>       0.33333333       0.22222222       0.25000000 </v>
   <v>       0.44444444       0.22222222       0.25000000 </v>
   <v>      -0.44444444       0.22222222       0.25000000 </v>
   <v>      -0.33333333       0.22222222       0.25000000 </v>
   <v>      -0.22222222       0.22222222       0.25000000 </v>
   <v>      -0.11111111       0.22222222       0.25000000 </v>
   <v>      -0.00000000       0.33333333       0.25000000 </v>
   <v>       0.11111111       0.33333333       0.25000000 </v>
   <v>       0.22222222       0.33333333       0.25000000 </v>
   <v>       0.33333333       0.33333333       0.25000000 </v>
   <v>       0.44444444       0.33333333       0.25000000 </v>
   <v>      -0.44444444       0.33333333       0.25000000 </v>
   <v>      -0.33333333       0.33333333       0.25000000 </v>
   <v>      -0.22222222       0.33333333       0.25000000 </v>
   <v>      -0.11111111       0.33333333       0.25000000 </v>
   <v>      -0.00000000       0.44444444       0.25000000 </v>
   <v>       0.11111111       0.44444444       0.25000000 </v>
   <v>       0.22222222       0.44444444       0.25000000 </v>
   <v>       0.33333333       0.44444444       0.25000000 </v>
   <v>       0.44444444       0.44444444       0.25000000 </v>
   <v>      -0.44444444       0.44444444       0.25000000 </v>
   <v>      -0.33333333       0.44444444       0.25000000 </v>
   <v>      -0.22222222       0.44444444       0.25000000 </v>
   <v>      -0.11111111       0.44444444       0.25000000 </v>
   <v>       0.00000000      -0.44444444       0.25000000 </v>
   <v>       0.11111111      -0.44444444       0.25000000 </v>
   <v>       0.22222222      -0.44444444       0.25000000 </v>
   <v>       0.33333333      -0.44444444       0.25000000 </v>
   <v>       0.44444444      -0.44444444       0.25000000 </v>
   <v>      -0.44444444      -0.44444444       0.25000000 </v>
   <v>      -0.33333333      -0.44444444       0.25000000 </v>
   <v>      -0.22222222      -0.44444444       0.25000000 </v>
   <v>      -0.11111111      -0.44444444       0.25000000 </v>
   <v>       0.00000000      -0.33333333       0.25000000 </v>
   <v>       0.11111111      -0.33333333       0.25000000 </v>
   <v>       0.22222222      -0.33333333       0.25000000 </v>
   <v>       0.33333333      -0.33333333       0.25000000 </v>
   <v>       0.44444444      -0.33333333       0.25000000 </v>
   <v>      -0.44444444      -0.33333333       0.25000000 </v>
   <v>      -0.33333333      -0.33333333       0.25000000 </v>
   <v>      -0.22222222      -0.33333333       0.25000000 </v>
   <v>      -0.11111111      -0.33333333       0.25000000 </v>
   <v>       0.00000000      -0.22222222       0.25000000 </v>
   <v>       0.11111111      -0.22222222       0.25000000 </v>
   <v>       0.22222222      -0.22222222       0.25000000 </v>
   <v>       0.33333333      -0.22222222       0.25000000 </v>
   <v>       0.44444444      -0.22222222       0.25000000 </v>
   <v>      -0.44444444      -0.22222222       0.25000000 </v>
   <v>      -0.33333333      -0.22222222       0.25000000 </v>
   <v>      -0.22222222      -0.22222222       0.25000000 </v>
   <v>      -0.11111111      -0.22222222       0.25000000 </v>
   <v>       0.00000000      -0.11111111       0.25000000 </v>
   <v>       0.11111111      -0.11111111       0.25000000 </v>
   <v>       0.22222222      -0.11111111       0.25000000 </v>
   <v>       0.33333333      -0.11111111       0.25000000 </v>
   <v>       0.44444444      -0.11111111       0.25000000 </v>
   <v>      -0.44444444      -0.11111111       0.25000000 </v>
   <v>      -0.33333333      -0.11111111       0.25000000 </v>
   <v>      -0.22222222      -0.11111111       0.25000000 </v>
   <v>      -0.11111111      -0.11111111       0.25000000 </v>
   <v>       0.00000000       0.00000000       0.50000000 </v>
   <v>       0.11111111       0.00000000       0.50000000 </v>
   <v>       0.22222222       0.00000000       0.50000000 </v>
   <v>       0.33333333       0.00000000       0.50000000 </v>
   <v>       0.44444444       0.00000000       0.50000000 </v>
   <v>      -0.00000000       0.11111111       0.50000000 </v>
   <v>       0.11111111       0.11111111       0.50000000 </v>
   <v>       0.22222222       0.11111111       0.50000000 </v>
   <v>       0.33333333       0.11111111       0.50000000 </v>
   <v>       0.44444444       0.11111111       0.50000000 </v>
   <v>      -0.44444444       0.11111111       0.50000000 </v>
   <v>      -0.33333333       0.11111111       0.50000000 </v>
   <v>      -0.22222222       0.11111111       0.50000000 </v>
   <v>      -0.11111111       0.11111111       0.50000000 </v>
   <v>      -0.00000000       0.22222222       0.50000000 </v>
   <v>       0.11111111       0.22222222       0.50000000 </v>
   <v>       0.22222222       0.22222222       0.50000000 </v>
   <v>       0.33333333       0.22222222       0.50000000 </v>
   <v>       0.44444444       0.22222222       0.50000000 </v>
   <v>      -0.44444444       0.22222222       0.50000000 </v>
   <v>      -0.33333333       0.22222222       0.50000000 </v>
   <v>      -0.22222222       0.22222222       0.50000000 </v>
   <v>      -0.11111111       0.22222222       0.50000000 </v>
   <v>      -0.00000000       0.33333333       0.50000000 </v>
   <v>       0.11111111       0.33333333       0.50000000 </v>
   <v>       0.22222222       0.33333333       0.50000000 </v>
   <v>       0.33333333       0.33333333       0.50000000 </v>
   <v>       0.44444444       0.33333333       0.50000000 </v>
   <v>      -0.44444444       0.33333333       0.50000000 </v>
   <v>      -0.33333333       0.33333333       0.50000000 </v>
   <v>      -0.22222222       0.33333333       0.50000000 </v>
   <v>      -0.11111111       0.33333333       0.50000000 </v>
   <v>      -0.00000000       0.44444444       0.50000000 </v>
   <v>       0.11111111       0.44444444       0.50000000 </v>
   <v>       0.22222222       0.44444444       0.50000000 </v>
   <v>       0.33333333       0.44444444       0.50000000 </v>
   <v>       0.44444444       0.44444444       0.50000000 </v>
   <v>      -0.44444444       0.44444444       0.50000000 </v>
   <v>      -0.33333333       0.44444444       0.50000000 </v>
   <v>      -0.22222222       0.44444444       0.50000000 </v>
   <v>      -0.11111111       0.44444444       0.50000000 </v>
  </varray>
  <varray name="weights" >
   <v>       0.00308642 </v>
   <v>       0.00617284 </v>
   <v>       0.00617284 </v>
   <v>       0.00617284 </v>
   <v>       0.00617284 </v>
   <v>       0.00617284 </v>
   <v>       0.00617284 </v>
   <v>       0.00617284 </v>
   <v>       0.00617284 </v>
   <v>       0.00617284 </v>
   <v>       0.00617284 </v>
   <v>       0.00617284 </v>
   <v>       0.00617284 </v>
   <v>       0.00617284 </v>
   <v>       0.00617284 </v>
   <v>       0.00617284 </v>
   <v>       0.00617284 </v>
   <v>       0.00617284 </v>
   <v>       0.00617284 </v>
   <v>       0.00617284 </v>
   <v>       0.00617284 </v>
   <v>       0.00617284 </v>
   <v>       0.00617284 </v>
   <v>       0.00617284 </v>
   <v>       0.00617284 </v>
   <v>       0.00617284 </v>
   <v>       0.00617284 </v>
   <v>       0.00617284 </v>
   <v>       0.00617284 </v>
   <v>       0.00617284 </v>
   <v>       0.00617284 </v>
   <v>       0.00617284 </v>
   <v>       0.00617284 </v>
   <v>       0.00617284 </v>
   <v>       0.00617284 </v>
   <v>       0.00617284 </v>
   <v>       0.00617284 </v>
   <v>       0.00617284 </v>
   <v>       0.00617284 </v>
   <v>       0.00617284 </v>
   <v>       0.00617284 </v>
   <v>       0.00617284 </v>
   <v>       0.00617284 </v>
   <v>       0.00617284 </v>
   <v>       0.00617284 </v>
   <v>       0.00617284 </v>
   <v>       0.00617284 </v>
   <v>       0.00617284 </v>
   <v>       0.00617284 </v>
   <v>       0.00617284 </v>
   <v>       0.00617284 </v>
   <v>       0.00617284 </v>
   <v>       0.00617284 </v>
   <v>       0.00617284 </v>
   <v>       0.00617284 </v>
   <v>       0.00617284 </v>
   <v>       0.00617284 </v>
   <v>       0.00617284 </v>
   <v>       0.00617284 </v>
   <v>       0.00617284 </v>
   <v>       0.00617284 </v>
   <v>       0.00617284 </v>
   <v>       0.00617284 </v>
   <v>       0.00617284 </v>
   <v>       0.00617284 </v>
   <v>       0.00617284 </v>
   <v>       0.00617284 </v>
   <v>       0.00617284 </v>
   <v>       0.00617284 </v>
   <v>       0.00617284 </v>
   <v>       0.00617284 </v>
   <v>       0.00617284 </v>
   <v>       0.00617284 </v>
   <v>       0.00617284 </v>
   <v>       0.00617284 </v>
   <v>       0.00617284 </v>
   <v>       0.00617284 </v>
   <v>       0.00617284 </v>
   <v>       0.00617284 </v>
   <v>       0.00617284 </v>
   <v>       0.00617284 </v>
   <v>       0.00617284 </v>
   <v>       0.00617284 </v>
   <v>       0.00617284 </v>
   <v>       0.00617284 </v>
   <v>       0.00617284 </v>
   <v>       0.00617284 </v>
   <v>       0.00617284 </v>
   <v>       0.00617284 </v>
   <v>       0.00617284 </v>
   <v>       0.00617284 </v>
   <v>       0.00617284 </v>
   <v>       0.00617284 </v>
   <v>       0.00617284 </v>
   <v>       0.00617284 </v>
   <v>       0.00617284 </v>
   <v>       0.00617284 </v>
   <v>       0.00617284 </v>
   <v>       0.00617284 </v>
   <v>       0.00617284 </v>
   <v>       0.00617284 </v>
   <v>       0.00617284 </v>
   <v>       0.00617284 </v>
   <v>       0.00617284 </v>
   <v>       0.00617284 </v>
   <v>       0.00617284 </v>
   <v>       0.00617284 </v>
   <v>       0.00617284 </v>
   <v>       0.00617284 </v>
   <v>       0.00617284 </v>
   <v>       0.00617284 </v>
   <v>       0.00617284 </v>
   <v>       0.00617284 </v>
   <v>       0.00617284 </v>
   <v>       0.00617284 </v>
   <v>       0.00617284 </v>
   <v>       0.00617284 </v>
   <v>       0.00617284 </v>
   <v>       0.00617284 </v>
   <v>       0.00617284 </v>
   <v>       0.00617284 </v>
   <v>       0.00617284 </v>
   <v>       0.00308642 </v>
   <v>       0.00617284 </v>
   <v>       0.00617284 </v>
   <v>       0.00617284 </v>
   <v>       0.00617284 </v>
   <v>       0.00617284 </v>
   <v>       0.00617284 </v>
   <v>       0.00617284 </v>
   <v>       0.00617284 </v>
   <v>       0.00617284 </v>
   <v>       0.00617284 </v>
   <v>       0.00617284 </v>
   <v>       0.00617284 </v>
   <v>       0.00617284 </v>
   <v>       0.00617284 </v>
   <v>       0.00617284 </v>
   <v>       0.00617284 </v>
   <v>       0.00617284 </v>
   <v>       0.00617284 </v>
   <v>       0.00617284 </v>
   <v>       0.00617284 </v>
   <v>       0.00617284 </v>
   <v>       0.00617284 </v>
   <v>       0.00617284 </v>
   <v>       0.00617284 </v>
   <v>       0.00617284 </v>
   <v>       0.00617284 </v>
   <v>       0.00617284 </v>
   <v>       0.00617284 </v>
   <v>       0.00617284 </v>
   <v>       0.00617284 </v>
   <v>       0.00617284 </v>
   <v>       0.00617284 </v>
   <v>       0.00617284 </v>
   <v>       0.00617284 </v>
   <v>       0.00617284 </v>
   <v>       0.00617284 </v>
   <v>       0.00617284 </v>
   <v>       0.00617284 </v>
   <v>       0.00617284 </v>
   <v>       0.00617284 </v>
  </varray>
 </kpoints>
 <parameters>
  <separator name="general" >
   <i type="string" name="SYSTEM">graphite</i>
   <i type="logical" name="LCOMPAT"> F  </i>
  </separator>
  <separator name="electronic" >
   <i type="string" name="PREC">accura</i>
   <i name="ENMAX">    600.00000000</i>
   <i name="ENAUG">    644.87300000</i>
   <i name="EDIFF">      0.00000100</i>
   <i type="int" name="IALGO">    38</i>
   <i type="int" name="IWAVPR">    10</i>
   <i type="int" name="NBANDS">    84</i>
   <i name="NELECT">    128.00000000</i>
   <i type="int" name="TURBO">     0</i>
   <i type="int" name="IRESTART">     0</i>
   <i type="int" name="NREBOOT">     0</i>
   <i type="int" name="NMIN">     0</i>
   <i name="EREF">      0.00000000</i>
   <separator name="electronic smearing" >
    <i type="int" name="ISMEAR">     0</i>
    <i name="SIGMA">      0.10000000</i>
    <i name="KSPACING">      0.50000000</i>
    <i type="logical" name="KGAMMA"> T  </i>
   </separator>
   <separator name="electronic projectors" >
    <i type="logical" name="LREAL"> F  </i>
    <v name="ROPT">      0.00000000</v>
    <i type="int" name="LMAXPAW">  -100</i>
    <i type="int" name="LMAXMIX">     2</i>
    <i type="logical" name="NLSPLINE"> F  </i>
   </separator>
   <separator name="electronic startup" >
    <i type="int" name="ISTART">     0</i>
    <i type="int" name="ICHARG">     2</i>
    <i type="int" name="INIWAV">     1</i>
   </separator>
   <separator name="electronic spin" >
    <i type="int" name="ISPIN">     1</i>
    <i type="logical" name="LNONCOLLINEAR"> F  </i>
    <v name="MAGMOM">      1.00000000      1.00000000      1.00000000      1.00000000      1.00000000      1.00000000      1.00000000      1.00000000      1.00000000      1.00000000      1.00000000      1.00000000      1.00000000      1.00000000      1.00000000      1.00000000      1.00000000      1.00000000      1.00000000      1.00000000
      1.00000000      1.00000000      1.00000000      1.00000000      1.00000000      1.00000000      1.00000000      1.00000000      1.00000000      1.00000000      1.00000000      1.00000000</v>
    <i name="NUPDOWN">     -1.00000000</i>
    <i type="logical" name="LSORBIT"> F  </i>
    <v name="SAXIS">      0.00000000      0.00000000      1.00000000</v>
    <i type="logical" name="LSPIRAL"> F  </i>
    <v name="QSPIRAL">      0.00000000      0.00000000      0.00000000</v>
    <i type="logical" name="LZEROZ"> F  </i>
   </separator>
   <separator name="electronic exchange-correlation" >
    <i type="logical" name="LASPH"> F  </i>
    <i type="logical" name="LMETAGGA"> F  </i>
   </separator>
   <separator name="electronic convergence" >
    <i type="int" name="NELM">   200</i>
    <i type="int" name="NELMDL">     0</i>
    <i type="int" name="NELMIN">     2</i>
    <i name="ENINI">    600.00000000</i>
    <separator name="electronic convergence detail" >
     <i type="logical" name="LDIAG"> T  </i>
     <i type="logical" name="LSUBROT"> F  </i>
     <i name="WEIMIN">      0.00000000</i>
     <i name="EBREAK">      0.00000000</i>
     <i name="DEPER">      0.30000000</i>
     <i type="int" name="NRMM">     4</i>
     <i name="TIME">      0.40000000</i>
    </separator>
   </separator>
   <separator name="electronic mixer" >
    <i name="AMIX">      0.40000000</i>
    <i name="BMIX">      1.00000000</i>
    <i name="AMIN">      0.10000000</i>
    <i name="AMIX_MAG">      1.60000000</i>
    <i name="BMIX_MAG">      1.00000000</i>
    <separator name="electronic mixer details" >
     <i type="int" name="IMIX">     4</i>
     <i type="int" name="MAXMIX">   -45</i>
     <i name="WC">    100.00000000</i>
     <i type="int" name="INIMIX">     1</i>
     <i type="int" name="MIXPRE">     1</i>
     <i type="int" name="MREMOVE">     5</i>
    </separator>
   </separator>
   <separator name="electronic dipolcorrection" >
    <i type="logical" name="LDIPOL"> F  </i>
    <i type="logical" name="LMONO"> F  </i>
    <i type="int" name="IDIPOL">     0</i>
    <i name="EPSILON">      1.00000000</i>
    <v name="DIPOL">   -100.00000000   -100.00000000   -100.00000000</v>
    <i name="EFIELD">      0.00000000</i>
   </separator>
  </separator>
  <separator name="grids" >
   <i type="int" name="NGX">    40</i>
   <i type="int" name="NGY">    40</i>
   <i type="int" name="NGZ">    96</i>
   <i type="int" name="NGXF">    80</i>
   <i type="int" name="NGYF">    80</i>
   <i type="int" name="NGZF">   192</i>
   <i type="logical" name="ADDGRID"> F  </i>
  </separator>
  <separator name="ionic" >
   <i type="int" name="NSW">     0</i>
   <i type="int" name="IBRION">    -1</i>
   <i type="int" name="ISIF">     2</i>
   <i name="PSTRESS">      0.00000000</i>
   <i name="EDIFFG">      0.00100000</i>
   <i type="int" name="NFREE">     0</i>
   <i name="POTIM">      0.50000000</i>
   <i name="SMASS">     -3.00000000</i>
   <i name="SCALEE">      1.00000000</i>
  </separator>
  <separator name="ionic md" >
   <i name="TEBEG">      0.00010000</i>
   <i name="TEEND">      0.00010000</i>
   <i type="int" name="NBLOCK">     1</i>
   <i type="int" name="KBLOCK">     1</i>
   <i type="int" name="NPACO">   256</i>
   <i name="APACO">     16.00000000</i>
  </separator>
  <separator name="symmetry" >
   <i type="int" name="ISYM">     2</i>
   <i name="SYMPREC">      0.00001000</i>
  </separator>
  <separator name="dos" >
   <i type="logical" name="LORBIT"> F  </i>
   <v name="RWIGS">     -1.00000000</v>
   <i type="int" name="NEDOS">   301</i>
   <i name="EMIN">     10.00000000</i>
   <i name="EMAX">    -10.00000000</i>
   <i name="EFERMI">      0.00000000</i>
  </separator>
  <separator name="writing" >
   <i type="int" name="NWRITE">     2</i>
   <i type="logical" name="LWAVE"> F  </i>
   <i type="logical" name="LCHARG"> F  </i>
   <i type="logical" name="LPARD"> F  </i>
   <i type="logical" name="LVTOT"> F  </i>
   <i type="logical" name="LVHAR"> F  </i>
   <i type="logical" name="LELF"> F  </i>
   <i type="logical" name="LOPTICS"> F  </i>
   <v name="STM">      0.00000000      0.00000000      0.00000000      0.00000000      0.00000000      0.00000000      0.00000000</v>
  </separator>
  <separator name="performance" >
   <i type="int" name="NPAR">     6</i>
   <i type="int" name="NSIM">     4</i>
   <i type="int" name="NBLK">    -1</i>
   <i type="logical" name="LPLANE"> T  </i>
   <i type="logical" name="LSCALAPACK"> T  </i>
   <i type="logical" name="LSCAAWARE"> F  </i>
   <i type="logical" name="LSCALU"> F  </i>
   <i type="logical" name="LASYNC"> F  </i>
   <i type="logical" name="LORBITALREAL"> F  </i>
  </separator>
  <separator name="miscellaneous" >
   <i type="int" name="IDIOT">     3</i>
   <i type="logical" name="LMUSIC"> F  </i>
   <v name="POMASS">     12.01100000</v>
   <v name="DARWINR">      0.00000000</v>
   <v name="DARWINV">      1.00000000</v>
   <i type="logical" name="LCORR"> T  </i>
  </separator>
  <i type="logical" name="GGA_COMPAT"> T  </i>
  <i type="logical" name="LBERRY"> F  </i>
  <i type="int" name="ICORELEVEL">     0</i>
  <i type="logical" name="LDAU"> F  </i>
  <i type="int" name="I_CONSTRAINED_M">     0</i>
  <separator name="electronic exchange-correlation" >
   <i type="string" name="GGA">PE</i>
   <i type="int" name="VOSKOWN">     0</i>
   <i type="logical" name="LHFCALC"> F  </i>
   <i type="string" name="PRECFOCK"></i>
   <i type="logical" name="LSYMGRAD"> F  </i>
   <i type="logical" name="LHFONE"> F  </i>
   <i type="logical" name="LRHFCALC"> F  </i>
   <i type="logical" name="LTHOMAS"> F  </i>
   <i type="logical" name="LMODELHF"> F  </i>
   <i name="ENCUT4O">     -1.00000000</i>
   <i type="int" name="EXXOEP">     0</i>
   <i type="int" name="FOURORBIT">     0</i>
   <i name="AEXX">      0.00000000</i>
   <i name="HFALPHA">      0.00000000</i>
   <i name="MCALPHA">      0.00000000</i>
   <i name="ALDAX">      1.00000000</i>
   <i name="AGGAX">      1.00000000</i>
   <i name="ALDAC">      1.00000000</i>
   <i name="AGGAC">      1.00000000</i>
   <i type="int" name="NKREDX">     1</i>
   <i type="int" name="NKREDY">     1</i>
   <i type="int" name="NKREDZ">     1</i>
   <i type="logical" name="SHIFTRED"> F  </i>
   <i type="logical" name="ODDONLY"> F  </i>
   <i type="logical" name="EVENONLY"> F  </i>
   <i type="int" name="LMAXFOCK">     0</i>
   <i type="int" name="NMAXFOCKAE">     0</i>
   <i type="logical" name="LFOCKAEDFT"> F  </i>
   <i name="HFSCREEN">      0.00000000</i>
   <i name="HFSCREENC">      0.00000000</i>
   <i type="int" name="NBANDSGWLOW">     0</i>
  </separator>
  <separator name="vdW DFT" >
   <i type="logical" name="LUSE_VDW"> F  </i>
   <i name="Zab_VDW">     -0.84910000</i>
   <i name="PARAM1">      0.12340000</i>
   <i name="PARAM2">      1.00000000</i>
   <i name="PARAM3">      0.00000000</i>
  </separator>
  <separator name="model GW" >
   <i type="int" name="MODEL_GW">     0</i>
   <i name="MODEL_EPS0">      4.52013559</i>
   <i name="MODEL_ALPHA">      1.00000000</i>
  </separator>
  <separator name="linear response parameters" >
   <i type="logical" name="LEPSILON"> F  </i>
   <i type="logical" name="LRPA"> F  </i>
   <i type="logical" name="LNABLA"> F  </i>
   <i type="logical" name="LVEL"> F  </i>
   <i type="int" name="KINTER">     0</i>
   <i name="CSHIFT">      0.10000000</i>
   <i name="OMEGAMAX">     -1.00000000</i>
   <i name="DEG_THRESHOLD">      0.00200000</i>
  </separator>
  <separator name="orbital magnetization" >
   <i type="logical" name="NUCIND"> F  </i>
   <v name="MAGPOS">      0.00000000      0.00000000      0.00000000</v>
   <i type="logical" name="LNICSALL"> T  </i>
   <i type="logical" name="ORBITALMAG"> F  </i>
   <i type="logical" name="LMAGBLOCH"> F  </i>
   <i type="logical" name="LCHIMAG"> F  </i>
   <i type="logical" name="LGAUGE"> T  </i>
   <i type="int" name="MAGATOM">     0</i>
   <v name="MAGDIPOL">      0.00000000      0.00000000      0.00000000</v>
   <v name="AVECCONST">      0.00000000      0.00000000      0.00000000</v>
  </separator>
  <separator name="response functions" >
   <i type="logical" name="LADDER"> F  </i>
   <i type="logical" name="LFXC"> F  </i>
   <i type="logical" name="LHARTREE"> T  </i>
   <i type="int" name="IBSE">     0</i>
   <i type="logical" name="LTCTE"> F  </i>
   <i type="logical" name="LTETE"> F  </i>
   <i type="logical" name="LTRIPLET"> F  </i>
   <i type="logical" name="LFXCEPS"> F  </i>
   <i type="logical" name="LFXHEG"> F  </i>
   <i type="logical" name="L2ORDER"> F  </i>
   <i type="logical" name="LUSEW"> F  </i>
   <i name="ENCUTGW">     -2.00000000</i>
   <i name="ENCUTGWSOFT">     -2.00000000</i>
   <i name="ENCUTLF">     -1.00000000</i>
   <i type="int" name="LMAXMP2">    -1</i>
   <i name="SCISSOR">      0.00000000</i>
   <i type="int" name="NOMEGA">     0</i>
   <i type="int" name="NOMEGAR">     0</i>
   <i type="int" name="NBANDSGW">    -1</i>
   <i type="int" name="NBANDSO">    -1</i>
   <i type="int" name="NBANDSV">    -1</i>
   <i type="int" name="NELM">   200</i>
   <i type="int" name="DIM">     3</i>
   <i type="int" name="ANTIRES">     0</i>
   <i name="OMEGAMAX">    -30.00000000</i>
   <i name="OMEGAMIN">    -30.00000000</i>
   <i name="OMEGATL">   -200.00000000</i>
   <i type="int" name="OMEGAGRID">     0</i>
   <i name="CSHIFT">     -0.10000000</i>
   <i type="logical" name="SELFENERGY"> F  </i>
   <i type="logical" name="LSPECTRAL"> F  </i>
   <i type="logical" name="ODDONLYGW"> F  </i>
   <i type="logical" name="EVENONLYGW"> F  </i>
   <i type="int" name="NKREDLFX">     1</i>
   <i type="int" name="NKREDLFY">     1</i>
   <i type="int" name="NKREDLFZ">     1</i>
   <i type="int" name="MAXMEM">  1800</i>
   <i type="int" name="TELESCOPE">     0</i>
   <i type="int" name="TAUPAR">     1</i>
  </separator>
  <separator name="External order field" >
   <i name="OFIELD_KAPPA">      0.00000000</i>
   <v name="OFIELD_K">      0.00000000      0.00000000      0.00000000</v>
   <i name="OFIELD_Q6_NEAR">      0.00000000</i>
   <i name="OFIELD_Q6_FAR">      0.00000000</i>
   <i name="OFIELD_A">      0.00000000</i>
  </separator>
 </parameters>
 <atominfo>
  <atoms>      32 </atoms>
  <types>       1 </types>
  <array name="atoms" >
   <dimension dim="1">ion</dimension>
   <field type="string">element</field>
   <field type="int">atomtype</field>
   <set>
    <rc><c>C </c><c>   1</c></rc>
    <rc><c>C </c><c>   1</c></rc>
    <rc><c>C </c><c>   1</c></rc>
    <rc><c>C </c><c>   1</c></rc>
    <rc><c>C </c><c>   1</c></rc>
    <rc><c>C </c><c>   1</c></rc>
    <rc><c>C </c><c>   1</c></rc>
    <rc><c>C </c><c>   1</c></rc>
    <rc><c>C </c><c>   1</c></rc>
    <rc><c>C </c><c>   1</c></rc>
    <rc><c>C </c><c>   1</c></rc>
    <rc><c>C </c><c>   1</c></rc>
    <rc><c>C </c><c>   1</c></rc>
    <rc><c>C </c><c>   1</c></rc>
    <rc><c>C </c><c>   1</c></rc>
    <rc><c>C </c><c>   1</c></rc>
    <rc><c>C </c><c>   1</c></rc>
    <rc><c>C </c><c>   1</c></rc>
    <rc><c>C </c><c>   1</c></rc>
    <rc><c>C </c><c>   1</c></rc>
    <rc><c>C </c><c>   1</c></rc>
    <rc><c>C </c><c>   1</c></rc>
    <rc><c>C </c><c>   1</c></rc>
    <rc><c>C </c><c>   1</c></rc>
    <rc><c>C </c><c>   1</c></rc>
    <rc><c>C </c><c>   1</c></rc>
    <rc><c>C </c><c>   1</c></rc>
    <rc><c>C </c><c>   1</c></rc>
    <rc><c>C </c><c>   1</c></rc>
    <rc><c>C </c><c>   1</c></rc>
    <rc><c>C </c><c>   1</c></rc>
    <rc><c>C </c><c>   1</c></rc>
   </set>
  </array>
  <array name="atomtypes" >
   <dimension dim="1">type</dimension>
   <field type="int">atomspertype</field>
   <field type="string">element</field>
   <field>mass</field>
   <field>valence</field>
   <field type="string">pseudopotential</field>
   <set>
    <rc><c>  32</c><c>C </c><c>     12.01100000</c><c>      4.00000000</c><c> PAW_PBE C 08Apr2002                    </c></rc>
   </set>
  </array>
 </atominfo>
 <structure name="initialpos" >
  <crystal>
   <varray name="basis" >
    <v>       4.93431088      -0.00022240       0.00000000 </v>
    <v>      -2.46734805       4.27312738       0.00000000 </v>
    <v>       0.00000000       0.00000000      11.43376193 </v>
   </varray>
   <i name="volume">    241.07389787 </i>
   <varray name="rec_basis" >
    <v>       0.20266782       0.11702250       0.00000000 </v>
    <v>       0.00001055       0.23402673       0.00000000 </v>
    <v>       0.00000000       0.00000000       0.08746028 </v>
   </varray>
  </crystal>
  <varray name="positions" >
   <v>       0.49999985       0.00000017       0.12500000 </v>
   <v>       0.99999985       0.00000017       0.12500000 </v>
   <v>       0.49999985       0.50000017       0.12500000 </v>
   <v>       0.99999985       0.50000017       0.12500000 </v>
   <v>       0.49999985       0.00000017       0.62500000 </v>
   <v>       0.99999985       0.00000017       0.62500000 </v>
   <v>       0.49999985       0.50000017       0.62500000 </v>
   <v>       0.99999985       0.50000017       0.62500000 </v>
   <v>       0.00000017       0.49999985       0.37500000 </v>
   <v>       0.50000017       0.49999985       0.37500000 </v>
   <v>       0.00000017       0.99999985       0.37500000 </v>
   <v>       0.50000017       0.99999985       0.37500000 </v>
   <v>       0.00000017       0.49999985       0.87500000 </v>
   <v>       0.50000017       0.49999985       0.87500000 </v>
   <v>       0.00000017       0.99999985       0.87500000 </v>
   <v>       0.50000017       0.99999985       0.87500000 </v>
   <v>       0.16745248       0.33335053       0.12580302 </v>
   <v>       0.66664946       0.33335053       0.12500000 </v>
   <v>       0.16664946       0.83335053       0.12500000 </v>
   <v>       0.66664946       0.83335053       0.12500000 </v>
   <v>       0.16664946       0.33335053       0.62500000 </v>
   <v>       0.66664946       0.33335053       0.62500000 </v>
   <v>       0.16664946       0.83335053       0.62500000 </v>
   <v>       0.66664946       0.83335053       0.62500000 </v>
   <v>       0.33335053       0.16664946       0.37500000 </v>
   <v>       0.83335053       0.16664946       0.37500000 </v>
   <v>       0.33335053       0.66664946       0.37500000 </v>
   <v>       0.83335053       0.66664946       0.37500000 </v>
   <v>       0.33335053       0.16664946       0.87500000 </v>
   <v>       0.83335053       0.16664946       0.87500000 </v>
   <v>       0.33335053       0.66664946       0.87500000 </v>
   <v>       0.83335053       0.66664946       0.87500000 </v>
  </varray>
 </structure>
 <calculation>
  <scstep>
   <time name="dav">  138.97  139.05</time>
   <time name="total">  139.59  139.75</time>
   <energy>
    <i name="alphaZ">    346.10004929 </i>
    <i name="ewald">  -4414.31304332 </i>
    <i name="hartreedc">   -755.27414754 </i>
    <i name="XCdc">    446.26678550 </i>
    <i name="pawpsdc">   1210.60617908 </i>
    <i name="pawaedc">  -1247.42152856 </i>
    <i name="eentropy">     -0.01411844 </i>
    <i name="bandstr">    231.63316316 </i>
    <i name="atom">   4708.80920826 </i>
    <i name="e_fr_energy">    526.39254744 </i>
    <i name="e_wo_entrp">    526.40666588 </i>
    <i name="e_0_energy">    526.39960666 </i>
   </energy>
  </scstep>
  <scstep>
   <time name="dav">  154.66  154.74</time>
   <time name="total">  154.68  154.76</time>
   <energy>
    <i name="e_fr_energy">   -267.12775232 </i>
    <i name="e_wo_entrp">   -267.12522837 </i>
    <i name="e_0_energy">   -267.12649035 </i>
   </energy>
  </scstep>
  <scstep>
   <time name="dav">  160.77  160.86</time>
   <time name="total">  160.79  160.88</time>
   <energy>
    <i name="e_fr_energy">   -309.17519139 </i>
    <i name="e_wo_entrp">   -309.16974035 </i>
    <i name="e_0_energy">   -309.17246587 </i>
   </energy>
  </scstep>
  <scstep>
   <time name="dav">  162.73  162.81</time>
   <time name="total">  162.74  162.83</time>
   <energy>
    <i name="e_fr_energy">   -309.89092062 </i>
    <i name="e_wo_entrp">   -309.88547858 </i>
    <i name="e_0_energy">   -309.88819960 </i>
   </energy>
  </scstep>
  <scstep>
   <time name="dav">  160.28  160.37</time>
   <time name="total">  167.74  167.84</time>
   <energy>
    <i name="e_fr_energy">   -309.91126141 </i>
    <i name="e_wo_entrp">   -309.90581942 </i>
    <i name="e_0_energy">   -309.90854041 </i>
   </energy>
  </scstep>
  <scstep>
   <time name="dav">  145.76  145.83</time>
   <time name="total">  153.48  153.56</time>
   <energy>
    <i name="e_fr_energy">   -296.43736485 </i>
    <i name="e_wo_entrp">   -296.43230436 </i>
    <i name="e_0_energy">   -296.43483461 </i>
   </energy>
  </scstep>
  <scstep>
   <time name="dav">  147.55  147.62</time>
   <time name="total">  155.54  155.62</time>
   <energy>
    <i name="e_fr_energy">   -292.26113200 </i>
    <i name="e_wo_entrp">   -292.25661359 </i>
    <i name="e_0_energy">   -292.25887280 </i>
   </energy>
  </scstep>
  <scstep>
   <time name="dav">  154.65  154.73</time>
   <time name="total">  162.21  162.29</time>
   <energy>
    <i name="e_fr_energy">   -292.29697388 </i>
    <i name="e_wo_entrp">   -292.29241030 </i>
    <i name="e_0_energy">   -292.29469209 </i>
   </energy>
  </scstep>
  <scstep>
   <time name="dav">  163.27  163.36</time>
   <time name="total">  171.05  171.14</time>
   <energy>
    <i name="e_fr_energy">   -292.29900498 </i>
    <i name="e_wo_entrp">   -292.29444095 </i>
    <i name="e_0_energy">   -292.29672297 </i>
   </energy>
  </scstep>
  <scstep>
   <time name="dav">  149.44  149.51</time>
   <time name="total">  157.10  157.18</time>
   <energy>
    <i name="e_fr_energy">   -292.29946805 </i>
    <i name="e_wo_entrp">   -292.29489845 </i>
    <i name="e_0_energy">   -292.29718325 </i>
   </energy>
  </scstep>
  <scstep>
   <time name="dav">  157.87  157.95</time>
   <time name="total">  165.89  165.98</time>
   <energy>
    <i name="e_fr_energy">   -292.29944278 </i>
    <i name="e_wo_entrp">   -292.29487491 </i>
    <i name="e_0_energy">   -292.29715884 </i>
   </energy>
  </scstep>
  <scstep>
   <time name="dav">  153.52  153.60</time>
   <time name="total">  153.75  153.83</time>
   <energy>
    <i name="alphaZ">    346.10004929 </i>
    <i name="ewald">  -4414.31304332 </i>
    <i name="hartreedc">   -986.20337362 </i>
    <i name="XCdc">    463.17365131 </i>
    <i name="pawpsdc">   2225.69261868 </i>
    <i name="pawaedc">  -2267.04436840 </i>
    <i name="eentropy">     -0.00456786 </i>
    <i name="bandstr">   -368.50961738 </i>
    <i name="atom">   4708.80920826 </i>
    <i name="e_fr_energy">   -292.29944303 </i>
    <i name="e_wo_entrp">   -292.29487518 </i>
    <i name="e_0_energy">   -292.29715911 </i>
   </energy>
  </scstep>
  <structure>
   <crystal>
    <varray name="basis" >
     <v>       4.93431088      -0.00022240       0.00000000 </v>
     <v>      -2.46734805       4.27312738       0.00000000 </v>
     <v>       0.00000000       0.00000000      11.43376193 </v>
    </varray>
    <i name="volume">    241.07389787 </i>
    <varray name="rec_basis" >
     <v>       0.20266782       0.11702250       0.00000000 </v>
     <v>       0.00001055       0.23402673       0.00000000 </v>
     <v>       0.00000000       0.00000000       0.08746028 </v>
    </varray>
   </crystal>
   <varray name="positions" >
    <v>       0.49999985       0.00000017       0.12500000 </v>
    <v>       0.99999985       0.00000017       0.12500000 </v>
    <v>       0.49999985       0.50000017       0.12500000 </v>
    <v>       0.99999985       0.50000017       0.12500000 </v>
    <v>       0.49999985       0.00000017       0.62500000 </v>
    <v>       0.99999985       0.00000017       0.62500000 </v>
    <v>       0.49999985       0.50000017       0.62500000 </v>
    <v>       0.99999985       0.50000017       0.62500000 </v>
    <v>       0.00000017       0.49999985       0.37500000 </v>
    <v>       0.50000017       0.49999985       0.37500000 </v>
    <v>       0.00000017       0.99999985       0.37500000 </v>
    <v>       0.50000017       0.99999985       0.37500000 </v>
    <v>       0.00000017       0.49999985       0.87500000 </v>
    <v>       0.50000017       0.49999985       0.87500000 </v>
    <v>       0.00000017       0.99999985       0.87500000 </v>
    <v>       0.50000017       0.99999985       0.87500000 </v>
    <v>       0.16745248       0.33335053       0.12580302 </v>
    <v>       0.66664946       0.33335053       0.12500000 </v>
    <v>       0.16664946       0.83335053       0.12500000 </v>
    <v>       0.66664946       0.83335053       0.12500000 </v>
    <v>       0.16664946       0.33335053       0.62500000 </v>
    <v>       0.66664946       0.33335053       0.62500000 </v>
    <v>       0.16664946       0.83335053       0.62500000 </v>
    <v>       0.66664946       0.83335053       0.62500000 </v>
    <v>       0.33335053       0.16664946       0.37500000 </v>
    <v>       0.83335053       0.16664946       0.37500000 </v>
    <v>       0.33335053       0.66664946       0.37500000 </v>
    <v>       0.83335053       0.66664946       0.37500000 </v>
    <v>       0.33335053       0.16664946       0.87500000 </v>
    <v>       0.83335053       0.16664946       0.87500000 </v>
    <v>       0.33335053       0.66664946       0.87500000 </v>
    <v>       0.83335053       0.66664946       0.87500000 </v>
   </varray>
  </structure>
  <varray name="forces" >
   <v>      -0.00219765       0.00324901       0.01309514 </v>
   <v>       0.02997172       0.00385821       0.04276855 </v>
   <v>       0.08134125       0.03300370       0.04225103 </v>
   <v>       0.08058115      -0.02587502       0.04323673 </v>
   <v>      -0.00570427       0.00326643      -0.00023934 </v>
   <v>      -0.00568269       0.00326827      -0.00011957 </v>
   <v>      -0.00571156       0.00324666      -0.00012107 </v>
   <v>      -0.00570792       0.00328139      -0.00011907 </v>
   <v>       0.00565792      -0.00327402       0.00172093 </v>
   <v>       0.00651026      -0.00278992       0.00311599 </v>
   <v>       0.00566470      -0.00375536       0.00241570 </v>
   <v>       0.00623872      -0.00326515      -0.00038271 </v>
   <v>       0.00649293      -0.00374365       0.00305475 </v>
   <v>       0.00565932      -0.00327519       0.00170724 </v>
   <v>       0.00567022      -0.00279601       0.00238174 </v>
   <v>       0.00624332      -0.00327275      -0.00036089 </v>
   <v>      -0.24092536      -0.00449235      -0.14364817 </v>
   <v>       0.04337246      -0.00322919      -0.00636939 </v>
   <v>       0.00357014      -0.02622950      -0.00643102 </v>
   <v>       0.00367605       0.01967696      -0.00631802 </v>
   <v>       0.00574350      -0.00327518       0.00041620 </v>
   <v>       0.00566711      -0.00327564      -0.00007366 </v>
   <v>       0.00568971      -0.00326145      -0.00007375 </v>
   <v>       0.00568875      -0.00328360      -0.00007320 </v>
   <v>      -0.00598492       0.00344169       0.00141413 </v>
   <v>      -0.00573963       0.00325921       0.00149923 </v>
   <v>      -0.00570281       0.00314098       0.00145524 </v>
   <v>      -0.00633664       0.00327871      -0.00025348 </v>
   <v>      -0.00574151       0.00330222       0.00148687 </v>
   <v>      -0.00598768       0.00311170       0.00137290 </v>
   <v>      -0.00570050       0.00342335       0.00143289 </v>
   <v>      -0.00631607       0.00328550      -0.00024195 </v>
  </varray>
  <varray name="stress" >
   <v>     -14.48518005       0.63026195      -0.01465323 </v>
   <v>       0.63026194     -14.10960415      -0.00027764 </v>
   <v>      -0.01465328      -0.00027760     163.40527829 </v>
  </varray>
  <energy>
   <i name="e_fr_energy">   -295.90787483 </i>
   <i name="e_wo_entrp">   -295.90559090 </i>
   <i name="e_0_energy">     -0.00456786 </i>
  </energy>
  <time name="totalsc"> 2044.26 2045.46</time>
  <eigenvalues>
   <array>
    <dimension dim="1">band</dimension>
    <dimension dim="2">kpoint</dimension>
    <dimension dim="3">spin</dimension>
    <field>eigene</field>
    <field>occ</field>
    <set>
     <set comment="spin 1">
      <set comment="kpoint 1">
       <r>  -13.7196    1.0000 </r>
       <r>  -13.2977    1.0000 </r>
       <r>  -13.2965    1.0000 </r>
       <r>  -12.7916    1.0000 </r>
       <r>   -8.2682    1.0000 </r>
       <r>   -8.2653    1.0000 </r>
       <r>   -8.2624    1.0000 </r>
       <r>   -8.0391    1.0000 </r>
       <r>   -8.0347    1.0000 </r>
       <r>   -8.0343    1.0000 </r>
       <r>   -8.0339    1.0000 </r>
       <r>   -8.0337    1.0000 </r>
       <r>   -8.0292    1.0000 </r>
       <r>   -7.9230    1.0000 </r>
       <r>   -7.9216    1.0000 </r>
       <r>   -7.9205    1.0000 </r>
       <r>   -7.0097    1.0000 </r>
       <r>   -7.0082    1.0000 </r>
       <r>   -7.0078    1.0000 </r>
       <r>   -6.9918    1.0000 </r>
       <r>   -6.9892    1.0000 </r>
       <r>   -6.9879    1.0000 </r>
       <r>   -6.9876    1.0000 </r>
       <r>   -6.9876    1.0000 </r>
       <r>   -6.9838    1.0000 </r>
       <r>   -6.7694    1.0000 </r>
       <r>   -6.7674    1.0000 </r>
       <r>   -6.7650    1.0000 </r>
       <r>   -3.1556    1.0000 </r>
       <r>   -1.3439    1.0000 </r>
       <r>   -1.3410    1.0000 </r>
       <r>   -0.2495    1.0000 </r>
       <r>   -0.2469    1.0000 </r>
       <r>   -0.2457    1.0000 </r>
       <r>   -0.1377    1.0000 </r>
       <r>   -0.1349    1.0000 </r>
       <r>   -0.1348    1.0000 </r>
       <r>   -0.1334    1.0000 </r>
       <r>   -0.1317    1.0000 </r>
       <r>   -0.1300    1.0000 </r>
       <r>   -0.0193    1.0000 </r>
       <r>   -0.0166    1.0000 </r>
       <r>   -0.0154    1.0000 </r>
       <r>    0.9543    1.0000 </r>
       <r>    2.8067    1.0000 </r>
       <r>    2.8089    1.0000 </r>
       <r>    2.8112    1.0000 </r>
       <r>    3.1997    1.0000 </r>
       <r>    3.2038    1.0000 </r>
       <r>    3.2403    1.0000 </r>
       <r>    3.2430    1.0000 </r>
       <r>    3.2478    1.0000 </r>
       <r>    3.2507    1.0000 </r>
       <r>    3.2870    1.0000 </r>
       <r>    3.2912    1.0000 </r>
       <r>    3.8552    1.0000 </r>
       <r>    3.8590    1.0000 </r>
       <r>    3.8593    1.0000 </r>
       <r>    3.8595    1.0000 </r>
       <r>    3.8600    1.0000 </r>
       <r>    3.8638    1.0000 </r>
       <r>    4.1856    1.0000 </r>
       <r>    4.1868    1.0000 </r>
       <r>    4.1874    1.0000 </r>
       <r>    7.8274    0.0000 </r>
       <r>    7.8345    0.0000 </r>
       <r>    7.8362    0.0000 </r>
       <r>    7.8364    0.0000 </r>
       <r>    7.8371    0.0000 </r>
       <r>    7.8442    0.0000 </r>
       <r>    8.0817    0.0000 </r>
       <r>    8.0827    0.0000 </r>
       <r>    8.0830    0.0000 </r>
       <r>    8.9956    0.0000 </r>
       <r>    8.9982    0.0000 </r>
       <r>    9.0005    0.0000 </r>
       <r>   12.4693    0.0000 </r>
       <r>   13.0276    0.0000 </r>
       <r>   13.0317    0.0000 </r>
       <r>   13.0349    0.0000 </r>
       <r>   13.5731    0.0000 </r>
       <r>   13.5754    0.0000 </r>
       <r>   13.5774    0.0000 </r>
       <r>   13.5785    0.0000 </r>
      </set>
      <set comment="kpoint 2">
       <r>  -13.6450    1.0000 </r>
       <r>  -13.2244    1.0000 </r>
       <r>  -13.2232    1.0000 </r>
       <r>  -12.7204    1.0000 </r>
       <r>   -9.1161    1.0000 </r>
       <r>   -8.7915    1.0000 </r>
       <r>   -8.7906    1.0000 </r>
       <r>   -8.5503    1.0000 </r>
       <r>   -8.5475    1.0000 </r>
       <r>   -8.4283    1.0000 </r>
       <r>   -8.2598    1.0000 </r>
       <r>   -8.2571    1.0000 </r>
       <r>   -8.2564    1.0000 </r>
       <r>   -8.2543    1.0000 </r>
       <r>   -7.9708    1.0000 </r>
       <r>   -7.9681    1.0000 </r>
       <r>   -6.8462    1.0000 </r>
       <r>   -6.8449    1.0000 </r>
       <r>   -6.6467    1.0000 </r>
       <r>   -6.6460    1.0000 </r>
       <r>   -6.6450    1.0000 </r>
       <r>   -6.6424    1.0000 </r>
       <r>   -6.3798    1.0000 </r>
       <r>   -6.3593    1.0000 </r>
       <r>   -6.3574    1.0000 </r>
       <r>   -6.1243    1.0000 </r>
       <r>   -6.1220    1.0000 </r>
       <r>   -5.8216    1.0000 </r>
       <r>   -3.0652    1.0000 </r>
       <r>   -1.2579    1.0000 </r>
       <r>   -1.2550    1.0000 </r>
       <r>   -0.4835    1.0000 </r>
       <r>   -0.4806    1.0000 </r>
       <r>   -0.3625    1.0000 </r>
       <r>   -0.3602    1.0000 </r>
       <r>   -0.3577    1.0000 </r>
       <r>   -0.3571    1.0000 </r>
       <r>   -0.2333    1.0000 </r>
       <r>   -0.2304    1.0000 </r>
       <r>   -0.1739    1.0000 </r>
       <r>   -0.0625    1.0000 </r>
       <r>   -0.0595    1.0000 </r>
       <r>    0.0550    1.0000 </r>
       <r>    1.0340    1.0000 </r>
       <r>    2.1468    1.0000 </r>
       <r>    2.6652    1.0000 </r>
       <r>    2.6678    1.0000 </r>
       <r>    2.8871    1.0000 </r>
       <r>    2.9415    1.0000 </r>
       <r>    2.9475    1.0000 </r>
       <r>    3.0019    1.0000 </r>
       <r>    3.0373    1.0000 </r>
       <r>    3.0876    1.0000 </r>
       <r>    3.0939    1.0000 </r>
       <r>    3.1445    1.0000 </r>
       <r>    3.4378    1.0000 </r>
       <r>    3.4405    1.0000 </r>
       <r>    3.8042    1.0000 </r>
       <r>    3.8082    1.0000 </r>
       <r>    3.8086    1.0000 </r>
       <r>    3.8099    1.0000 </r>
       <r>    4.3570    1.0000 </r>
       <r>    4.3585    1.0000 </r>
       <r>    4.4333    1.0000 </r>
       <r>    7.9619    0.0000 </r>
       <r>    7.9648    0.0000 </r>
       <r>    7.9661    0.0000 </r>
       <r>    7.9724    0.0000 </r>
       <r>    8.0285    0.0000 </r>
       <r>    8.0294    0.0000 </r>
       <r>    8.0482    0.0000 </r>
       <r>    8.3656    0.0000 </r>
       <r>    8.3717    0.0000 </r>
       <r>    9.1360    0.0000 </r>
       <r>    9.1387    0.0000 </r>
       <r>    9.6665    0.0000 </r>
       <r>   12.5464    0.0000 </r>
       <r>   13.0768    0.0000 </r>
       <r>   13.3696    0.0000 </r>
       <r>   13.3754    0.0000 </r>
       <r>   13.6181    0.0000 </r>
       <r>   13.6223    0.0000 </r>
       <r>   13.9083    0.0000 </r>
       <r>   13.9136    0.0000 </r>
      </set>
      <set comment="kpoint 3">
       <r>  -13.4213    1.0000 </r>
       <r>  -13.0048    1.0000 </r>
       <r>  -13.0036    1.0000 </r>
       <r>  -12.5070    1.0000 </r>
       <r>  -10.1469    1.0000 </r>
       <r>   -9.7939    1.0000 </r>
       <r>   -9.7929    1.0000 </r>
       <r>   -9.3864    1.0000 </r>
       <r>   -8.9157    1.0000 </r>
       <r>   -8.9134    1.0000 </r>
       <r>   -8.5965    1.0000 </r>
       <r>   -8.5943    1.0000 </r>
       <r>   -8.5938    1.0000 </r>
       <r>   -8.5918    1.0000 </r>
       <r>   -8.2389    1.0000 </r>
       <r>   -8.2365    1.0000 </r>
       <r>   -6.2047    1.0000 </r>
       <r>   -6.2029    1.0000 </r>
       <r>   -5.9562    1.0000 </r>
       <r>   -5.9554    1.0000 </r>
       <r>   -5.9543    1.0000 </r>
       <r>   -5.9520    1.0000 </r>
       <r>   -5.6631    1.0000 </r>
       <r>   -5.6612    1.0000 </r>
       <r>   -5.0506    1.0000 </r>
       <r>   -4.8009    1.0000 </r>
       <r>   -4.7987    1.0000 </r>
       <r>   -4.5198    1.0000 </r>
       <r>   -2.7948    1.0000 </r>
       <r>   -1.1079    1.0000 </r>
       <r>   -1.1053    1.0000 </r>
       <r>   -1.0012    1.0000 </r>
       <r>   -0.9983    1.0000 </r>
       <r>   -0.9662    1.0000 </r>
       <r>   -0.9640    1.0000 </r>
       <r>   -0.9619    1.0000 </r>
       <r>   -0.9611    1.0000 </r>
       <r>   -0.8116    1.0000 </r>
       <r>   -0.8089    1.0000 </r>
       <r>    0.0422    1.0000 </r>
       <r>    0.1516    1.0000 </r>
       <r>    0.1548    1.0000 </r>
       <r>    0.2676    1.0000 </r>
       <r>    1.0588    1.0000 </r>
       <r>    1.2715    1.0000 </r>
       <r>    2.0359    1.0000 </r>
       <r>    2.1211    1.0000 </r>
       <r>    2.1263    1.0000 </r>
       <r>    2.2129    1.0000 </r>
       <r>    2.3995    1.0000 </r>
       <r>    2.4017    1.0000 </r>
       <r>    2.5585    1.0000 </r>
       <r>    2.5610    1.0000 </r>
       <r>    2.6036    1.0000 </r>
       <r>    2.6718    1.0000 </r>
       <r>    2.6775    1.0000 </r>
       <r>    2.7467    1.0000 </r>
       <r>    3.6843    1.0000 </r>
       <r>    3.6885    1.0000 </r>
       <r>    3.6891    1.0000 </r>
       <r>    3.6903    1.0000 </r>
       <r>    4.2167    1.0000 </r>
       <r>    4.6854    1.0000 </r>
       <r>    4.6873    1.0000 </r>
       <r>    7.9941    0.0000 </r>
       <r>    7.9955    0.0000 </r>
       <r>    8.2920    0.0000 </r>
       <r>    8.2944    0.0000 </r>
       <r>    8.2956    0.0000 </r>
       <r>    8.3017    0.0000 </r>
       <r>    8.8026    0.0000 </r>
       <r>    9.4021    0.0000 </r>
       <r>    9.4050    0.0000 </r>
       <r>    9.5735    0.0000 </r>
       <r>    9.5785    0.0000 </r>
       <r>   10.8597    0.0000 </r>
       <r>   12.7797    0.0000 </r>
       <r>   13.2119    0.0000 </r>
       <r>   13.7431    0.0000 </r>
       <r>   13.7450    0.0000 </r>
       <r>   14.2837    0.0000 </r>
       <r>   14.3138    0.0000 </r>
       <r>   14.3408    0.0000 </r>
       <r>   14.4964    0.0000 </r>
      </set>
      <set comment="kpoint 4">
       <r>  -13.0498    1.0000 </r>
       <r>  -12.6402    1.0000 </r>
       <r>  -12.6390    1.0000 </r>
       <r>  -12.1523    1.0000 </r>
       <r>  -11.0740    1.0000 </r>
       <r>  -10.7017    1.0000 </r>
       <r>  -10.7007    1.0000 </r>
       <r>  -10.2670    1.0000 </r>
       <r>   -9.1798    1.0000 </r>
       <r>   -9.1778    1.0000 </r>
       <r>   -8.8498    1.0000 </r>
       <r>   -8.8478    1.0000 </r>
       <r>   -8.8475    1.0000 </r>
       <r>   -8.8455    1.0000 </r>
       <r>   -8.4730    1.0000 </r>
       <r>   -8.4709    1.0000 </r>
       <r>   -5.3888    1.0000 </r>
       <r>   -5.3868    1.0000 </r>
       <r>   -5.1512    1.0000 </r>
       <r>   -5.1504    1.0000 </r>
       <r>   -5.1493    1.0000 </r>
       <r>   -5.1467    1.0000 </r>
       <r>   -4.8852    1.0000 </r>
       <r>   -4.8831    1.0000 </r>
       <r>   -3.5974    1.0000 </r>
       <r>   -3.3740    1.0000 </r>
       <r>   -3.3716    1.0000 </r>
       <r>   -3.1263    1.0000 </r>
       <r>   -2.3465    1.0000 </r>
       <r>   -1.9369    1.0000 </r>
       <r>   -1.9347    1.0000 </r>
       <r>   -1.7803    1.0000 </r>
       <r>   -1.7779    1.0000 </r>
       <r>   -1.7765    1.0000 </r>
       <r>   -1.7753    1.0000 </r>
       <r>   -1.6015    1.0000 </r>
       <r>   -1.5991    1.0000 </r>
       <r>   -0.5771    1.0000 </r>
       <r>   -0.5742    1.0000 </r>
       <r>    0.0008    1.0000 </r>
       <r>    0.3932    1.0000 </r>
       <r>    0.4996    1.0000 </r>
       <r>    0.5030    1.0000 </r>
       <r>    0.6125    1.0000 </r>
       <r>    0.8219    1.0000 </r>
       <r>    0.9443    1.0000 </r>
       <r>    0.9485    1.0000 </r>
       <r>    1.0728    1.0000 </r>
       <r>    1.6157    1.0000 </r>
       <r>    1.6181    1.0000 </r>
       <r>    1.6616    1.0000 </r>
       <r>    2.0290    1.0000 </r>
       <r>    2.1122    1.0000 </r>
       <r>    2.1165    1.0000 </r>
       <r>    2.1748    1.0000 </r>
       <r>    2.1770    1.0000 </r>
       <r>    2.2030    1.0000 </r>
       <r>    3.5610    1.0000 </r>
       <r>    3.5647    1.0000 </r>
       <r>    3.5659    1.0000 </r>
       <r>    3.5666    1.0000 </r>
       <r>    3.5686    1.0000 </r>
       <r>    4.9540    1.0000 </r>
       <r>    4.9563    1.0000 </r>
       <r>    8.0850    0.0000 </r>
       <r>    8.0873    0.0000 </r>
       <r>    8.6772    0.0000 </r>
       <r>    8.6789    0.0000 </r>
       <r>    8.6798    0.0000 </r>
       <r>    8.6853    0.0000 </r>
       <r>    9.6113    0.0000 </r>
       <r>    9.6141    0.0000 </r>
       <r>   10.2126    0.0000 </r>
       <r>   11.0292    0.0000 </r>
       <r>   11.0336    0.0000 </r>
       <r>   12.1838    0.0000 </r>
       <r>   13.1658    0.0000 </r>
       <r>   13.4244    0.0000 </r>
       <r>   13.9450    0.0000 </r>
       <r>   13.9471    0.0000 </r>
       <r>   14.3215    0.0000 </r>
       <r>   14.3739    0.0000 </r>
       <r>   14.4060    0.0000 </r>
       <r>   14.4113    0.0000 </r>
      </set>
      <set comment="kpoint 5">
       <r>  -12.5323    1.0000 </r>
       <r>  -12.1323    1.0000 </r>
       <r>  -12.1312    1.0000 </r>
       <r>  -11.8720    1.0000 </r>
       <r>  -11.6584    1.0000 </r>
       <r>  -11.4843    1.0000 </r>
       <r>  -11.4832    1.0000 </r>
       <r>  -11.0282    1.0000 </r>
       <r>   -9.3157    1.0000 </r>
       <r>   -9.3138    1.0000 </r>
       <r>   -8.9810    1.0000 </r>
       <r>   -8.9791    1.0000 </r>
       <r>   -8.9788    1.0000 </r>
       <r>   -8.9768    1.0000 </r>
       <r>   -8.5977    1.0000 </r>
       <r>   -8.5956    1.0000 </r>
       <r>   -4.6020    1.0000 </r>
       <r>   -4.5998    1.0000 </r>
       <r>   -4.4187    1.0000 </r>
       <r>   -4.4177    1.0000 </r>
       <r>   -4.4173    1.0000 </r>
       <r>   -4.4132    1.0000 </r>
       <r>   -4.2406    1.0000 </r>
       <r>   -4.2383    1.0000 </r>
       <r>   -2.6519    1.0000 </r>
       <r>   -2.6503    1.0000 </r>
       <r>   -2.5425    1.0000 </r>
       <r>   -2.5393    1.0000 </r>
       <r>   -2.5388    1.0000 </r>
       <r>   -2.5374    1.0000 </r>
       <r>   -2.3778    1.0000 </r>
       <r>   -2.3759    1.0000 </r>
       <r>   -2.0926    1.0000 </r>
       <r>   -1.9016    1.0000 </r>
       <r>   -1.8987    1.0000 </r>
       <r>   -1.7249    1.0000 </r>
       <r>   -1.6903    1.0000 </r>
       <r>   -0.9376    1.0000 </r>
       <r>   -0.5934    1.0000 </r>
       <r>   -0.4423    1.0000 </r>
       <r>   -0.4390    1.0000 </r>
       <r>   -0.2658    1.0000 </r>
       <r>    0.0184    1.0000 </r>
       <r>    0.0208    1.0000 </r>
       <r>    0.7506    1.0000 </r>
       <r>    0.7532    1.0000 </r>
       <r>    0.8630    1.0000 </r>
       <r>    0.9645    1.0000 </r>
       <r>    0.9681    1.0000 </r>
       <r>    1.0725    1.0000 </r>
       <r>    1.4238    1.0000 </r>
       <r>    1.5179    1.0000 </r>
       <r>    1.5222    1.0000 </r>
       <r>    1.6186    1.0000 </r>
       <r>    2.0525    1.0000 </r>
       <r>    2.0549    1.0000 </r>
       <r>    2.1931    1.0000 </r>
       <r>    2.8442    1.0000 </r>
       <r>    3.4878    1.0000 </r>
       <r>    3.4921    1.0000 </r>
       <r>    3.4929    1.0000 </r>
       <r>    3.4943    1.0000 </r>
       <r>    5.0866    1.0000 </r>
       <r>    5.0893    1.0000 </r>
       <r>    8.2183    0.0000 </r>
       <r>    8.2213    0.0000 </r>
       <r>    8.9396    0.0000 </r>
       <r>    8.9403    0.0000 </r>
       <r>    8.9408    0.0000 </r>
       <r>    8.9460    0.0000 </r>
       <r>    9.6957    0.0000 </r>
       <r>    9.6984    0.0000 </r>
       <r>   11.8513    0.0000 </r>
       <r>   12.5279    0.0000 </r>
       <r>   12.5317    0.0000 </r>
       <r>   13.5011    0.0000 </r>
       <r>   13.5334    0.0000 </r>
       <r>   13.6556    0.0000 </r>
       <r>   13.6814    0.0000 </r>
       <r>   13.8240    0.0000 </r>
       <r>   13.8286    0.0000 </r>
       <r>   14.0956    0.0000 </r>
       <r>   14.2211    0.0000 </r>
       <r>   14.2244    0.0000 </r>
      </set>
      <set comment="kpoint 6">
       <r>  -13.6450    1.0000 </r>
       <r>  -13.2244    1.0000 </r>
       <r>  -13.2232    1.0000 </r>
       <r>  -12.7204    1.0000 </r>
       <r>   -9.1162    1.0000 </r>
       <r>   -8.7917    1.0000 </r>
       <r>   -8.7907    1.0000 </r>
       <r>   -8.5503    1.0000 </r>
       <r>   -8.5472    1.0000 </r>
       <r>   -8.4285    1.0000 </r>
       <r>   -8.2595    1.0000 </r>
       <r>   -8.2571    1.0000 </r>
       <r>   -8.2564    1.0000 </r>
       <r>   -8.2537    1.0000 </r>
       <r>   -7.9705    1.0000 </r>
       <r>   -7.9678    1.0000 </r>
       <r>   -6.8476    1.0000 </r>
       <r>   -6.8452    1.0000 </r>
       <r>   -6.6491    1.0000 </r>
       <r>   -6.6465    1.0000 </r>
       <r>   -6.6450    1.0000 </r>
       <r>   -6.6423    1.0000 </r>
       <r>   -6.3787    1.0000 </r>
       <r>   -6.3606    1.0000 </r>
       <r>   -6.3573    1.0000 </r>
       <r>   -6.1224    1.0000 </r>
       <r>   -6.1216    1.0000 </r>
       <r>   -5.8206    1.0000 </r>
       <r>   -3.0652    1.0000 </r>
       <r>   -1.2579    1.0000 </r>
       <r>   -1.2550    1.0000 </r>
       <r>   -0.4819    1.0000 </r>
       <r>   -0.4808    1.0000 </r>
       <r>   -0.3604    1.0000 </r>
       <r>   -0.3601    1.0000 </r>
       <r>   -0.3572    1.0000 </r>
       <r>   -0.3569    1.0000 </r>
       <r>   -0.2317    1.0000 </r>
       <r>   -0.2306    1.0000 </r>
       <r>   -0.1753    1.0000 </r>
       <r>   -0.0626    1.0000 </r>
       <r>   -0.0622    1.0000 </r>
       <r>    0.0535    1.0000 </r>
       <r>    1.0339    1.0000 </r>
       <r>    2.1459    1.0000 </r>
       <r>    2.6656    1.0000 </r>
       <r>    2.6687    1.0000 </r>
       <r>    2.8904    1.0000 </r>
       <r>    2.9469    1.0000 </r>
       <r>    2.9475    1.0000 </r>
       <r>    3.0040    1.0000 </r>
       <r>    3.0352    1.0000 </r>
       <r>    3.0876    1.0000 </r>
       <r>    3.0884    1.0000 </r>
       <r>    3.1411    1.0000 </r>
       <r>    3.4374    1.0000 </r>
       <r>    3.4387    1.0000 </r>
       <r>    3.8053    1.0000 </r>
       <r>    3.8082    1.0000 </r>
       <r>    3.8086    1.0000 </r>
       <r>    3.8117    1.0000 </r>
       <r>    4.3570    1.0000 </r>
       <r>    4.3592    1.0000 </r>
       <r>    4.4322    1.0000 </r>
       <r>    7.9590    0.0000 </r>
       <r>    7.9643    0.0000 </r>
       <r>    7.9662    0.0000 </r>
       <r>    7.9708    0.0000 </r>
       <r>    8.0272    0.0000 </r>
       <r>    8.0292    0.0000 </r>
       <r>    8.0502    0.0000 </r>
       <r>    8.3684    0.0000 </r>
       <r>    8.3730    0.0000 </r>
       <r>    9.1341    0.0000 </r>
       <r>    9.1383    0.0000 </r>
       <r>    9.6683    0.0000 </r>
       <r>   12.5464    0.0000 </r>
       <r>   13.0761    0.0000 </r>
       <r>   13.3713    0.0000 </r>
       <r>   13.3746    0.0000 </r>
       <r>   13.6180    0.0000 </r>
       <r>   13.6209    0.0000 </r>
       <r>   13.9104    0.0000 </r>
       <r>   13.9152    0.0000 </r>
      </set>
      <set comment="kpoint 7">
       <r>  -13.4958    1.0000 </r>
       <r>  -13.0779    1.0000 </r>
       <r>  -13.0767    1.0000 </r>
       <r>  -12.5780    1.0000 </r>
       <r>   -9.5914    1.0000 </r>
       <r>   -9.5880    1.0000 </r>
       <r>   -9.2526    1.0000 </r>
       <r>   -9.2492    1.0000 </r>
       <r>   -9.2491    1.0000 </r>
       <r>   -9.2456    1.0000 </r>
       <r>   -8.8629    1.0000 </r>
       <r>   -8.8594    1.0000 </r>
       <r>   -8.0745    1.0000 </r>
       <r>   -7.8480    1.0000 </r>
       <r>   -7.8462    1.0000 </r>
       <r>   -7.7346    1.0000 </r>
       <r>   -6.8231    1.0000 </r>
       <r>   -6.8058    1.0000 </r>
       <r>   -6.8018    1.0000 </r>
       <r>   -6.5920    1.0000 </r>
       <r>   -5.6986    1.0000 </r>
       <r>   -5.6950    1.0000 </r>
       <r>   -5.4438    1.0000 </r>
       <r>   -5.4392    1.0000 </r>
       <r>   -5.4391    1.0000 </r>
       <r>   -5.4364    1.0000 </r>
       <r>   -5.1501    1.0000 </r>
       <r>   -5.1464    1.0000 </r>
       <r>   -2.8848    1.0000 </r>
       <r>   -1.1823    1.0000 </r>
       <r>   -1.0865    1.0000 </r>
       <r>   -1.0836    1.0000 </r>
       <r>   -1.0390    1.0000 </r>
       <r>   -1.0364    1.0000 </r>
       <r>   -0.8833    1.0000 </r>
       <r>   -0.3369    1.0000 </r>
       <r>   -0.3339    1.0000 </r>
       <r>   -0.2166    1.0000 </r>
       <r>   -0.2150    1.0000 </r>
       <r>   -0.2150    1.0000 </r>
       <r>   -0.2105    1.0000 </r>
       <r>   -0.0898    1.0000 </r>
       <r>   -0.0866    1.0000 </r>
       <r>    1.1926    1.0000 </r>
       <r>    1.6725    1.0000 </r>
       <r>    1.6752    1.0000 </r>
       <r>    2.3513    1.0000 </r>
       <r>    2.4097    1.0000 </r>
       <r>    2.4155    1.0000 </r>
       <r>    2.4589    1.0000 </r>
       <r>    2.7393    1.0000 </r>
       <r>    2.7730    1.0000 </r>
       <r>    2.7791    1.0000 </r>
       <r>    2.8294    1.0000 </r>
       <r>    3.0702    1.0000 </r>
       <r>    3.0825    1.0000 </r>
       <r>    3.0839    1.0000 </r>
       <r>    3.0843    1.0000 </r>
       <r>    3.0884    1.0000 </r>
       <r>    4.1198    1.0000 </r>
       <r>    4.1228    1.0000 </r>
       <r>    4.4336    1.0000 </r>
       <r>    4.4712    1.0000 </r>
       <r>    4.4735    1.0000 </r>
       <r>    7.7604    0.0000 </r>
       <r>    7.7669    0.0000 </r>
       <r>    8.1123    0.0000 </r>
       <r>    8.2952    0.0000 </r>
       <r>    8.2979    0.0000 </r>
       <r>    8.6787    0.0000 </r>
       <r>    8.8999    0.0000 </r>
       <r>    8.9062    0.0000 </r>
       <r>    8.9069    0.0000 </r>
       <r>    8.9094    0.0000 </r>
       <r>   10.1662    0.0000 </r>
       <r>   10.1694    0.0000 </r>
       <r>   12.7025    0.0000 </r>
       <r>   13.4604    0.0000 </r>
       <r>   13.4649    0.0000 </r>
       <r>   13.9903    0.0000 </r>
       <r>   13.9943    0.0000 </r>
       <r>   13.9960    0.0000 </r>
       <r>   14.0012    0.0000 </r>
       <r>   14.2755    0.0000 </r>
      </set>
      <set comment="kpoint 8">
       <r>  -13.1982    1.0000 </r>
       <r>  -12.7858    1.0000 </r>
       <r>  -12.7846    1.0000 </r>
       <r>  -12.2940    1.0000 </r>
       <r>  -10.5725    1.0000 </r>
       <r>  -10.2104    1.0000 </r>
       <r>  -10.2094    1.0000 </r>
       <r>   -9.9374    1.0000 </r>
       <r>   -9.7901    1.0000 </r>
       <r>   -9.5887    1.0000 </r>
       <r>   -9.5877    1.0000 </r>
       <r>   -9.1872    1.0000 </r>
       <r>   -8.1570    1.0000 </r>
       <r>   -7.8747    1.0000 </r>
       <r>   -7.8735    1.0000 </r>
       <r>   -7.5965    1.0000 </r>
       <r>   -6.4907    1.0000 </r>
       <r>   -6.3035    1.0000 </r>
       <r>   -6.3004    1.0000 </r>
       <r>   -6.0348    1.0000 </r>
       <r>   -4.9018    1.0000 </r>
       <r>   -4.6606    1.0000 </r>
       <r>   -4.6598    1.0000 </r>
       <r>   -4.3923    1.0000 </r>
       <r>   -4.3001    1.0000 </r>
       <r>   -4.0650    1.0000 </r>
       <r>   -4.0629    1.0000 </r>
       <r>   -3.8032    1.0000 </r>
       <r>   -2.5254    1.0000 </r>
       <r>   -2.1072    1.0000 </r>
       <r>   -1.9426    1.0000 </r>
       <r>   -1.9400    1.0000 </r>
       <r>   -1.7580    1.0000 </r>
       <r>   -0.8784    1.0000 </r>
       <r>   -0.7459    1.0000 </r>
       <r>   -0.7431    1.0000 </r>
       <r>   -0.7401    1.0000 </r>
       <r>   -0.7396    1.0000 </r>
       <r>   -0.5916    1.0000 </r>
       <r>   -0.0459    1.0000 </r>
       <r>    0.0704    1.0000 </r>
       <r>    0.0734    1.0000 </r>
       <r>    0.1947    1.0000 </r>
       <r>    0.5822    1.0000 </r>
       <r>    1.3128    1.0000 </r>
       <r>    1.3740    1.0000 </r>
       <r>    1.4627    1.0000 </r>
       <r>    1.4684    1.0000 </r>
       <r>    1.5065    1.0000 </r>
       <r>    1.5495    1.0000 </r>
       <r>    2.1435    1.0000 </r>
       <r>    2.1459    1.0000 </r>
       <r>    2.1736    1.0000 </r>
       <r>    2.2316    1.0000 </r>
       <r>    2.2379    1.0000 </r>
       <r>    2.3074    1.0000 </r>
       <r>    2.7998    1.0000 </r>
       <r>    2.8017    1.0000 </r>
       <r>    3.1794    1.0000 </r>
       <r>    3.9721    1.0000 </r>
       <r>    4.3200    1.0000 </r>
       <r>    4.3229    1.0000 </r>
       <r>    4.4492    1.0000 </r>
       <r>    4.8576    1.0000 </r>
       <r>    7.7667    0.0000 </r>
       <r>    7.7724    0.0000 </r>
       <r>    7.8917    0.0000 </r>
       <r>    8.5992    0.0000 </r>
       <r>    8.7298    0.0000 </r>
       <r>    9.4407    0.0000 </r>
       <r>    9.4675    0.0000 </r>
       <r>    9.4709    0.0000 </r>
       <r>   10.2553    0.0000 </r>
       <r>   10.2597    0.0000 </r>
       <r>   10.5491    0.0000 </r>
       <r>   11.4261    0.0000 </r>
       <r>   13.0177    0.0000 </r>
       <r>   13.6386    0.0000 </r>
       <r>   14.1577    0.0000 </r>
       <r>   14.1599    0.0000 </r>
       <r>   14.4444    0.0000 </r>
       <r>   14.6421    0.0000 </r>
       <r>   14.6636    0.0000 </r>
       <r>   14.6944    0.0000 </r>
      </set>
      <set comment="kpoint 9">
       <r>  -12.7537    1.0000 </r>
       <r>  -12.3495    1.0000 </r>
       <r>  -12.3484    1.0000 </r>
       <r>  -11.8697    1.0000 </r>
       <r>  -11.4356    1.0000 </r>
       <r>  -11.0563    1.0000 </r>
       <r>  -11.0552    1.0000 </r>
       <r>  -10.6119    1.0000 </r>
       <r>  -10.1488    1.0000 </r>
       <r>   -9.7954    1.0000 </r>
       <r>   -9.7943    1.0000 </r>
       <r>   -9.3871    1.0000 </r>
       <r>   -8.3163    1.0000 </r>
       <r>   -8.0104    1.0000 </r>
       <r>   -8.0095    1.0000 </r>
       <r>   -7.6720    1.0000 </r>
       <r>   -5.7508    1.0000 </r>
       <r>   -5.5345    1.0000 </r>
       <r>   -5.5315    1.0000 </r>
       <r>   -5.2904    1.0000 </r>
       <r>   -4.0769    1.0000 </r>
       <r>   -3.8707    1.0000 </r>
       <r>   -3.8693    1.0000 </r>
       <r>   -3.6514    1.0000 </r>
       <r>   -3.0396    1.0000 </r>
       <r>   -2.8815    1.0000 </r>
       <r>   -2.8787    1.0000 </r>
       <r>   -2.8274    1.0000 </r>
       <r>   -2.6857    1.0000 </r>
       <r>   -2.6231    1.0000 </r>
       <r>   -2.6207    1.0000 </r>
       <r>   -2.3982    1.0000 </r>
       <r>   -1.9902    1.0000 </r>
       <r>   -1.5790    1.0000 </r>
       <r>   -1.4419    1.0000 </r>
       <r>   -1.4405    1.0000 </r>
       <r>   -1.2799    1.0000 </r>
       <r>   -0.4209    1.0000 </r>
       <r>   -0.2445    1.0000 </r>
       <r>   -0.2414    1.0000 </r>
       <r>    0.0956    1.0000 </r>
       <r>    0.2316    1.0000 </r>
       <r>    0.2361    1.0000 </r>
       <r>    0.3631    1.0000 </r>
       <r>    0.3749    1.0000 </r>
       <r>    0.4853    1.0000 </r>
       <r>    0.4884    1.0000 </r>
       <r>    0.6041    1.0000 </r>
       <r>    1.0892    1.0000 </r>
       <r>    1.2307    1.0000 </r>
       <r>    1.2332    1.0000 </r>
       <r>    1.5269    1.0000 </r>
       <r>    1.6115    1.0000 </r>
       <r>    1.6168    1.0000 </r>
       <r>    1.7080    1.0000 </r>
       <r>    1.9682    1.0000 </r>
       <r>    2.6187    1.0000 </r>
       <r>    2.6208    1.0000 </r>
       <r>    3.1397    1.0000 </r>
       <r>    3.2567    1.0000 </r>
       <r>    4.4063    1.0000 </r>
       <r>    4.4106    1.0000 </r>
       <r>    4.4119    1.0000 </r>
       <r>    5.4291    1.0000 </r>
       <r>    7.4550    0.0000 </r>
       <r>    7.8820    0.0000 </r>
       <r>    7.8863    0.0000 </r>
       <r>    8.7275    0.0000 </r>
       <r>    9.1820    0.0000 </r>
       <r>    9.9159    0.0000 </r>
       <r>    9.9184    0.0000 </r>
       <r>   10.7353    0.0000 </r>
       <r>   10.9839    0.0000 </r>
       <r>   11.7357    0.0000 </r>
       <r>   11.7393    0.0000 </r>
       <r>   12.7474    0.0000 </r>
       <r>   13.4833    0.0000 </r>
       <r>   13.8748    0.0000 </r>
       <r>   14.1721    0.0000 </r>
       <r>   14.3140    0.0000 </r>
       <r>   14.3194    0.0000 </r>
       <r>   14.3881    0.0000 </r>
       <r>   14.3916    0.0000 </r>
       <r>   14.4914    0.0000 </r>
      </set>
      <set comment="kpoint 10">
       <r>  -12.1664    1.0000 </r>
       <r>  -12.1633    1.0000 </r>
       <r>  -11.7744    1.0000 </r>
       <r>  -11.7712    1.0000 </r>
       <r>  -11.7710    1.0000 </r>
       <r>  -11.7678    1.0000 </r>
       <r>  -11.3093    1.0000 </r>
       <r>  -11.3060    1.0000 </r>
       <r>  -10.2198    1.0000 </r>
       <r>   -9.8649    1.0000 </r>
       <r>   -9.8639    1.0000 </r>
       <r>   -9.4544    1.0000 </r>
       <r>   -8.3754    1.0000 </r>
       <r>   -8.0646    1.0000 </r>
       <r>   -8.0637    1.0000 </r>
       <r>   -7.7162    1.0000 </r>
       <r>   -5.2058    1.0000 </r>
       <r>   -5.0488    1.0000 </r>
       <r>   -5.0461    1.0000 </r>
       <r>   -4.9189    1.0000 </r>
       <r>   -3.5507    1.0000 </r>
       <r>   -3.4760    1.0000 </r>
       <r>   -3.4225    1.0000 </r>
       <r>   -3.4197    1.0000 </r>
       <r>   -3.4152    1.0000 </r>
       <r>   -3.4117    1.0000 </r>
       <r>   -3.3027    1.0000 </r>
       <r>   -3.2818    1.0000 </r>
       <r>   -1.9396    1.0000 </r>
       <r>   -1.8815    1.0000 </r>
       <r>   -1.8780    1.0000 </r>
       <r>   -1.7574    1.0000 </r>
       <r>   -1.3408    1.0000 </r>
       <r>   -1.3371    1.0000 </r>
       <r>   -1.2865    1.0000 </r>
       <r>   -1.2839    1.0000 </r>
       <r>   -1.1740    1.0000 </r>
       <r>   -1.1678    1.0000 </r>
       <r>   -1.1677    1.0000 </r>
       <r>   -1.1673    1.0000 </r>
       <r>   -0.9877    1.0000 </r>
       <r>   -0.9844    1.0000 </r>
       <r>    0.4244    1.0000 </r>
       <r>    0.4275    1.0000 </r>
       <r>    0.4283    1.0000 </r>
       <r>    0.4323    1.0000 </r>
       <r>    0.9068    1.0000 </r>
       <r>    0.9116    1.0000 </r>
       <r>    1.0080    1.0000 </r>
       <r>    1.0105    1.0000 </r>
       <r>    1.0106    1.0000 </r>
       <r>    1.0114    1.0000 </r>
       <r>    1.0229    1.0000 </r>
       <r>    1.1176    1.0000 </r>
       <r>    1.1238    1.0000 </r>
       <r>    2.5559    1.0000 </r>
       <r>    2.5584    1.0000 </r>
       <r>    2.5612    1.0000 </r>
       <r>    2.5641    1.0000 </r>
       <r>    3.1131    1.0000 </r>
       <r>    4.3886    1.0000 </r>
       <r>    4.4318    1.0000 </r>
       <r>    4.4337    1.0000 </r>
       <r>    5.7384    1.0000 </r>
       <r>    7.2072    0.0000 </r>
       <r>    7.9472    0.0000 </r>
       <r>    7.9499    0.0000 </r>
       <r>    8.7836    0.0000 </r>
       <r>    9.3918    0.0000 </r>
       <r>   10.0911    0.0000 </r>
       <r>   10.0936    0.0000 </r>
       <r>   10.7673    0.0000 </r>
       <r>   12.6173    0.0000 </r>
       <r>   12.6210    0.0000 </r>
       <r>   13.1762    0.0000 </r>
       <r>   13.1830    0.0000 </r>
       <r>   13.1851    0.0000 </r>
       <r>   13.1862    0.0000 </r>
       <r>   13.9897    0.0000 </r>
       <r>   13.9927    0.0000 </r>
       <r>   14.0591    0.0000 </r>
       <r>   14.0626    0.0000 </r>
       <r>   14.3183    0.0000 </r>
       <r>   14.3286    0.0000 </r>
      </set>
      <set comment="kpoint 11">
       <r>  -12.7538    1.0000 </r>
       <r>  -12.3496    1.0000 </r>
       <r>  -12.3485    1.0000 </r>
       <r>  -11.8698    1.0000 </r>
       <r>  -11.4355    1.0000 </r>
       <r>  -11.0561    1.0000 </r>
       <r>  -11.0550    1.0000 </r>
       <r>  -10.6118    1.0000 </r>
       <r>  -10.1492    1.0000 </r>
       <r>   -9.7956    1.0000 </r>
       <r>   -9.7946    1.0000 </r>
       <r>   -9.3873    1.0000 </r>
       <r>   -8.3159    1.0000 </r>
       <r>   -8.0100    1.0000 </r>
       <r>   -8.0091    1.0000 </r>
       <r>   -7.6715    1.0000 </r>
       <r>   -5.7503    1.0000 </r>
       <r>   -5.5330    1.0000 </r>
       <r>   -5.5319    1.0000 </r>
       <r>   -5.2899    1.0000 </r>
       <r>   -4.0779    1.0000 </r>
       <r>   -3.8725    1.0000 </r>
       <r>   -3.8694    1.0000 </r>
       <r>   -3.6522    1.0000 </r>
       <r>   -3.0405    1.0000 </r>
       <r>   -2.8816    1.0000 </r>
       <r>   -2.8806    1.0000 </r>
       <r>   -2.8276    1.0000 </r>
       <r>   -2.6868    1.0000 </r>
       <r>   -2.6236    1.0000 </r>
       <r>   -2.6209    1.0000 </r>
       <r>   -2.3985    1.0000 </r>
       <r>   -1.9903    1.0000 </r>
       <r>   -1.5778    1.0000 </r>
       <r>   -1.4417    1.0000 </r>
       <r>   -1.4382    1.0000 </r>
       <r>   -1.2786    1.0000 </r>
       <r>   -0.4207    1.0000 </r>
       <r>   -0.2446    1.0000 </r>
       <r>   -0.2415    1.0000 </r>
       <r>    0.0961    1.0000 </r>
       <r>    0.2327    1.0000 </r>
       <r>    0.2356    1.0000 </r>
       <r>    0.3632    1.0000 </r>
       <r>    0.3753    1.0000 </r>
       <r>    0.4854    1.0000 </r>
       <r>    0.4891    1.0000 </r>
       <r>    0.6045    1.0000 </r>
       <r>    1.0889    1.0000 </r>
       <r>    1.2308    1.0000 </r>
       <r>    1.2333    1.0000 </r>
       <r>    1.5266    1.0000 </r>
       <r>    1.6120    1.0000 </r>
       <r>    1.6155    1.0000 </r>
       <r>    1.7075    1.0000 </r>
       <r>    1.9681    1.0000 </r>
       <r>    2.6183    1.0000 </r>
       <r>    2.6206    1.0000 </r>
       <r>    3.1401    1.0000 </r>
       <r>    3.2569    1.0000 </r>
       <r>    4.4063    1.0000 </r>
       <r>    4.4111    1.0000 </r>
       <r>    4.4121    1.0000 </r>
       <r>    5.4302    1.0000 </r>
       <r>    7.4542    0.0000 </r>
       <r>    7.8827    0.0000 </r>
       <r>    7.8854    0.0000 </r>
       <r>    8.7275    0.0000 </r>
       <r>    9.1817    0.0000 </r>
       <r>    9.9151    0.0000 </r>
       <r>    9.9187    0.0000 </r>
       <r>   10.7354    0.0000 </r>
       <r>   10.9837    0.0000 </r>
       <r>   11.7353    0.0000 </r>
       <r>   11.7394    0.0000 </r>
       <r>   12.7473    0.0000 </r>
       <r>   13.4831    0.0000 </r>
       <r>   13.8746    0.0000 </r>
       <r>   14.1736    0.0000 </r>
       <r>   14.3136    0.0000 </r>
       <r>   14.3196    0.0000 </r>
       <r>   14.3883    0.0000 </r>
       <r>   14.3913    0.0000 </r>
       <r>   14.4901    0.0000 </r>
      </set>
      <set comment="kpoint 12">
       <r>  -13.1983    1.0000 </r>
       <r>  -12.7859    1.0000 </r>
       <r>  -12.7847    1.0000 </r>
       <r>  -12.2940    1.0000 </r>
       <r>  -10.5724    1.0000 </r>
       <r>  -10.2102    1.0000 </r>
       <r>  -10.2092    1.0000 </r>
       <r>   -9.9378    1.0000 </r>
       <r>   -9.7899    1.0000 </r>
       <r>   -9.5891    1.0000 </r>
       <r>   -9.5881    1.0000 </r>
       <r>   -9.1876    1.0000 </r>
       <r>   -8.1562    1.0000 </r>
       <r>   -7.8735    1.0000 </r>
       <r>   -7.8728    1.0000 </r>
       <r>   -7.5954    1.0000 </r>
       <r>   -6.4907    1.0000 </r>
       <r>   -6.3021    1.0000 </r>
       <r>   -6.3014    1.0000 </r>
       <r>   -6.0344    1.0000 </r>
       <r>   -4.9027    1.0000 </r>
       <r>   -4.6623    1.0000 </r>
       <r>   -4.6598    1.0000 </r>
       <r>   -4.3931    1.0000 </r>
       <r>   -4.3005    1.0000 </r>
       <r>   -4.0654    1.0000 </r>
       <r>   -4.0631    1.0000 </r>
       <r>   -3.8035    1.0000 </r>
       <r>   -2.5255    1.0000 </r>
       <r>   -2.1086    1.0000 </r>
       <r>   -1.9429    1.0000 </r>
       <r>   -1.9424    1.0000 </r>
       <r>   -1.7593    1.0000 </r>
       <r>   -0.8768    1.0000 </r>
       <r>   -0.7460    1.0000 </r>
       <r>   -0.7431    1.0000 </r>
       <r>   -0.7398    1.0000 </r>
       <r>   -0.7369    1.0000 </r>
       <r>   -0.5900    1.0000 </r>
       <r>   -0.0456    1.0000 </r>
       <r>    0.0705    1.0000 </r>
       <r>    0.0738    1.0000 </r>
       <r>    0.1949    1.0000 </r>
       <r>    0.5824    1.0000 </r>
       <r>    1.3122    1.0000 </r>
       <r>    1.3743    1.0000 </r>
       <r>    1.4645    1.0000 </r>
       <r>    1.4670    1.0000 </r>
       <r>    1.5064    1.0000 </r>
       <r>    1.5495    1.0000 </r>
       <r>    2.1437    1.0000 </r>
       <r>    2.1461    1.0000 </r>
       <r>    2.1737    1.0000 </r>
       <r>    2.2331    1.0000 </r>
       <r>    2.2360    1.0000 </r>
       <r>    2.3069    1.0000 </r>
       <r>    2.7990    1.0000 </r>
       <r>    2.8013    1.0000 </r>
       <r>    3.1803    1.0000 </r>
       <r>    3.9722    1.0000 </r>
       <r>    4.3220    1.0000 </r>
       <r>    4.3229    1.0000 </r>
       <r>    4.4484    1.0000 </r>
       <r>    4.8588    1.0000 </r>
       <r>    7.7674    0.0000 </r>
       <r>    7.7713    0.0000 </r>
       <r>    7.8910    0.0000 </r>
       <r>    8.5990    0.0000 </r>
       <r>    8.7295    0.0000 </r>
       <r>    9.4407    0.0000 </r>
       <r>    9.4665    0.0000 </r>
       <r>    9.4712    0.0000 </r>
       <r>   10.2550    0.0000 </r>
       <r>   10.2596    0.0000 </r>
       <r>   10.5492    0.0000 </r>
       <r>   11.4260    0.0000 </r>
       <r>   13.0176    0.0000 </r>
       <r>   13.6384    0.0000 </r>
       <r>   14.1574    0.0000 </r>
       <r>   14.1597    0.0000 </r>
       <r>   14.4477    0.0000 </r>
       <r>   14.6463    0.0000 </r>
       <r>   14.6775    0.0000 </r>
       <r>   14.6948    0.0000 </r>
      </set>
      <set comment="kpoint 13">
       <r>  -13.4958    1.0000 </r>
       <r>  -13.0779    1.0000 </r>
       <r>  -13.0768    1.0000 </r>
       <r>  -12.5781    1.0000 </r>
       <r>   -9.5903    1.0000 </r>
       <r>   -9.5895    1.0000 </r>
       <r>   -9.2504    1.0000 </r>
       <r>   -9.2494    1.0000 </r>
       <r>   -9.2493    1.0000 </r>
       <r>   -9.2483    1.0000 </r>
       <r>   -8.8619    1.0000 </r>
       <r>   -8.8610    1.0000 </r>
       <r>   -8.0730    1.0000 </r>
       <r>   -7.8458    1.0000 </r>
[...]
       <r>   -2.7468    1.0000 </r>
       <r>   -2.7445    1.0000 </r>
       <r>   -2.4655    1.0000 </r>
       <r>   -2.4645    1.0000 </r>
       <r>   -1.5403    1.0000 </r>
       <r>   -1.5384    1.0000 </r>
       <r>   -1.5021    1.0000 </r>
       <r>   -1.5008    1.0000 </r>
       <r>   -1.3286    1.0000 </r>
       <r>   -1.3263    1.0000 </r>
       <r>    0.0415    1.0000 </r>
       <r>    0.0426    1.0000 </r>
       <r>    0.1353    1.0000 </r>
       <r>    0.1371    1.0000 </r>
       <r>    0.3253    1.0000 </r>
       <r>    0.3272    1.0000 </r>
       <r>    0.4059    1.0000 </r>
       <r>    0.4068    1.0000 </r>
       <r>    0.5676    1.0000 </r>
       <r>    0.5687    1.0000 </r>
       <r>    1.2389    1.0000 </r>
       <r>    1.2417    1.0000 </r>
       <r>    1.5197    1.0000 </r>
       <r>    1.5214    1.0000 </r>
       <r>    1.5488    1.0000 </r>
       <r>    1.5498    1.0000 </r>
       <r>    1.6761    1.0000 </r>
       <r>    1.6776    1.0000 </r>
       <r>    2.5974    1.0000 </r>
       <r>    2.5999    1.0000 </r>
       <r>    3.5137    1.0000 </r>
       <r>    3.5149    1.0000 </r>
       <r>    3.8438    1.0000 </r>
       <r>    3.8461    1.0000 </r>
       <r>    5.2087    1.0000 </r>
       <r>    5.2110    1.0000 </r>
       <r>    7.5048    0.0000 </r>
       <r>    7.5087    0.0000 </r>
       <r>    8.4304    0.0000 </r>
       <r>    8.4322    0.0000 </r>
       <r>    9.3792    0.0000 </r>
       <r>    9.3817    0.0000 </r>
       <r>   10.4830    0.0000 </r>
       <r>   10.4845    0.0000 </r>
       <r>   11.1727    0.0000 </r>
       <r>   11.1756    0.0000 </r>
       <r>   12.4135    0.0000 </r>
       <r>   12.4157    0.0000 </r>
       <r>   14.0416    0.0000 </r>
       <r>   14.0427    0.0000 </r>
       <r>   14.1075    0.0000 </r>
       <r>   14.1165    0.0000 </r>
       <r>   14.4201    0.0000 </r>
       <r>   14.4315    0.0000 </r>
       <r>   14.6694    0.0000 </r>
       <r>   14.6905    0.0000 </r>
      </set>
     </set>
    </set>
   </array>
  </eigenvalues>
  <separator name="orbital magnetization" >
   <v name="MAGDIPOLOUT">      0.00000000      0.00000000      0.00000000</v>
  </separator>
  <dos>
   <i name="efermi">      6.14266296 </i>
   <total>
    <array>
     <dimension dim="1">gridpoints</dimension>
     <dimension dim="2">spin</dimension>
     <field>energy</field>
     <field>total</field>
     <field>integrated</field>
     <set>
      <set comment="spin 1">
       <r>   -15.2053     0.0000     0.0000 </r>
       <r>   -15.0964     0.0000     0.0000 </r>
       <r>   -14.9874     0.0000     0.0000 </r>
       <r>   -14.8785     0.0000     0.0000 </r>
       <r>   -14.7695     0.0000     0.0000 </r>
       <r>   -14.6606     0.0000     0.0000 </r>
       <r>   -14.5516     0.0000     0.0000 </r>
       <r>   -14.4427     0.0000     0.0000 </r>
       <r>   -14.3337     0.0000     0.0000 </r>
       <r>   -14.2248     0.0000     0.0000 </r>
       <r>   -14.1158     0.0000     0.0000 </r>
       <r>   -14.0069     0.0000     0.0000 </r>
       <r>   -13.8979     0.0006     0.0001 </r>
       <r>   -13.7890     0.0301     0.0033 </r>
       <r>   -13.6800     0.3287     0.0392 </r>
       <r>   -13.5711     0.9734     0.1452 </r>
       <r>   -13.4621     1.5740     0.3167 </r>
       <r>   -13.3532     2.1224     0.5479 </r>
       <r>   -13.2442     2.1664     0.7840 </r>
       <r>   -13.1353     2.9595     1.1064 </r>
       <r>   -13.0263     3.3716     1.4738 </r>
       <r>   -12.9174     3.3275     1.8363 </r>
       <r>   -12.8084     3.8855     2.2596 </r>
       <r>   -12.6995     5.2268     2.8291 </r>
       <r>   -12.5905     5.1410     3.3892 </r>
       <r>   -12.4816     4.6646     3.8974 </r>
       <r>   -12.3726     4.3981     4.3766 </r>
       <r>   -12.2637     5.1600     4.9388 </r>
       <r>   -12.1547     5.4254     5.5299 </r>
       <r>   -12.0458     5.1709     6.0933 </r>
       <r>   -11.9368     4.8170     6.6181 </r>
       <r>   -11.8279     4.6506     7.1248 </r>
       <r>   -11.7189     4.3968     7.6038 </r>
       <r>   -11.6100     5.2434     8.1751 </r>
       <r>   -11.5010     5.4928     8.7735 </r>
       <r>   -11.3921     5.8779     9.4139 </r>
       <r>   -11.2831     5.1605     9.9762 </r>
       <r>   -11.1742     3.6450    10.3733 </r>
       <r>   -11.0652     3.9451    10.8031 </r>
       <r>   -10.9563     5.5514    11.4079 </r>
       <r>   -10.8473     6.4410    12.1097 </r>
       <r>   -10.7383     5.7203    12.7329 </r>
       <r>   -10.6294     4.7499    13.2504 </r>
       <r>   -10.5204     4.7701    13.7701 </r>
       <r>   -10.4115     4.2971    14.2383 </r>
       <r>   -10.3025     4.2826    14.7049 </r>
       <r>   -10.1936     5.3859    15.2917 </r>
       <r>   -10.0846     6.4327    15.9926 </r>
       <r>    -9.9757     5.5965    16.6023 </r>
       <r>    -9.8667     5.3925    17.1898 </r>
       <r>    -9.7578     5.0672    17.7419 </r>
       <r>    -9.6488     3.9773    18.1752 </r>
       <r>    -9.5399     4.9194    18.7112 </r>
       <r>    -9.4309     5.8047    19.3436 </r>
       <r>    -9.3220     5.3229    19.9236 </r>
       <r>    -9.2130     5.3719    20.5088 </r>
       <r>    -9.1041     5.7708    21.1376 </r>
       <r>    -8.9951     5.2541    21.7100 </r>
       <r>    -8.8862     5.8346    22.3457 </r>
       <r>    -8.7772     5.6963    22.9663 </r>
       <r>    -8.6683     4.7638    23.4853 </r>
       <r>    -8.5593     5.5151    24.0862 </r>
       <r>    -8.4504     6.0371    24.7439 </r>
       <r>    -8.3414     5.5091    25.3442 </r>
       <r>    -8.2325     6.4343    26.0452 </r>
       <r>    -8.1235     6.6533    26.7701 </r>
       <r>    -8.0146     7.2309    27.5579 </r>
       <r>    -7.9056     6.7187    28.2899 </r>
       <r>    -7.7967     5.5107    28.8903 </r>
       <r>    -7.6877     5.7512    29.5169 </r>
       <r>    -7.5788     3.7974    29.9306 </r>
       <r>    -7.4698     1.9011    30.1377 </r>
       <r>    -7.3609     2.6161    30.4228 </r>
       <r>    -7.2519     3.2661    30.7786 </r>
       <r>    -7.1430     3.1779    31.1248 </r>
       <r>    -7.0340     2.6879    31.4177 </r>
       <r>    -6.9251     3.4792    31.7968 </r>
       <r>    -6.8161     5.7209    32.4201 </r>
       <r>    -6.7072     5.0685    32.9723 </r>
       <r>    -6.5982     3.4044    33.3432 </r>
       <r>    -6.4893     3.8666    33.7645 </r>
       <r>    -6.3803     6.4596    34.4682 </r>
       <r>    -6.2714     7.7954    35.3176 </r>
       <r>    -6.1624     6.5825    36.0347 </r>
       <r>    -6.0535     6.4557    36.7381 </r>
       <r>    -5.9445     6.3278    37.4275 </r>
       <r>    -5.8356     5.5297    38.0300 </r>
       <r>    -5.7266     7.0661    38.7998 </r>
       <r>    -5.6177     7.7727    39.6467 </r>
       <r>    -5.5087     4.5120    40.1383 </r>
       <r>    -5.3997     4.2536    40.6017 </r>
       <r>    -5.2908     5.8774    41.2421 </r>
       <r>    -5.1818     5.6192    41.8543 </r>
       <r>    -5.0729     4.8332    42.3809 </r>
       <r>    -4.9639     4.9957    42.9251 </r>
       <r>    -4.8550     5.6648    43.5423 </r>
       <r>    -4.7460     3.6996    43.9454 </r>
       <r>    -4.6371     3.1616    44.2899 </r>
       <r>    -4.5281     4.8828    44.8219 </r>
       <r>    -4.4192     5.0722    45.3745 </r>
       <r>    -4.3102     5.2440    45.9458 </r>
       <r>    -4.2013     5.6525    46.5617 </r>
       <r>    -4.0923     3.7864    46.9742 </r>
       <r>    -3.9834     5.0477    47.5241 </r>
       <r>    -3.8744     7.2543    48.3145 </r>
       <r>    -3.7655     6.9867    49.0757 </r>
       <r>    -3.6565     5.5309    49.6783 </r>
       <r>    -3.5476     4.3397    50.1511 </r>
       <r>    -3.4386     6.4401    50.8528 </r>
       <r>    -3.3297     6.9450    51.6094 </r>
       <r>    -3.2207     5.2908    52.1859 </r>
       <r>    -3.1118     5.0134    52.7321 </r>
       <r>    -3.0028     5.8915    53.3740 </r>
       <r>    -2.8939     5.3722    53.9593 </r>
       <r>    -2.7849     7.2162    54.7455 </r>
       <r>    -2.6760     9.9725    55.8320 </r>
       <r>    -2.5670     9.9799    56.9194 </r>
       <r>    -2.4581     9.3789    57.9412 </r>
       <r>    -2.3491     7.2109    58.7268 </r>
       <r>    -2.2402     2.7511    59.0266 </r>
       <r>    -2.1312     2.4193    59.2902 </r>
       <r>    -2.0223     7.5347    60.1111 </r>
       <r>    -1.9133    11.8147    61.3983 </r>
       <r>    -1.8044    13.1270    62.8285 </r>
       <r>    -1.6954    10.9808    64.0249 </r>
       <r>    -1.5865     8.1450    64.9123 </r>
       <r>    -1.4775     8.1873    65.8043 </r>
       <r>    -1.3686     7.7487    66.6485 </r>
       <r>    -1.2596     8.1218    67.5334 </r>
       <r>    -1.1507     7.3136    68.3302 </r>
       <r>    -1.0417     9.4397    69.3587 </r>
       <r>    -0.9328    12.9295    70.7674 </r>
       <r>    -0.8238    12.9443    72.1777 </r>
       <r>    -0.7149    11.1341    73.3907 </r>
       <r>    -0.6059    10.1145    74.4927 </r>
       <r>    -0.4970    11.5255    75.7484 </r>
       <r>    -0.3880    13.4005    77.2084 </r>
       <r>    -0.2791    15.5523    78.9029 </r>
       <r>    -0.1701    16.1449    80.6619 </r>
       <r>    -0.0612    12.1625    81.9870 </r>
       <r>     0.0478    13.6595    83.4752 </r>
       <r>     0.1568    16.0574    85.2247 </r>
       <r>     0.2657    14.6281    86.8184 </r>
       <r>     0.3747    11.9087    88.1159 </r>
       <r>     0.4836    11.6981    89.3904 </r>
       <r>     0.5926    12.0409    90.7023 </r>
       <r>     0.7015     9.6744    91.7563 </r>
       <r>     0.8105     9.5018    92.7915 </r>
       <r>     0.9194    11.0264    93.9929 </r>
       <r>     1.0284    13.3160    95.4437 </r>
       <r>     1.1373    11.8379    96.7334 </r>
       <r>     1.2463     7.7029    97.5726 </r>
       <r>     1.3552     5.8244    98.2072 </r>
       <r>     1.4642    10.5962    99.3617 </r>
       <r>     1.5731    16.2927   101.1368 </r>
       <r>     1.6821    12.9941   102.5525 </r>
       <r>     1.7910     8.7845   103.5096 </r>
       <r>     1.9000     4.8990   104.0434 </r>
       <r>     2.0089     5.5507   104.6481 </r>
       <r>     2.1179     9.1593   105.6460 </r>
       <r>     2.2268    13.4493   107.1113 </r>
       <r>     2.3358    11.7253   108.3888 </r>
       <r>     2.4447     9.2540   109.3971 </r>
       <r>     2.5537     8.5601   110.3297 </r>
       <r>     2.6626     8.2894   111.2328 </r>
       <r>     2.7716     8.5469   112.1640 </r>
       <r>     2.8805     8.9549   113.1397 </r>
       <r>     2.9895     8.4450   114.0598 </r>
       <r>     3.0984    10.0617   115.1560 </r>
       <r>     3.2074     9.7055   116.2134 </r>
       <r>     3.3163     7.0544   116.9820 </r>
       <r>     3.4253     5.3467   117.5645 </r>
       <r>     3.5342     6.3613   118.2576 </r>
       <r>     3.6432     5.3459   118.8400 </r>
       <r>     3.7521     4.3101   119.3096 </r>
       <r>     3.8611     5.3945   119.8974 </r>
       <r>     3.9700     5.5823   120.5056 </r>
       <r>     4.0790     4.8198   121.0307 </r>
       <r>     4.1879     6.8259   121.7744 </r>
       <r>     4.2969     6.8508   122.5208 </r>
       <r>     4.4058     8.0935   123.4026 </r>
       <r>     4.5148     7.3186   124.1999 </r>
       <r>     4.6237     4.6440   124.7059 </r>
       <r>     4.7327     3.1241   125.0463 </r>
       <r>     4.8416     3.7076   125.4502 </r>
       <r>     4.9506     5.2810   126.0256 </r>
       <r>     5.0595     2.6001   126.3089 </r>
       <r>     5.1685     2.1333   126.5413 </r>
       <r>     5.2774     2.5402   126.8181 </r>
       <r>     5.3864     2.2122   127.0591 </r>
       <r>     5.4954     1.4401   127.2160 </r>
       <r>     5.6043     0.9272   127.3170 </r>
       <r>     5.7133     1.7053   127.5028 </r>
       <r>     5.8222     2.2576   127.7488 </r>
       <r>     5.9312     1.2037   127.8799 </r>
       <r>     6.0401     0.3699   127.9202 </r>
       <r>     6.1491     0.7859   128.0058 </r>
       <r>     6.2580     0.7468   128.0872 </r>
       <r>     6.3670     0.2081   128.1099 </r>
       <r>     6.4759     0.0120   128.1112 </r>
       <r>     6.5849     0.0784   128.1197 </r>
       <r>     6.6938     0.9855   128.2271 </r>
       <r>     6.8028     2.1525   128.4616 </r>
       <r>     6.9117     1.4123   128.6155 </r>
       <r>     7.0207     0.7371   128.6958 </r>
       <r>     7.1296     0.8319   128.7864 </r>
       <r>     7.2386     0.7963   128.8732 </r>
       <r>     7.3475     1.9915   129.0902 </r>
       <r>     7.4565     3.5875   129.4810 </r>
       <r>     7.5654     3.7176   129.8861 </r>
       <r>     7.6744     4.7018   130.3983 </r>
       <r>     7.7833     6.6056   131.1180 </r>
       <r>     7.8923     6.8607   131.8655 </r>
       <r>     8.0012     9.2547   132.8738 </r>
       <r>     8.1102     8.6131   133.8122 </r>
       <r>     8.2191     5.8421   134.4487 </r>
       <r>     8.3281     6.8735   135.1976 </r>
       <r>     8.4370     6.2899   135.8829 </r>
       <r>     8.5460     4.3666   136.3586 </r>
       <r>     8.6549     5.4232   136.9495 </r>
       <r>     8.7639     6.2768   137.6334 </r>
       <r>     8.8728     4.4117   138.1140 </r>
       <r>     8.9818     4.3541   138.5884 </r>
       <r>     9.0907     3.9797   139.0220 </r>
       <r>     9.1997     3.8292   139.4392 </r>
       <r>     9.3086     4.6862   139.9498 </r>
       <r>     9.4176     5.0520   140.5002 </r>
       <r>     9.5265     5.5098   141.1005 </r>
       <r>     9.6355     5.3564   141.6841 </r>
       <r>     9.7444     3.7506   142.0927 </r>
       <r>     9.8534     2.6269   142.3789 </r>
       <r>     9.9623     2.7568   142.6792 </r>
       <r>    10.0713     2.5506   142.9571 </r>
       <r>    10.1802     3.7116   143.3615 </r>
       <r>    10.2892     4.3372   143.8341 </r>
       <r>    10.3981     3.0093   144.1619 </r>
       <r>    10.5071     3.5293   144.5465 </r>
       <r>    10.6160     4.3636   145.0219 </r>
       <r>    10.7250     4.4849   145.5105 </r>
       <r>    10.8339     3.2300   145.8624 </r>
       <r>    10.9429     2.2167   146.1039 </r>
       <r>    11.0519     3.0128   146.4322 </r>
       <r>    11.1608     2.7709   146.7341 </r>
       <r>    11.2698     2.6195   147.0195 </r>
       <r>    11.3787     2.2212   147.2615 </r>
       <r>    11.4877     3.0734   147.5963 </r>
       <r>    11.5966     2.2638   147.8430 </r>
       <r>    11.7056     3.2098   148.1927 </r>
       <r>    11.8145     4.3945   148.6715 </r>
       <r>    11.9235     3.6462   149.0687 </r>
       <r>    12.0324     2.9579   149.3910 </r>
       <r>    12.1414     2.6001   149.6743 </r>
       <r>    12.2503     1.8976   149.8810 </r>
       <r>    12.3593     1.6754   150.0636 </r>
       <r>    12.4682     1.6668   150.2452 </r>
       <r>    12.5772     2.5355   150.5214 </r>
       <r>    12.6861     3.4346   150.8956 </r>
       <r>    12.7951     3.7265   151.3016 </r>
       <r>    12.9040     3.2002   151.6503 </r>
       <r>    13.0130     3.6625   152.0493 </r>
       <r>    13.1219     4.6981   152.5612 </r>
       <r>    13.2309     5.0657   153.1131 </r>
       <r>    13.3398     4.5093   153.6044 </r>
       <r>    13.4488     6.8287   154.3484 </r>
       <r>    13.5577     7.8842   155.2074 </r>
       <r>    13.6667     7.2184   155.9938 </r>
       <r>    13.7756     8.0182   156.8674 </r>
       <r>    13.8846     7.8899   157.7270 </r>
       <r>    13.9935     8.8886   158.6954 </r>
       <r>    14.1025     9.1754   159.6951 </r>
       <r>    14.2114    10.6213   160.8523 </r>
       <r>    14.3204    10.8004   162.0290 </r>
       <r>    14.4293    12.8958   163.4340 </r>
       <r>    14.5383    11.5393   164.6913 </r>
       <r>    14.6472     9.4816   165.7243 </r>
       <r>    14.7562     6.9700   166.4837 </r>
       <r>    14.8651     3.1310   166.8248 </r>
       <r>    14.9741     2.2521   167.0702 </r>
       <r>    15.0830     3.3439   167.4345 </r>
       <r>    15.1920     3.0392   167.7656 </r>
       <r>    15.3009     1.2215   167.8987 </r>
       <r>    15.4099     0.1355   167.9135 </r>
       <r>    15.5188     0.0544   167.9194 </r>
       <r>    15.6278     0.2359   167.9451 </r>
       <r>    15.7367     0.1509   167.9615 </r>
       <r>    15.8457     0.0256   167.9643 </r>
       <r>    15.9546     0.1183   167.9772 </r>
       <r>    16.0636     0.1700   167.9958 </r>
       <r>    16.1725     0.0378   167.9999 </r>
       <r>    16.2815     0.0012   168.0000 </r>
       <r>    16.3905     0.0000   168.0000 </r>
       <r>    16.4994     0.0000   168.0000 </r>
       <r>    16.6084     0.0000   168.0000 </r>
       <r>    16.7173     0.0000   168.0000 </r>
       <r>    16.8263     0.0000   168.0000 </r>
       <r>    16.9352     0.0000   168.0000 </r>
       <r>    17.0442     0.0000   168.0000 </r>
       <r>    17.1531     0.0000   168.0000 </r>
       <r>    17.2621     0.0000   168.0000 </r>
       <r>    17.3710     0.0000   168.0000 </r>
       <r>    17.4800     0.0000   168.0000 </r>
      </set>
     </set>
    </array>
   </total>
  </dos>
 </calculation>
 <structure name="finalpos" >
  <crystal>
   <varray name="basis" >
    <v>       4.93431088      -0.00022240       0.00000000 </v>
    <v>      -2.46734805       4.27312738       0.00000000 </v>
    <v>       0.00000000       0.00000000      11.43376193 </v>
   </varray>
   <i name="volume">    241.07389787 </i>
   <varray name="rec_basis" >
    <v>       0.20266782       0.11702250       0.00000000 </v>
    <v>       0.00001055       0.23402673       0.00000000 </v>
    <v>       0.00000000       0.00000000       0.08746028 </v>
   </varray>
  </crystal>
  <varray name="positions" >
   <v>       0.49999985       0.00000017       0.12500000 </v>
   <v>       0.99999985       0.00000017       0.12500000 </v>
   <v>       0.49999985       0.50000017       0.12500000 </v>
   <v>       0.99999985       0.50000017       0.12500000 </v>
   <v>       0.49999985       0.00000017       0.62500000 </v>
   <v>       0.99999985       0.00000017       0.62500000 </v>
   <v>       0.49999985       0.50000017       0.62500000 </v>
   <v>       0.99999985       0.50000017       0.62500000 </v>
   <v>       0.00000017       0.49999985       0.37500000 </v>
   <v>       0.50000017       0.49999985       0.37500000 </v>
   <v>       0.00000017       0.99999985       0.37500000 </v>
   <v>       0.50000017       0.99999985       0.37500000 </v>
   <v>       0.00000017       0.49999985       0.87500000 </v>
   <v>       0.50000017       0.49999985       0.87500000 </v>
   <v>       0.00000017       0.99999985       0.87500000 </v>
   <v>       0.50000017       0.99999985       0.87500000 </v>
   <v>       0.16745248       0.33335053       0.12580302 </v>
   <v>       0.66664946       0.33335053       0.12500000 </v>
   <v>       0.16664946       0.83335053       0.12500000 </v>
   <v>       0.66664946       0.83335053       0.12500000 </v>
   <v>       0.16664946       0.33335053       0.62500000 </v>
   <v>       0.66664946       0.33335053       0.62500000 </v>
   <v>       0.16664946       0.83335053       0.62500000 </v>
   <v>       0.66664946       0.83335053       0.62500000 </v>
   <v>       0.33335053       0.16664946       0.37500000 </v>
   <v>       0.83335053       0.16664946       0.37500000 </v>
   <v>       0.33335053       0.66664946       0.37500000 </v>
   <v>       0.83335053       0.66664946       0.37500000 </v>
   <v>       0.33335053       0.16664946       0.87500000 </v>
   <v>       0.83335053       0.16664946       0.87500000 </v>
   <v>       0.33335053       0.66664946       0.87500000 </v>
   <v>       0.83335053       0.66664946       0.87500000 </v>
  </varray>
 </structure>
</modeling>
