  12  12   0   0
  0.3617352E+02  0.7204900E-09  0.9179700E-09  0.6563200E-09  0.5000000E-15
  1.000000000000000E-004
  CAR 
 benzene                                 
      4.92009917    -21.95621102  301     -5.00173867      1.00000000
    -21.956  0.0000E+00  0.0000E+00
    -21.867  0.0000E+00  0.0000E+00
    -21.777  0.0000E+00  0.0000E+00
    -21.687  0.0000E+00  0.0000E+00
    -21.598  0.0000E+00  0.0000E+00
    -21.508  0.0000E+00  0.0000E+00
    -21.419  0.0000E+00  0.0000E+00
    -21.329  0.0000E+00  0.0000E+00
    -21.240  0.0000E+00  0.0000E+00
    -21.150  0.0000E+00  0.0000E+00
    -21.060  0.0000E+00  0.0000E+00
    -20.971  0.0000E+00  0.0000E+00
    -20.881  0.0000E+00  0.0000E+00
    -20.792  0.0000E+00  0.0000E+00
    -20.702  0.0000E+00  0.0000E+00
    -20.612  0.0000E+00  0.0000E+00
    -20.523  0.0000E+00  0.0000E+00
    -20.433  0.0000E+00  0.0000E+00
    -20.344  0.0000E+00  0.0000E+00
    -20.254  0.0000E+00  0.0000E+00
    -20.164  0.0000E+00  0.0000E+00
    -20.075  0.0000E+00  0.0000E+00
    -19.985  0.0000E+00  0.0000E+00
    -19.896  0.0000E+00  0.1000E-01
    -19.806  0.0000E+00  0.1000E-01
    -19.717  0.0000E+00  0.1000E-01
    -19.627  0.0000E+00  0.1000E-01
    -19.537  0.0000E+00  0.1000E-01
    -19.448  0.0000E+00  0.1000E-01
    -19.358  0.0000E+00  0.1000E-01
    -19.269  0.0000E+00  0.1000E-01
    -19.179  0.0000E+00  0.1000E-01
    -19.089  0.0000E+00  0.1000E-01
    -19.000  0.0000E+00  0.1000E-01
    -18.910  0.0000E+00  0.1000E-01
    -18.821  0.0000E+00  0.1000E-01
    -18.731  0.0000E+00  0.1000E-01
    -18.641  0.0000E+00  0.1000E-01
    -18.552  0.0000E+00  0.1000E-01
    -18.462  0.0000E+00  0.1000E-01
    -18.373  0.0000E+00  0.1000E-01
    -18.283  0.0000E+00  0.1000E-01
    -18.194  0.0000E+00  0.1000E-01
    -18.104  0.0000E+00  0.1000E-01
    -18.014  0.0000E+00  0.1000E-01
    -17.925  0.0000E+00  0.1000E-01
    -17.835  0.0000E+00  0.1000E-01
    -17.746  0.0000E+00  0.1000E-01
    -17.656  0.0000E+00  0.1000E-01
    -17.566  0.0000E+00  0.1000E-01
    -17.477  0.0000E+00  0.1000E-01
    -17.387  0.0000E+00  0.1000E-01
    -17.298  0.0000E+00  0.1000E-01
    -17.208  0.0000E+00  0.1000E-01
    -17.118  0.0000E+00  0.3000E-01
    -17.029  0.0000E+00  0.3000E-01
    -16.939  0.0000E+00  0.3000E-01
    -16.850  0.0000E+00  0.3000E-01
    -16.760  0.0000E+00  0.3000E-01
    -16.671  0.0000E+00  0.3000E-01
    -16.581  0.0000E+00  0.3000E-01
    -16.491  0.0000E+00  0.3000E-01
    -16.402  0.0000E+00  0.3000E-01
    -16.312  0.0000E+00  0.3000E-01
    -16.223  0.0000E+00  0.3000E-01
    -16.133  0.0000E+00  0.3000E-01
    -16.043  0.0000E+00  0.3000E-01
    -15.954  0.0000E+00  0.3000E-01
    -15.864  0.0000E+00  0.3000E-01
    -15.775  0.0000E+00  0.3000E-01
    -15.685  0.0000E+00  0.3000E-01
    -15.595  0.0000E+00  0.3000E-01
    -15.506  0.0000E+00  0.3000E-01
    -15.416  0.0000E+00  0.3000E-01
    -15.327  0.0000E+00  0.3000E-01
    -15.237  0.0000E+00  0.3000E-01
    -15.148  0.0000E+00  0.3000E-01
    -15.058  0.0000E+00  0.3000E-01
    -14.968  0.0000E+00  0.3000E-01
    -14.879  0.0000E+00  0.3000E-01
    -14.789  0.0000E+00  0.3000E-01
    -14.700  0.0000E+00  0.3000E-01
    -14.610  0.0000E+00  0.3000E-01
    -14.520  0.0000E+00  0.3000E-01
    -14.431  0.0000E+00  0.3000E-01
    -14.341  0.0000E+00  0.3000E-01
    -14.252  0.0000E+00  0.3000E-01
    -14.162  0.0000E+00  0.3000E-01
    -14.072  0.0000E+00  0.3000E-01
    -13.983  0.0000E+00  0.3000E-01
    -13.893  0.0000E+00  0.3000E-01
    -13.804  0.0000E+00  0.3000E-01
    -13.714  0.0000E+00  0.3000E-01
    -13.625  0.0000E+00  0.3000E-01
    -13.535  0.0000E+00  0.5000E-01
    -13.445  0.0000E+00  0.5000E-01
    -13.356  0.0000E+00  0.5000E-01
    -13.266  0.0000E+00  0.5000E-01
    -13.177  0.0000E+00  0.5000E-01
    -13.087  0.0000E+00  0.5000E-01
    -12.997  0.0000E+00  0.5000E-01
    -12.908  0.0000E+00  0.5000E-01
    -12.818  0.0000E+00  0.5000E-01
    -12.729  0.0000E+00  0.5000E-01
    -12.639  0.0000E+00  0.5000E-01
    -12.550  0.0000E+00  0.5000E-01
    -12.460  0.0000E+00  0.5000E-01
    -12.370  0.0000E+00  0.5000E-01
    -12.281  0.0000E+00  0.5000E-01
    -12.191  0.0000E+00  0.5000E-01
    -12.102  0.0000E+00  0.5000E-01
    -12.012  0.0000E+00  0.5000E-01
    -11.922  0.0000E+00  0.5000E-01
    -11.833  0.0000E+00  0.5000E-01
    -11.743  0.0000E+00  0.5000E-01
    -11.654  0.0000E+00  0.5000E-01
    -11.564  0.0000E+00  0.6000E-01
    -11.474  0.0000E+00  0.6000E-01
    -11.385  0.0000E+00  0.6000E-01
    -11.295  0.0000E+00  0.6000E-01
    -11.206  0.0000E+00  0.6000E-01
    -11.116  0.0000E+00  0.6000E-01
    -11.027  0.0000E+00  0.6000E-01
    -10.937  0.0000E+00  0.6000E-01
    -10.847  0.0000E+00  0.6000E-01
    -10.758  0.0000E+00  0.6000E-01
    -10.668  0.0000E+00  0.6000E-01
    -10.579  0.0000E+00  0.6000E-01
    -10.489  0.0000E+00  0.6000E-01
    -10.399  0.0000E+00  0.6000E-01
    -10.310  0.0000E+00  0.6000E-01
    -10.220  0.0000E+00  0.6000E-01
    -10.131  0.0000E+00  0.6000E-01
    -10.041  0.0000E+00  0.6000E-01
     -9.951  0.0000E+00  0.6000E-01
     -9.862  0.0000E+00  0.7000E-01
     -9.772  0.0000E+00  0.7000E-01
     -9.683  0.0000E+00  0.7000E-01
     -9.593  0.0000E+00  0.8000E-01
     -9.504  0.0000E+00  0.8000E-01
     -9.414  0.0000E+00  0.8000E-01
     -9.324  0.0000E+00  0.8000E-01
     -9.235  0.0000E+00  0.8000E-01
     -9.145  0.0000E+00  0.8000E-01
     -9.056  0.0000E+00  0.8000E-01
     -8.966  0.3113E+00  0.8015E-01
     -8.876  0.0000E+00  0.1000E+00
     -8.787  0.0000E+00  0.1000E+00
     -8.697  0.0000E+00  0.1000E+00
     -8.608  0.0000E+00  0.1000E+00
     -8.518  0.0000E+00  0.1000E+00
     -8.428  0.0000E+00  0.1000E+00
     -8.339  0.0000E+00  0.1000E+00
     -8.249  0.0000E+00  0.1000E+00
     -8.160  0.0000E+00  0.1000E+00
     -8.070  0.0000E+00  0.1000E+00
     -7.981  0.0000E+00  0.1000E+00
     -7.891  0.0000E+00  0.1000E+00
     -7.801  0.0000E+00  0.1100E+00
     -7.712  0.0000E+00  0.1100E+00
     -7.622  0.0000E+00  0.1100E+00
     -7.533  0.0000E+00  0.1100E+00
     -7.443  0.0000E+00  0.1100E+00
     -7.353  0.0000E+00  0.1100E+00
     -7.264  0.0000E+00  0.1100E+00
     -7.174  0.0000E+00  0.1100E+00
     -7.085  0.0000E+00  0.1100E+00
     -6.995  0.0000E+00  0.1100E+00
     -6.905  0.0000E+00  0.1300E+00
     -6.816  0.0000E+00  0.1300E+00
     -6.726  0.0000E+00  0.1300E+00
     -6.637  0.0000E+00  0.1300E+00
     -6.547  0.0000E+00  0.1300E+00
     -6.458  0.0000E+00  0.1300E+00
     -6.368  0.0000E+00  0.1300E+00
     -6.278  0.0000E+00  0.1300E+00
     -6.189  0.0000E+00  0.1300E+00
     -6.099  0.0000E+00  0.1300E+00
     -6.010  0.0000E+00  0.1300E+00
     -5.920  0.0000E+00  0.1300E+00
     -5.830  0.0000E+00  0.1300E+00
     -5.741  0.0000E+00  0.1300E+00
     -5.651  0.0000E+00  0.1300E+00
     -5.562  0.0000E+00  0.1300E+00
     -5.472  0.0000E+00  0.1300E+00
     -5.382  0.0000E+00  0.1300E+00
     -5.293  0.0000E+00  0.1300E+00
     -5.203  0.0000E+00  0.1300E+00
     -5.114  0.0000E+00  0.1400E+00
     -5.024  0.0000E+00  0.1500E+00
     -4.935  0.0000E+00  0.1500E+00
     -4.845  0.0000E+00  0.1500E+00
     -4.755  0.0000E+00  0.1500E+00
     -4.666  0.0000E+00  0.1500E+00
     -4.576  0.0000E+00  0.1500E+00
     -4.487  0.0000E+00  0.1500E+00
     -4.397  0.0000E+00  0.1500E+00
     -4.307  0.0000E+00  0.1500E+00
     -4.218  0.0000E+00  0.1500E+00
     -4.128  0.0000E+00  0.1500E+00
     -4.039  0.0000E+00  0.1500E+00
     -3.949  0.0000E+00  0.1500E+00
     -3.859  0.0000E+00  0.1500E+00
     -3.770  0.0000E+00  0.1500E+00
     -3.680  0.0000E+00  0.1500E+00
     -3.591  0.0000E+00  0.1500E+00
     -3.501  0.0000E+00  0.1500E+00
     -3.412  0.0000E+00  0.1500E+00
     -3.322  0.0000E+00  0.1500E+00
     -3.232  0.0000E+00  0.1500E+00
     -3.143  0.0000E+00  0.1500E+00
     -3.053  0.0000E+00  0.1500E+00
     -2.964  0.0000E+00  0.1500E+00
     -2.874  0.0000E+00  0.1500E+00
     -2.784  0.0000E+00  0.1500E+00
     -2.695  0.0000E+00  0.1500E+00
     -2.605  0.0000E+00  0.1500E+00
     -2.516  0.0000E+00  0.1500E+00
     -2.426  0.0000E+00  0.1500E+00
     -2.337  0.0000E+00  0.1500E+00
     -2.247  0.0000E+00  0.1500E+00
     -2.157  0.0000E+00  0.1500E+00
     -2.068  0.0000E+00  0.1500E+00
     -1.978  0.0000E+00  0.1500E+00
     -1.889  0.0000E+00  0.1500E+00
     -1.799  0.0000E+00  0.1500E+00
     -1.709  0.0000E+00  0.1500E+00
     -1.620  0.0000E+00  0.1500E+00
     -1.530  0.0000E+00  0.1500E+00
     -1.441  0.0000E+00  0.1500E+00
     -1.351  0.0000E+00  0.1500E+00
     -1.261  0.0000E+00  0.1500E+00
     -1.172  0.0000E+00  0.1500E+00
     -1.082  0.0000E+00  0.1500E+00
     -0.993  0.0000E+00  0.1500E+00
     -0.903  0.0000E+00  0.1500E+00
     -0.814  0.0000E+00  0.1500E+00
     -0.724  0.0000E+00  0.1500E+00
     -0.634  0.0000E+00  0.1500E+00
     -0.545  0.0000E+00  0.1500E+00
     -0.455  0.0000E+00  0.1500E+00
     -0.366  0.0000E+00  0.1500E+00
     -0.276  0.0000E+00  0.1500E+00
     -0.186  0.0000E+00  0.1500E+00
     -0.097  0.1636E-01  0.1501E+00
     -0.007  0.1606E+00  0.1612E+00
      0.082  0.5077E-02  0.1702E+00
      0.172  0.7679E-02  0.1708E+00
      0.262  0.8624E-02  0.1715E+00
      0.351  0.9665E-02  0.1723E+00
      0.441  0.1130E-01  0.1733E+00
      0.530  0.1271E-01  0.1744E+00
      0.620  0.1410E-01  0.1756E+00
      0.709  0.1617E-01  0.1769E+00
      0.799  0.1960E-01  0.1785E+00
      0.889  0.2262E-01  0.1804E+00
      0.978  0.2477E-01  0.1825E+00
      1.068  0.2478E-01  0.1848E+00
      1.157  0.1896E-01  0.1868E+00
      1.247  0.1323E-01  0.1882E+00
      1.337  0.1071E-01  0.1893E+00
      1.426  0.8654E-02  0.1901E+00
      1.516  0.9818E-02  0.1909E+00
      1.605  0.1661E-01  0.1921E+00
      1.695  0.2874E-01  0.1940E+00
      1.785  0.3874E-01  0.1971E+00
      1.874  0.2999E-01  0.2003E+00
      1.964  0.2688E-01  0.2027E+00
      2.053  0.2327E-01  0.2050E+00
      2.143  0.2439E-01  0.2070E+00
      2.232  0.2613E-01  0.2092E+00
      2.322  0.2565E-01  0.2116E+00
      2.412  0.2413E-01  0.2139E+00
      2.501  0.2020E-01  0.2159E+00
      2.591  0.1471E-01  0.2174E+00
      2.680  0.1170E-01  0.2186E+00
      2.770  0.7487E-02  0.2195E+00
      2.860  0.2518E-02  0.2199E+00
      2.949  0.0000E+00  0.2200E+00
      3.039  0.0000E+00  0.2200E+00
      3.128  0.0000E+00  0.2200E+00
      3.218  0.0000E+00  0.2200E+00
      3.308  0.0000E+00  0.2200E+00
      3.397  0.0000E+00  0.2200E+00
      3.487  0.0000E+00  0.2200E+00
      3.576  0.0000E+00  0.2200E+00
      3.666  0.0000E+00  0.2200E+00
      3.755  0.0000E+00  0.2200E+00
      3.845  0.0000E+00  0.2200E+00
      3.935  0.0000E+00  0.2200E+00
      4.024  0.0000E+00  0.2200E+00
      4.114  0.0000E+00  0.2200E+00
      4.203  0.0000E+00  0.2200E+00
      4.293  0.0000E+00  0.2200E+00
      4.383  0.0000E+00  0.2200E+00
      4.472  0.0000E+00  0.2200E+00
      4.562  0.0000E+00  0.2200E+00
      4.651  0.0000E+00  0.2200E+00
      4.741  0.0000E+00  0.2200E+00
      4.831  0.0000E+00  0.2200E+00
      4.920  0.0000E+00  0.2200E+00
