   12   12  200    1
  0.3617352E+02  0.7204900E-09  0.9179700E-09  0.6563200E-09  0.5000000E-15
  1.000000000000000E-004
  CAR 
 benzene                                 
     30     36     22
 
  0.0000000E+00  0.0000000E+00  0.0000000E+00  0.1562500E-01
    1      -19.956211
    2      -17.179718
    3      -17.168723
    4      -13.562383
    5      -13.553807
    6      -11.619852
    7       -9.930382
    8       -9.624784
    9       -8.960986
   10       -8.941197
   11       -7.811382
   12       -6.974296
   13       -6.962080
   14       -5.156815
   15       -5.106460
   16       -0.124220
   17       -0.090139
   18        0.004256
   19        1.483087
   20        1.641953
   21        2.627482
   22        2.798555
 
  0.2500000E+00  0.0000000E+00  0.0000000E+00  0.3125000E-01
    1      -19.956066
    2      -17.179659
    3      -17.169176
    4      -13.562335
    5      -13.553625
    6      -11.618505
    7       -9.930743
    8       -9.624616
    9       -8.960384
   10       -8.944063
   11       -7.816847
   12       -6.973890
   13       -6.961941
   14       -5.145077
   15       -5.106311
   16       -0.090410
   17        0.011786
   18        0.064837
   19        1.341145
   20        1.772946
   21        1.995065
   22        2.839790
 
  0.5000000E+00  0.0000000E+00  0.0000000E+00  0.1562500E-01
    1      -19.955922
    2      -17.179592
    3      -17.169628
    4      -13.562353
    5      -13.553391
    6      -11.617171
    7       -9.931143
    8       -9.624485
    9       -8.959833
   10       -8.946931
   11       -7.822179
   12       -6.973668
   13       -6.961703
   14       -5.136618
   15       -5.102859
   16       -0.099364
   17        0.029845
   18        0.560617
   19        0.659841
   20        2.007120
   21        2.346324
   22        2.386462
 
  0.0000000E+00  0.2500000E+00  0.0000000E+00  0.3125000E-01
    1      -19.956190
    2      -17.179819
    3      -17.168696
    4      -13.562021
    5      -13.553798
    6      -11.618960
    7       -9.931062
    8       -9.624740
    9       -8.964210
   10       -8.941074
   11       -7.811397
   12       -6.971577
   13       -6.962085
   14       -5.156795
   15       -5.106324
   16       -0.092304
   17       -0.001345
   18        0.010616
   19        0.909841
   20        2.216517
   21        2.662453
   22        2.920099
 
  0.2500000E+00  0.2500000E+00  0.0000000E+00  0.3125000E-01
    1      -19.956061
    2      -17.179781
    3      -17.169164
    4      -13.562063
    5      -13.553602
    6      -11.617690
    7       -9.931451
    8       -9.624639
    9       -8.963590
   10       -8.943949
   11       -7.816867
   12       -6.971379
   13       -6.961897
   14       -5.145061
   15       -5.106206
   16       -0.092157
   17        0.011731
   18        0.184765
   19        1.044284
   20        1.662798
   21        2.444015
   22        2.610174
 
  0.5000000E+00  0.2500000E+00  0.0000000E+00  0.3125000E-01
    1      -19.955914
    2      -17.179712
    3      -17.169624
    4      -13.562082
    5      -13.553351
    6      -11.616354
    7       -9.931810
    8       -9.624481
    9       -8.963013
   10       -8.946799
   11       -7.822209
   12       -6.971228
   13       -6.961553
   14       -5.136669
   15       -5.102760
   16       -0.097747
   17        0.024567
   18        0.698012
   19        0.756258
   20        1.530522
   21        1.776632
   22        2.697100
 
 -0.2500000E+00  0.2500000E+00  0.0000000E+00  0.3125000E-01
    1      -19.956065
    2      -17.179783
    3      -17.169174
    4      -13.562041
    5      -13.553610
    6      -11.617642
    7       -9.931448
    8       -9.624637
    9       -8.963645
   10       -8.943956
   11       -7.816868
   12       -6.971321
   13       -6.961927
   14       -5.145100
   15       -5.106213
   16       -0.089717
   17        0.008597
   18        0.198428
   19        1.073184
   20        1.602529
   21        2.365480
   22        2.613506
 
  0.0000000E+00  0.5000000E+00  0.0000000E+00  0.1562500E-01
    1      -19.956172
    2      -17.179933
    3      -17.168683
    4      -13.561724
    5      -13.553792
    6      -11.618072
    7       -9.931762
    8       -9.624702
    9       -8.967414
   10       -8.940961
   11       -7.811420
   12       -6.968931
   13       -6.962095
   14       -5.156776
   15       -5.106201
   16       -0.094470
   17        0.007697
   18        0.356251
   19        0.376296
   20        2.622015
   21        2.827928
   22        2.899731
 
  0.2500000E+00  0.5000000E+00  0.0000000E+00  0.3125000E-01
    1      -19.956026
    2      -17.179866
    3      -17.169144
    4      -13.561733
    5      -13.553553
    6      -11.616779
    7       -9.932127
    8       -9.624570
    9       -8.966769
   10       -8.943801
   11       -7.816871
   12       -6.968819
   13       -6.961734
   14       -5.145082
   15       -5.106095
   16       -0.091796
   17        0.010816
   18        0.519154
   19        0.574186
   20        1.816771
   21        2.095422
   22        2.879287
 
  0.5000000E+00  0.5000000E+00  0.0000000E+00  0.1562500E-01
    1      -19.955891
    2      -17.179803
    3      -17.169613
    4      -13.561781
    5      -13.553281
    6      -11.615482
    7       -9.932495
    8       -9.624450
    9       -8.966154
   10       -8.946647
   11       -7.822204
   12       -6.968937
   13       -6.961239
   14       -5.136717
   15       -5.102655
   16       -0.096608
   17        0.021603
   18        0.946243
   19        0.998067
   20        1.092836
   21        1.373034
   22        2.795799
 
  0.0000000E+00  0.0000000E+00  0.2500000E+00  0.3125000E-01
    1      -19.955518
    2      -17.179472
    3      -17.170698
    4      -13.560863
    5      -13.555911
    6      -11.615793
    7       -9.927607
    8       -9.625395
    9       -8.959296
   10       -8.946891
   11       -7.827234
   12       -6.973001
   13       -6.965806
   14       -5.120908
   15       -5.112389
   16       -0.053517
   17        0.000132
   18        0.108689
   19        1.539165
   20        1.806514
   21        2.059729
   22        2.544524
 
  0.2500000E+00  0.0000000E+00  0.2500000E+00  0.3125000E-01
    1      -19.955397
    2      -17.179390
    3      -17.171098
    4      -13.560980
    5      -13.555741
    6      -11.615148
    7       -9.927956
    8       -9.625187
    9       -8.958826
   10       -8.946988
   11       -7.832806
   12       -6.973569
   13       -6.965578
   14       -5.116792
   15       -5.103967
   16       -0.032781
   17       -0.016652
   18        0.246403
   19        1.547290
   20        1.877994
   21        1.900281
   22        2.296958
 
  0.5000000E+00  0.0000000E+00  0.2500000E+00  0.3125000E-01
    1      -19.955248
    2      -17.179326
    3      -17.171570
    4      -13.561027
    5      -13.555479
    6      -11.613807
    7       -9.928332
    8       -9.625048
    9       -8.958180
   10       -8.949833
   11       -7.838258
   12       -6.973323
   13       -6.965373
   14       -5.119703
   15       -5.088670
   16       -0.043264
   17        0.008883
   18        0.708965
   19        0.847530
   20        1.893256
   21        2.213662
   22        2.296849
 
 -0.2500000E+00  0.0000000E+00  0.2500000E+00  0.3125000E-01
    1      -19.955368
    2      -17.179397
    3      -17.171153
    4      -13.560872
    5      -13.555684
    6      -11.614433
    7       -9.927976
    8       -9.625238
    9       -8.958641
   10       -8.949708
   11       -7.832811
   12       -6.972757
   13       -6.965540
   14       -5.116739
   15       -5.104179
   16       -0.022493
   17       -0.015921
   18        0.314650
   19        1.316575
   20        1.887731
   21        1.939699
   22        2.411203
 
  0.0000000E+00  0.2500000E+00  0.2500000E+00  0.3125000E-01
    1      -19.955503
    2      -17.179568
    3      -17.170672
    4      -13.560535
    5      -13.555887
    6      -11.614951
    7       -9.928298
    8       -9.625351
    9       -8.962262
   10       -8.946866
   11       -7.827249
   12       -6.970286
   13       -6.965829
   14       -5.120831
   15       -5.112296
   16       -0.054382
   17        0.000047
   18        0.225098
   19        1.094914
   20        1.925512
   21        2.404141
   22        2.635826
 
  0.2500000E+00  0.2500000E+00  0.2500000E+00  0.3125000E-01
    1      -19.955384
    2      -17.179494
    3      -17.171082
    4      -13.560704
    5      -13.555700
    6      -11.614344
    7       -9.928662
    8       -9.625156
    9       -8.961787
   10       -8.946934
   11       -7.832815
   12       -6.970912
   13       -6.965610
   14       -5.116683
   15       -5.103933
   16       -0.031460
   17       -0.020717
   18        0.350381
   19        1.237599
   20        1.822881
   21        2.046552
   22        2.455894
 
  0.5000000E+00  0.2500000E+00  0.2500000E+00  0.3125000E-01
    1      -19.955235
    2      -17.179428
    3      -17.171564
    4      -13.560781
    5      -13.555426
    6      -11.613010
    7       -9.929041
    8       -9.625025
    9       -8.961137
   10       -8.949769
   11       -7.838259
   12       -6.970852
   13       -6.965264
   14       -5.119665
   15       -5.088643
   16       -0.041803
   17        0.003826
   18        0.788494
   19        0.938804
   20        1.712348
   21        1.902432
   22        2.266014
 
 -0.2500000E+00  0.2500000E+00  0.2500000E+00  0.3125000E-01
    1      -19.955352
    2      -17.179481
    3      -17.171147
    4      -13.560558
    5      -13.555630
    6      -11.613616
    7       -9.928685
    8       -9.625199
    9       -8.961608
   10       -8.949678
   11       -7.832824
   12       -6.970224
   13       -6.965386
   14       -5.116674
   15       -5.104165
   16       -0.025915
   17       -0.014638
   18        0.430231
   19        1.180985
   20        1.659973
   21        2.053084
   22        2.575875
 
  0.0000000E+00  0.5000000E+00  0.2500000E+00  0.3125000E-01
    1      -19.955482
    2      -17.179650
    3      -17.170664
    4      -13.560217
    5      -13.555840
    6      -11.614077
    7       -9.928998
    8       -9.625316
    9       -8.965390
   10       -8.946802
   11       -7.827263
   12       -6.967878
   13       -6.965558
   14       -5.120871
   15       -5.112226
   16       -0.053282
   17        0.000891
   18        0.552703
   19        0.615961
   20        2.055321
   21        2.386726
   22        2.574143
 
  0.2500000E+00  0.5000000E+00  0.2500000E+00  0.3125000E-01
    1      -19.955370
    2      -17.179599
    3      -17.171079
    4      -13.560398
    5      -13.555656
    6      -11.613472
    7       -9.929371
    8       -9.625125
    9       -8.964899
   10       -8.946873
   11       -7.832834
   12       -6.968476
   13       -6.965422
   14       -5.116748
   15       -5.103955
   16       -0.029684
   17       -0.019764
   18        0.693201
   19        0.760504
   20        1.986251
   21        2.124139
   22        2.262803
 
  0.5000000E+00  0.5000000E+00  0.2500000E+00  0.3125000E-01
    1      -19.955221
    2      -17.179530
    3      -17.171550
    4      -13.560511
    5      -13.555338
    6      -11.612164
    7       -9.929717
    8       -9.624977
    9       -8.964202
   10       -8.949652
   11       -7.838270
   12       -6.968805
   13       -6.964688
   14       -5.119725
   15       -5.088674
   16       -0.040653
   17        0.004430
   18        1.040188
   19        1.118310
   20        1.298699
   21        1.599690
   22        2.260667
 
 -0.2500000E+00  0.5000000E+00  0.2500000E+00  0.3125000E-01
    1      -19.955343
    2      -17.179590
    3      -17.171148
    4      -13.560302
    5      -13.555587
    6      -11.612783
    7       -9.929370
    8       -9.625188
    9       -8.964684
   10       -8.949595
   11       -7.832840
   12       -6.968334
   13       -6.964695
   14       -5.116665
   15       -5.104171
   16       -0.025054
   17       -0.014675
   18        0.708660
   19        0.810853
   20        1.857209
   21        2.027045
   22        2.311626
 
  0.0000000E+00 -0.2500000E+00  0.2500000E+00  0.3125000E-01
    1      -19.955503
    2      -17.179563
    3      -17.170666
    4      -13.560530
    5      -13.555884
    6      -11.614917
    7       -9.928290
    8       -9.625332
    9       -8.962380
   10       -8.946852
   11       -7.827256
   12       -6.970349
   13       -6.965747
   14       -5.120940
   15       -5.112321
   16       -0.051306
   17       -0.000369
   18        0.238360
   19        1.118049
   20        1.859640
   21        2.365710
   22        2.706937
 
  0.2500000E+00 -0.2500000E+00  0.2500000E+00  0.3125000E-01
    1      -19.955384
    2      -17.179497
    3      -17.171086
    4      -13.560681
    5      -13.555696
    6      -11.614277
    7       -9.928647
    8       -9.625144
    9       -8.961936
   10       -8.946941
   11       -7.832821
   12       -6.970915
   13       -6.965546
   14       -5.116852
   15       -5.103986
   16       -0.031640
   17       -0.015653
   18        0.394558
   19        1.226923
   20        1.845750
   21        2.064837
   22        2.199663
 
  0.5000000E+00 -0.2500000E+00  0.2500000E+00  0.3125000E-01
    1      -19.955238
    2      -17.179427
    3      -17.171557
    4      -13.560781
    5      -13.555426
    6      -11.612971
    7       -9.929028
    8       -9.625003
    9       -8.961237
   10       -8.949762
   11       -7.838268
   12       -6.970949
   13       -6.965184
   14       -5.119769
   15       -5.088706
   16       -0.042330
   17        0.008964
   18        0.867205
   19        0.951297
   20        1.575848
   21        1.939327
   22        2.145965
 
 -0.2500000E+00 -0.2500000E+00  0.2500000E+00  0.3125000E-01
    1      -19.955363
    2      -17.179491
    3      -17.171144
    4      -13.560589
    5      -13.555616
    6      -11.613591
    7       -9.928655
    8       -9.625204
    9       -8.961679
   10       -8.949656
   11       -7.832837
   12       -6.970382
   13       -6.965289
   14       -5.116728
   15       -5.104180
   16       -0.022163
   17       -0.015891
   18        0.430402
   19        1.199789
   20        1.741425
   21        1.968167
   22        2.405152
 
  0.0000000E+00  0.0000000E+00  0.5000000E+00  0.1562500E-01
    1      -19.954810
    2      -17.179326
    3      -17.172498
    4      -13.559374
    5      -13.557909
    6      -11.611679
    7       -9.924786
    8       -9.625925
    9       -8.959075
   10       -8.951179
   11       -7.842300
   12       -6.971964
   13       -6.969425
   14       -5.125822
   15       -5.077389
   16       -0.077147
   17        0.063004
   18        0.746989
   19        0.790660
   20        1.999412
   21        2.321945
   22        2.418302
 
  0.2500000E+00  0.0000000E+00  0.5000000E+00  0.3125000E-01
    1      -19.954703
    2      -17.179275
    3      -17.172928
    4      -13.559624
    5      -13.557672
    6      -11.611062
    7       -9.925159
    8       -9.625758
    9       -8.958475
   10       -8.951359
   11       -7.847985
   12       -6.972546
   13       -6.969258
   14       -5.125319
   15       -5.064899
   16       -0.061076
   17        0.055499
   18        0.820587
   19        0.965848
   20        1.738497
   21        2.128184
   22        2.316751
 
  0.5000000E+00  0.0000000E+00  0.5000000E+00  0.1562500E-01
    1      -19.954563
    2      -17.179187
    3      -17.173342
    4      -13.559881
    5      -13.557346
    6      -11.610382
    7       -9.925523
    8       -9.625546
    9       -8.957841
   10       -8.951549
   11       -7.853512
   12       -6.973137
   13       -6.969127
   14       -5.126374
   15       -5.050796
   16       -0.056861
   17        0.061902
   18        0.947279
   19        1.426598
   20        1.439004
   21        1.490317
   22        2.608360
 
  0.0000000E+00  0.2500000E+00  0.5000000E+00  0.3125000E-01
    1      -19.954804
    2      -17.179446
    3      -17.172502
    4      -13.559172
    5      -13.557830
    6      -11.610877
    7       -9.925511
    8       -9.625928
    9       -8.961332
   10       -8.951888
   11       -7.842318
   12       -6.970234
   13       -6.968495
   14       -5.125851
   15       -5.077339
   16       -0.073005
   17        0.056129
   18        0.869460
   19        0.892915
   20        1.609695
   21        1.917923
   22        2.391676
 
  0.2500000E+00  0.2500000E+00  0.5000000E+00  0.3125000E-01
    1      -19.954699
    2      -17.179387
    3      -17.172941
    4      -13.559460
    5      -13.557535
    6      -11.610269
    7       -9.925888
    8       -9.625757
    9       -8.960734
   10       -8.951984
   11       -7.847993
   12       -6.970516
   13       -6.968740
   14       -5.125341
   15       -5.064880
   16       -0.058795
   17        0.050836
   18        0.891614
   19        1.064640
   20        1.737671
   21        1.921500
   22        2.146621
 
  0.5000000E+00  0.2500000E+00  0.5000000E+00  0.3125000E-01
    1      -19.954569
    2      -17.179295
    3      -17.173357
    4      -13.559731
    5      -13.557202
    6      -11.609614
    7       -9.926260
    8       -9.625557
    9       -8.960169
   10       -8.952120
   11       -7.853537
   12       -6.970873
   13       -6.968811
   14       -5.126437
   15       -5.050831
   16       -0.057635
   17        0.062440
   18        1.024290
   19        1.496313
   20        1.535984
   21        1.586405
   22        2.219928
 
 -0.2500000E+00  0.2500000E+00  0.5000000E+00  0.3125000E-01
    1      -19.954684
    2      -17.179377
    3      -17.172942
    4      -13.559440
    5      -13.557545
    6      -11.610250
    7       -9.925900
    8       -9.625753
    9       -8.960767
   10       -8.952017
   11       -7.847994
   12       -6.970448
   13       -6.968712
   14       -5.125375
   15       -5.064916
   16       -0.059088
   17        0.053317
   18        0.965967
   19        1.073556
   20        1.542352
   21        1.987737
   22        2.100157
 
  0.0000000E+00  0.5000000E+00  0.5000000E+00  0.1562500E-01
    1      -19.954811
    2      -17.179546
    3      -17.172521
    4      -13.559006
    5      -13.557670
    6      -11.610074
    7       -9.926238
    8       -9.625914
    9       -8.963932
   10       -8.952221
   11       -7.842350
   12       -6.970074
   13       -6.966008
   14       -5.125887
   15       -5.077300
   16       -0.068955
   17        0.050663
   18        1.122695
   19        1.141878
   20        1.166107
   21        1.536411
   22        2.391450
 
  0.2500000E+00  0.5000000E+00  0.5000000E+00  0.3125000E-01
    1      -19.954678
    2      -17.179469
    3      -17.172928
    4      -13.559310
    5      -13.557332
    6      -11.609437
    7       -9.926608
    8       -9.625741
    9       -8.963372
   10       -8.952288
   11       -7.847996
   12       -6.970028
   13       -6.966562
   14       -5.125384
   15       -5.064882
   16       -0.056573
   17        0.049163
   18        1.124621
   19        1.256392
   20        1.341333
   21        1.709620
   22        2.100509
 
  0.5000000E+00  0.5000000E+00  0.5000000E+00  0.1562500E-01
    1      -19.954565
    2      -17.179393
    3      -17.173367
    4      -13.559620
    5      -13.557045
    6      -11.608819
    7       -9.926992
    8       -9.625553
    9       -8.962800
   10       -8.952377
   11       -7.853547
   12       -6.970065
   13       -6.967105
   14       -5.126496
   15       -5.050848
   16       -0.057955
   17        0.063042
   18        1.126915
   19        1.596878
   20        1.649805
   21        1.850554
   22        1.915388
