  32  32   0   0
  0.6204108E+01  0.4934311E-09  0.4934311E-09  0.9416039E-09  0.5000000E-15
  1.000000000000000E-004
  CAR 
 graphite                                
     19.83975262    -13.97913913  301      8.55258596      1.00000000
    -13.979  0.0000E+00  0.0000E+00
    -13.866  0.0000E+00  0.0000E+00
    -13.754  0.0000E+00  0.0000E+00
    -13.641  0.0000E+00  0.0000E+00
    -13.528  0.0000E+00  0.0000E+00
    -13.415  0.0000E+00  0.0000E+00
    -13.303  0.0000E+00  0.0000E+00
    -13.190  0.0000E+00  0.0000E+00
    -13.077  0.0000E+00  0.0000E+00
    -12.965  0.3976E-14  0.4482E-15
    -12.852  0.1861E-09  0.2098E-10
    -12.739  0.7515E-06  0.8474E-07
    -12.626  0.3013E-03  0.3405E-04
    -12.514  0.1704E-01  0.1955E-02
    -12.401  0.2033E+00  0.2487E-01
    -12.288  0.6308E+00  0.9598E-01
    -12.175  0.9389E+00  0.2018E+00
    -12.063  0.1395E+01  0.3591E+00
    -11.950  0.1208E+01  0.4953E+00
    -11.837  0.1821E+01  0.7006E+00
    -11.725  0.1869E+01  0.9113E+00
    -11.612  0.1841E+01  0.1119E+01
    -11.499  0.2091E+01  0.1355E+01
    -11.386  0.2332E+01  0.1618E+01
    -11.274  0.2428E+01  0.1891E+01
    -11.161  0.2830E+01  0.2210E+01
    -11.048  0.2329E+01  0.2473E+01
    -10.935  0.2260E+01  0.2728E+01
    -10.823  0.3644E+01  0.3138E+01
    -10.710  0.3604E+01  0.3545E+01
    -10.597  0.2700E+01  0.3849E+01
    -10.485  0.2728E+01  0.4157E+01
    -10.372  0.3336E+01  0.4533E+01
    -10.259  0.4405E+01  0.5029E+01
    -10.146  0.3903E+01  0.5469E+01
    -10.034  0.3622E+01  0.5877E+01
     -9.921  0.3962E+01  0.6324E+01
     -9.808  0.4265E+01  0.6805E+01
     -9.695  0.4584E+01  0.7322E+01
     -9.583  0.4275E+01  0.7804E+01
     -9.470  0.4916E+01  0.8358E+01
     -9.357  0.6217E+01  0.9059E+01
     -9.244  0.5251E+01  0.9651E+01
     -9.132  0.4363E+01  0.1014E+02
     -9.019  0.4380E+01  0.1064E+02
     -8.906  0.4807E+01  0.1118E+02
     -8.794  0.5014E+01  0.1174E+02
     -8.681  0.5364E+01  0.1235E+02
     -8.568  0.5563E+01  0.1298E+02
     -8.455  0.5846E+01  0.1363E+02
     -8.343  0.4075E+01  0.1409E+02
     -8.230  0.4948E+01  0.1465E+02
     -8.117  0.5628E+01  0.1529E+02
     -8.004  0.4258E+01  0.1577E+02
     -7.892  0.4517E+01  0.1628E+02
     -7.779  0.5383E+01  0.1688E+02
     -7.666  0.6680E+01  0.1763E+02
     -7.554  0.5572E+01  0.1826E+02
     -7.441  0.4256E+01  0.1874E+02
     -7.328  0.5064E+01  0.1931E+02
     -7.215  0.6097E+01  0.2000E+02
     -7.103  0.4917E+01  0.2056E+02
     -6.990  0.3898E+01  0.2099E+02
     -6.877  0.6038E+01  0.2168E+02
     -6.764  0.6527E+01  0.2241E+02
     -6.652  0.5233E+01  0.2300E+02
     -6.539  0.6399E+01  0.2372E+02
     -6.426  0.5827E+01  0.2438E+02
     -6.314  0.5704E+01  0.2502E+02
     -6.201  0.4005E+01  0.2547E+02
     -6.088  0.4174E+01  0.2594E+02
     -5.975  0.5294E+01  0.2654E+02
     -5.863  0.6309E+01  0.2725E+02
     -5.750  0.7142E+01  0.2806E+02
     -5.637  0.6900E+01  0.2884E+02
     -5.524  0.4946E+01  0.2939E+02
     -5.412  0.3817E+01  0.2982E+02
     -5.299  0.3711E+01  0.3024E+02
     -5.186  0.3372E+01  0.3062E+02
     -5.073  0.2496E+01  0.3090E+02
     -4.961  0.2633E+01  0.3120E+02
     -4.848  0.3459E+01  0.3159E+02
     -4.735  0.3850E+01  0.3202E+02
     -4.623  0.4934E+01  0.3258E+02
     -4.510  0.6335E+01  0.3329E+02
     -4.397  0.5493E+01  0.3391E+02
     -4.284  0.5050E+01  0.3448E+02
     -4.172  0.5344E+01  0.3509E+02
     -4.059  0.5073E+01  0.3566E+02
     -3.946  0.7872E+01  0.3654E+02
     -3.833  0.6967E+01  0.3733E+02
     -3.721  0.5332E+01  0.3793E+02
     -3.608  0.5847E+01  0.3859E+02
     -3.495  0.6009E+01  0.3927E+02
     -3.383  0.5589E+01  0.3990E+02
     -3.270  0.6041E+01  0.4058E+02
     -3.157  0.5521E+01  0.4120E+02
     -3.044  0.4705E+01  0.4173E+02
     -2.932  0.4605E+01  0.4225E+02
     -2.819  0.5042E+01  0.4282E+02
     -2.706  0.5802E+01  0.4347E+02
     -2.593  0.5287E+01  0.4407E+02
     -2.481  0.3768E+01  0.4449E+02
     -2.368  0.4522E+01  0.4500E+02
     -2.255  0.5085E+01  0.4558E+02
     -2.143  0.4319E+01  0.4606E+02
     -2.030  0.4261E+01  0.4654E+02
     -1.917  0.6775E+01  0.4731E+02
     -1.804  0.9042E+01  0.4833E+02
     -1.692  0.7556E+01  0.4918E+02
     -1.579  0.4904E+01  0.4973E+02
     -1.466  0.4407E+01  0.5023E+02
     -1.353  0.4874E+01  0.5078E+02
     -1.241  0.6944E+01  0.5156E+02
     -1.128  0.9674E+01  0.5265E+02
     -1.015  0.1058E+02  0.5384E+02
     -0.903  0.7562E+01  0.5470E+02
     -0.790  0.4714E+01  0.5523E+02
     -0.677  0.5149E+01  0.5581E+02
     -0.564  0.6944E+01  0.5659E+02
     -0.452  0.7632E+01  0.5745E+02
     -0.339  0.7577E+01  0.5831E+02
     -0.226  0.9051E+01  0.5933E+02
     -0.113  0.9423E+01  0.6039E+02
     -0.001  0.8087E+01  0.6130E+02
      0.112  0.6570E+01  0.6204E+02
      0.225  0.7736E+01  0.6291E+02
      0.338  0.9712E+01  0.6401E+02
      0.450  0.9372E+01  0.6506E+02
      0.563  0.6999E+01  0.6585E+02
      0.676  0.8605E+01  0.6682E+02
      0.788  0.9460E+01  0.6789E+02
      0.901  0.8556E+01  0.6885E+02
      1.014  0.9365E+01  0.6991E+02
      1.127  0.1103E+02  0.7115E+02
      1.239  0.1087E+02  0.7238E+02
      1.352  0.9520E+01  0.7345E+02
      1.465  0.1059E+02  0.7464E+02
      1.578  0.1063E+02  0.7584E+02
      1.690  0.1098E+02  0.7708E+02
      1.803  0.1172E+02  0.7840E+02
      1.916  0.1425E+02  0.8001E+02
      2.028  0.1521E+02  0.8172E+02
      2.141  0.1335E+02  0.8323E+02
      2.254  0.1183E+02  0.8456E+02
      2.367  0.1394E+02  0.8613E+02
      2.479  0.1147E+02  0.8743E+02
      2.592  0.8580E+01  0.8839E+02
      2.705  0.9168E+01  0.8943E+02
      2.818  0.1336E+02  0.9093E+02
      2.930  0.1427E+02  0.9254E+02
      3.043  0.9289E+01  0.9359E+02
      3.156  0.9901E+01  0.9471E+02
      3.268  0.8841E+01  0.9570E+02
      3.381  0.8262E+01  0.9663E+02
      3.494  0.9087E+01  0.9766E+02
      3.607  0.8954E+01  0.9867E+02
      3.719  0.9709E+01  0.9976E+02
      3.832  0.8751E+01  0.1007E+03
      3.945  0.1003E+02  0.1019E+03
      4.058  0.8920E+01  0.1029E+03
      4.170  0.8259E+01  0.1038E+03
      4.283  0.7389E+01  0.1046E+03
      4.396  0.7625E+01  0.1055E+03
      4.509  0.7784E+01  0.1064E+03
      4.621  0.7917E+01  0.1073E+03
      4.734  0.7985E+01  0.1082E+03
      4.847  0.7676E+01  0.1090E+03
      4.959  0.7594E+01  0.1099E+03
      5.072  0.7904E+01  0.1108E+03
      5.185  0.7938E+01  0.1117E+03
      5.298  0.6574E+01  0.1124E+03
      5.410  0.6107E+01  0.1131E+03
      5.523  0.4268E+01  0.1136E+03
      5.636  0.3321E+01  0.1140E+03
      5.749  0.4478E+01  0.1145E+03
      5.861  0.5482E+01  0.1151E+03
      5.974  0.4008E+01  0.1155E+03
      6.087  0.4227E+01  0.1160E+03
      6.199  0.4272E+01  0.1165E+03
      6.312  0.4401E+01  0.1170E+03
      6.425  0.5335E+01  0.1176E+03
      6.538  0.5115E+01  0.1182E+03
      6.650  0.5273E+01  0.1188E+03
      6.763  0.6245E+01  0.1195E+03
      6.876  0.7232E+01  0.1203E+03
      6.989  0.7213E+01  0.1211E+03
      7.101  0.5985E+01  0.1218E+03
      7.214  0.6877E+01  0.1226E+03
      7.327  0.5270E+01  0.1231E+03
      7.439  0.4750E+01  0.1237E+03
      7.552  0.4875E+01  0.1242E+03
      7.665  0.6589E+01  0.1250E+03
      7.778  0.8170E+01  0.1259E+03
      7.890  0.5164E+01  0.1265E+03
      8.003  0.2875E+01  0.1268E+03
      8.116  0.2587E+01  0.1271E+03
      8.229  0.2300E+01  0.1274E+03
      8.341  0.1845E+01  0.1276E+03
      8.454  0.1927E+01  0.1278E+03
      8.567  0.2219E+01  0.1280E+03
      8.680  0.2065E+01  0.1283E+03
      8.792  0.1508E+01  0.1284E+03
      8.905  0.1007E+01  0.1285E+03
      9.018  0.1172E+01  0.1287E+03
      9.130  0.1028E+01  0.1288E+03
      9.243  0.2026E+00  0.1288E+03
      9.356  0.3447E+00  0.1289E+03
      9.469  0.8105E+00  0.1289E+03
      9.581  0.1538E+01  0.1291E+03
      9.694  0.4333E+01  0.1296E+03
      9.807  0.3637E+01  0.1300E+03
      9.920  0.1240E+01  0.1302E+03
     10.032  0.1988E+01  0.1304E+03
     10.145  0.4688E+01  0.1309E+03
     10.258  0.6581E+01  0.1317E+03
     10.370  0.4712E+01  0.1322E+03
     10.483  0.4148E+01  0.1327E+03
     10.596  0.6508E+01  0.1334E+03
     10.709  0.6872E+01  0.1342E+03
     10.821  0.5151E+01  0.1347E+03
     10.934  0.5706E+01  0.1354E+03
     11.047  0.5731E+01  0.1360E+03
     11.160  0.5902E+01  0.1367E+03
     11.272  0.5687E+01  0.1373E+03
     11.385  0.3567E+01  0.1377E+03
     11.498  0.4430E+01  0.1382E+03
     11.610  0.5410E+01  0.1388E+03
     11.723  0.6049E+01  0.1395E+03
     11.836  0.4743E+01  0.1401E+03
     11.949  0.2812E+01  0.1404E+03
     12.061  0.2972E+01  0.1407E+03
     12.174  0.4043E+01  0.1412E+03
     12.287  0.6508E+01  0.1419E+03
     12.400  0.7005E+01  0.1427E+03
     12.512  0.3575E+01  0.1431E+03
     12.625  0.3596E+01  0.1435E+03
     12.738  0.4850E+01  0.1441E+03
     12.851  0.4235E+01  0.1445E+03
     12.963  0.4365E+01  0.1450E+03
     13.076  0.4438E+01  0.1455E+03
     13.189  0.5051E+01  0.1461E+03
     13.301  0.3739E+01  0.1465E+03
     13.414  0.2298E+01  0.1468E+03
     13.527  0.2193E+01  0.1470E+03
     13.640  0.3606E+01  0.1474E+03
     13.752  0.4676E+01  0.1480E+03
     13.865  0.4032E+01  0.1484E+03
     13.978  0.2877E+01  0.1487E+03
     14.091  0.2371E+01  0.1490E+03
     14.203  0.3163E+01  0.1494E+03
     14.316  0.4169E+01  0.1498E+03
     14.429  0.4254E+01  0.1503E+03
     14.541  0.2821E+01  0.1506E+03
     14.654  0.4599E+01  0.1511E+03
     14.767  0.7328E+01  0.1520E+03
     14.880  0.6197E+01  0.1527E+03
     14.992  0.3725E+01  0.1531E+03
     15.105  0.3202E+01  0.1534E+03
     15.218  0.6051E+01  0.1541E+03
     15.331  0.6148E+01  0.1548E+03
     15.443  0.4919E+01  0.1554E+03
     15.556  0.4351E+01  0.1559E+03
     15.669  0.7551E+01  0.1567E+03
     15.781  0.9337E+01  0.1578E+03
     15.894  0.6913E+01  0.1585E+03
     16.007  0.6266E+01  0.1593E+03
     16.120  0.6504E+01  0.1600E+03
     16.232  0.7929E+01  0.1609E+03
     16.345  0.8978E+01  0.1619E+03
     16.458  0.8836E+01  0.1629E+03
     16.571  0.7945E+01  0.1638E+03
     16.683  0.4985E+01  0.1643E+03
     16.796  0.4437E+01  0.1648E+03
     16.909  0.5587E+01  0.1655E+03
     17.022  0.4720E+01  0.1660E+03
     17.134  0.3495E+01  0.1664E+03
     17.247  0.2788E+01  0.1667E+03
     17.360  0.3655E+01  0.1671E+03
     17.472  0.2693E+01  0.1674E+03
     17.585  0.1378E+01  0.1676E+03
     17.698  0.1512E+01  0.1678E+03
     17.811  0.9385E+00  0.1679E+03
     17.923  0.5980E+00  0.1679E+03
     18.036  0.2527E+00  0.1680E+03
     18.149  0.5587E-01  0.1680E+03
     18.262  0.1241E+00  0.1680E+03
     18.374  0.1376E+00  0.1680E+03
     18.487  0.3058E-01  0.1680E+03
     18.600  0.8409E-03  0.1680E+03
     18.712  0.2271E-05  0.1680E+03
     18.825  0.5445E-09  0.1680E+03
     18.938  0.1106E-13  0.1680E+03
     19.051  0.0000E+00  0.1680E+03
     19.163  0.0000E+00  0.1680E+03
     19.276  0.0000E+00  0.1680E+03
     19.389  0.0000E+00  0.1680E+03
     19.502  0.0000E+00  0.1680E+03
     19.614  0.0000E+00  0.1680E+03
     19.727  0.0000E+00  0.1680E+03
     19.840  0.0000E+00  0.1680E+03
