  32  32   0   0
  0.9167123E+01  0.4932875E-09  0.4932875E-09  0.1392668E-08  0.5000000E-15
  1.000000000000000E-004
  CAR 
 graphite                                
     14.88741076    -17.24218468  301      4.35498005      1.00000000
    -17.242  0.0000E+00  0.0000E+00
    -17.135  0.0000E+00  0.0000E+00
    -17.028  0.0000E+00  0.0000E+00
    -16.921  0.0000E+00  0.0000E+00
    -16.814  0.0000E+00  0.0000E+00
    -16.707  0.0000E+00  0.0000E+00
    -16.600  0.0000E+00  0.0000E+00
    -16.492  0.0000E+00  0.0000E+00
    -16.385  0.0000E+00  0.0000E+00
    -16.278  0.0000E+00  0.0000E+00
    -16.171  0.0000E+00  0.0000E+00
    -16.064  0.0000E+00  0.0000E+00
    -15.957  0.0000E+00  0.0000E+00
    -15.850  0.0000E+00  0.0000E+00
    -15.743  0.0000E+00  0.0000E+00
    -15.636  0.0000E+00  0.0000E+00
    -15.529  0.0000E+00  0.0000E+00
    -15.422  0.0000E+00  0.0000E+00
    -15.314  0.0000E+00  0.0000E+00
    -15.207  0.2823E+00  0.3764E-02
    -15.100  0.2573E+01  0.1412E+00
    -14.993  0.4071E+01  0.4957E+00
    -14.886  0.5160E+01  0.1008E+01
    -14.779  0.4857E+01  0.1520E+01
    -14.672  0.5123E+01  0.2059E+01
    -14.565  0.5022E+01  0.2604E+01
    -14.458  0.4808E+01  0.3130E+01
    -14.351  0.4841E+01  0.3643E+01
    -14.243  0.5067E+01  0.4174E+01
    -14.136  0.5293E+01  0.4729E+01
    -14.029  0.7176E+01  0.5379E+01
    -13.922  0.7948E+01  0.6194E+01
    -13.815  0.6200E+01  0.7040E+01
    -13.708  0.2507E+01  0.7479E+01
    -13.601  0.1878E+01  0.7701E+01
    -13.494  0.2141E+01  0.7912E+01
    -13.387  0.2505E+01  0.8161E+01
    -13.280  0.2871E+01  0.8449E+01
    -13.172  0.7440E+01  0.8891E+01
    -13.065  0.9442E+01  0.9994E+01
    -12.958  0.7169E+01  0.1093E+02
    -12.851  0.3995E+01  0.1142E+02
    -12.744  0.4095E+01  0.1185E+02
    -12.637  0.4196E+01  0.1229E+02
    -12.530  0.4325E+01  0.1275E+02
    -12.423  0.4458E+01  0.1322E+02
    -12.316  0.4582E+01  0.1370E+02
    -12.209  0.4707E+01  0.1420E+02
    -12.101  0.5414E+01  0.1474E+02
    -11.994  0.6290E+01  0.1536E+02
    -11.887  0.6158E+01  0.1604E+02
    -11.780  0.5651E+01  0.1667E+02
    -11.673  0.5403E+01  0.1726E+02
    -11.566  0.5566E+01  0.1785E+02
    -11.459  0.5728E+01  0.1845E+02
    -11.352  0.5891E+01  0.1908E+02
    -11.245  0.6054E+01  0.1972E+02
    -11.138  0.5608E+01  0.2034E+02
    -11.030  0.5336E+01  0.2092E+02
    -10.923  0.5379E+01  0.2149E+02
    -10.816  0.4327E+01  0.2202E+02
    -10.709  0.4366E+01  0.2247E+02
    -10.602  0.4991E+01  0.2298E+02
    -10.495  0.5168E+01  0.2352E+02
    -10.388  0.5346E+01  0.2408E+02
    -10.281  0.7502E+01  0.2476E+02
    -10.174  0.1128E+02  0.2584E+02
    -10.067  0.9003E+01  0.2693E+02
     -9.959  0.6722E+01  0.2777E+02
     -9.852  0.4824E+01  0.2837E+02
     -9.745  0.4357E+01  0.2887E+02
     -9.638  0.3904E+01  0.2931E+02
     -9.531  0.3452E+01  0.2970E+02
     -9.424  0.6625E+01  0.3041E+02
     -9.317  0.2035E+01  0.3089E+02
     -9.210  0.1835E+01  0.3110E+02
     -9.103  0.1634E+01  0.3129E+02
     -8.996  0.1434E+01  0.3145E+02
     -8.888  0.1233E+01  0.3159E+02
     -8.781  0.1505E+01  0.3173E+02
     -8.674  0.2002E+01  0.3192E+02
     -8.567  0.2499E+01  0.3216E+02
     -8.460  0.3087E+01  0.3246E+02
     -8.353  0.7049E+01  0.3297E+02
     -8.246  0.1170E+02  0.3398E+02
     -8.139  0.4983E+01  0.3470E+02
     -8.032  0.5545E+01  0.3524E+02
     -7.925  0.6678E+01  0.3589E+02
     -7.818  0.7811E+01  0.3667E+02
     -7.710  0.8944E+01  0.3756E+02
     -7.603  0.9685E+01  0.3858E+02
     -7.496  0.5613E+01  0.3937E+02
     -7.389  0.5562E+01  0.3997E+02
     -7.282  0.5659E+01  0.4057E+02
     -7.175  0.5518E+01  0.4117E+02
     -7.068  0.5369E+01  0.4175E+02
     -6.961  0.5193E+01  0.4232E+02
     -6.854  0.5074E+01  0.4287E+02
     -6.747  0.4956E+01  0.4340E+02
     -6.639  0.4838E+01  0.4393E+02
     -6.532  0.4719E+01  0.4444E+02
     -6.425  0.4601E+01  0.4494E+02
     -6.318  0.4482E+01  0.4542E+02
     -6.211  0.4374E+01  0.4590E+02
     -6.104  0.4782E+01  0.4638E+02
     -5.997  0.5360E+01  0.4692E+02
     -5.890  0.5939E+01  0.4753E+02
     -5.783  0.6517E+01  0.4820E+02
     -5.676  0.7096E+01  0.4892E+02
     -5.568  0.7675E+01  0.4972E+02
     -5.461  0.8253E+01  0.5057E+02
     -5.354  0.8832E+01  0.5148E+02
     -5.247  0.5095E+01  0.5231E+02
     -5.140  0.4820E+01  0.5276E+02
     -5.033  0.7188E+01  0.5347E+02
     -4.926  0.5762E+01  0.5416E+02
     -4.819  0.4337E+01  0.5470E+02
     -4.712  0.2911E+01  0.5509E+02
     -4.605  0.1486E+01  0.5532E+02
     -4.497  0.1740E+01  0.5546E+02
     -4.390  0.3181E+01  0.5573E+02
     -4.283  0.4623E+01  0.5614E+02
     -4.176  0.6064E+01  0.5672E+02
     -4.069  0.1170E+02  0.5765E+02
     -3.962  0.1088E+02  0.5886E+02
     -3.855  0.1126E+02  0.6001E+02
     -3.748  0.1074E+02  0.6133E+02
     -3.641  0.5107E+01  0.6214E+02
     -3.534  0.5392E+01  0.6268E+02
     -3.426  0.6363E+01  0.6331E+02
     -3.319  0.8973E+01  0.6408E+02
     -3.212  0.1406E+02  0.6532E+02
     -3.105  0.2050E+02  0.6714E+02
     -2.998  0.6670E+01  0.6891E+02
     -2.891  0.6739E+01  0.6962E+02
     -2.784  0.7021E+01  0.7035E+02
     -2.677  0.7449E+01  0.7113E+02
     -2.570  0.9315E+01  0.7199E+02
     -2.463  0.1802E+02  0.7338E+02
     -2.355  0.1435E+02  0.7509E+02
     -2.248  0.1159E+02  0.7647E+02
     -2.141  0.1416E+02  0.7774E+02
     -2.034  0.3974E+02  0.8038E+02
     -1.927  0.1889E+02  0.8264E+02
     -1.820  0.1289E+02  0.8466E+02
     -1.713  0.1393E+02  0.8607E+02
     -1.606  0.1588E+02  0.8767E+02
     -1.499  0.9913E+01  0.8912E+02
     -1.392  0.6683E+01  0.9001E+02
     -1.284  0.7632E+01  0.9075E+02
     -1.177  0.8305E+01  0.9161E+02
     -1.070  0.9093E+01  0.9254E+02
     -0.963  0.1032E+02  0.9358E+02
     -0.856  0.1021E+02  0.9468E+02
     -0.749  0.1067E+02  0.9578E+02
     -0.642  0.1922E+02  0.9750E+02
     -0.535  0.1135E+02  0.9878E+02
     -0.428  0.1159E+02  0.9999E+02
     -0.321  0.1190E+02  0.1013E+03
     -0.213  0.1019E+02  0.1024E+03
     -0.106  0.1020E+02  0.1035E+03
      0.001  0.9793E+01  0.1046E+03
      0.108  0.9618E+01  0.1056E+03
      0.215  0.9528E+01  0.1067E+03
      0.322  0.9537E+01  0.1077E+03
      0.429  0.9201E+01  0.1087E+03
      0.536  0.9008E+01  0.1097E+03
      0.643  0.9051E+01  0.1106E+03
      0.750  0.9682E+01  0.1116E+03
      0.857  0.9689E+01  0.1127E+03
      0.965  0.1010E+02  0.1137E+03
      1.072  0.1096E+02  0.1149E+03
      1.179  0.9640E+01  0.1160E+03
      1.286  0.8201E+01  0.1169E+03
      1.393  0.6633E+01  0.1177E+03
      1.500  0.5886E+01  0.1184E+03
      1.607  0.4997E+01  0.1190E+03
      1.714  0.3728E+01  0.1194E+03
      1.821  0.2823E+01  0.1198E+03
      1.928  0.3456E+01  0.1201E+03
      2.036  0.5110E+01  0.1206E+03
      2.143  0.7624E+01  0.1212E+03
      2.250  0.1198E+02  0.1222E+03
      2.357  0.7881E+01  0.1232E+03
      2.464  0.6775E+01  0.1240E+03
      2.571  0.5973E+01  0.1247E+03
      2.678  0.4518E+01  0.1253E+03
      2.785  0.3694E+01  0.1257E+03
      2.892  0.3245E+01  0.1261E+03
      2.999  0.2899E+01  0.1264E+03
      3.107  0.2543E+01  0.1267E+03
      3.214  0.2214E+01  0.1269E+03
      3.321  0.1908E+01  0.1272E+03
      3.428  0.1554E+01  0.1274E+03
      3.535  0.1344E+01  0.1275E+03
      3.642  0.1134E+01  0.1276E+03
      3.749  0.9236E+00  0.1277E+03
      3.856  0.7136E+00  0.1278E+03
      3.963  0.5293E+00  0.1279E+03
      4.070  0.3662E+00  0.1280E+03
      4.178  0.2171E+00  0.1280E+03
      4.285  0.8025E-01  0.1280E+03
      4.392  0.2845E-01  0.1280E+03
      4.499  0.1419E+00  0.1280E+03
      4.606  0.2684E+00  0.1280E+03
      4.713  0.4104E+00  0.1281E+03
      4.820  0.5706E+00  0.1281E+03
      4.927  0.7629E+00  0.1282E+03
      5.034  0.9877E+00  0.1283E+03
      5.141  0.1213E+01  0.1284E+03
      5.249  0.1438E+01  0.1285E+03
      5.356  0.1664E+01  0.1287E+03
      5.463  0.1889E+01  0.1289E+03
      5.570  0.3287E+01  0.1292E+03
      5.677  0.3874E+01  0.1296E+03
      5.784  0.4235E+01  0.1300E+03
      5.891  0.6559E+01  0.1305E+03
      5.998  0.1004E+02  0.1315E+03
      6.105  0.1042E+02  0.1327E+03
      6.212  0.8195E+01  0.1337E+03
      6.320  0.6635E+01  0.1345E+03
      6.427  0.6045E+01  0.1352E+03
      6.534  0.5710E+01  0.1358E+03
      6.641  0.5201E+01  0.1364E+03
      6.748  0.4549E+01  0.1369E+03
      6.855  0.4145E+01  0.1374E+03
      6.962  0.3769E+01  0.1378E+03
      7.069  0.3799E+01  0.1382E+03
      7.176  0.4151E+01  0.1386E+03
      7.283  0.4602E+01  0.1391E+03
      7.391  0.4847E+01  0.1396E+03
      7.498  0.4736E+01  0.1401E+03
      7.605  0.4623E+01  0.1406E+03
      7.712  0.4432E+01  0.1411E+03
      7.819  0.4267E+01  0.1416E+03
      7.926  0.4156E+01  0.1420E+03
      8.033  0.4082E+01  0.1424E+03
      8.140  0.4032E+01  0.1429E+03
      8.247  0.3993E+01  0.1433E+03
      8.354  0.3966E+01  0.1437E+03
      8.461  0.4043E+01  0.1442E+03
      8.569  0.4208E+01  0.1446E+03
      8.676  0.4088E+01  0.1451E+03
      8.783  0.3964E+01  0.1455E+03
      8.890  0.3898E+01  0.1459E+03
      8.997  0.3873E+01  0.1463E+03
      9.104  0.3829E+01  0.1467E+03
      9.211  0.3848E+01  0.1471E+03
      9.318  0.3883E+01  0.1476E+03
      9.425  0.3915E+01  0.1480E+03
      9.532  0.3947E+01  0.1484E+03
      9.640  0.3977E+01  0.1488E+03
      9.747  0.3999E+01  0.1492E+03
      9.854  0.4265E+01  0.1497E+03
      9.961  0.4643E+01  0.1502E+03
     10.068  0.6424E+01  0.1507E+03
     10.175  0.5655E+01  0.1514E+03
     10.282  0.5432E+01  0.1520E+03
     10.389  0.5555E+01  0.1526E+03
     10.496  0.5415E+01  0.1532E+03
     10.603  0.6572E+01  0.1538E+03
     10.711  0.4232E+01  0.1544E+03
     10.818  0.2734E+01  0.1548E+03
     10.925  0.3235E+01  0.1551E+03
     11.032  0.4008E+01  0.1555E+03
     11.139  0.3161E+01  0.1558E+03
     11.246  0.2996E+01  0.1562E+03
     11.353  0.3068E+01  0.1565E+03
     11.460  0.3229E+01  0.1568E+03
     11.567  0.4044E+01  0.1572E+03
     11.674  0.6620E+01  0.1577E+03
     11.782  0.7381E+01  0.1585E+03
     11.889  0.9526E+01  0.1594E+03
     11.996  0.1142E+02  0.1606E+03
     12.103  0.1294E+02  0.1619E+03
     12.210  0.1320E+02  0.1633E+03
     12.317  0.1347E+02  0.1647E+03
     12.424  0.1325E+02  0.1662E+03
     12.531  0.8639E+01  0.1674E+03
     12.638  0.1584E+01  0.1680E+03
     12.745  0.7029E-01  0.1680E+03
     12.853  0.4241E-02  0.1680E+03
     12.960  0.0000E+00  0.1680E+03
     13.067  0.0000E+00  0.1680E+03
     13.174  0.0000E+00  0.1680E+03
     13.281  0.0000E+00  0.1680E+03
     13.388  0.0000E+00  0.1680E+03
     13.495  0.0000E+00  0.1680E+03
     13.602  0.0000E+00  0.1680E+03
     13.709  0.0000E+00  0.1680E+03
     13.816  0.0000E+00  0.1680E+03
     13.924  0.0000E+00  0.1680E+03
     14.031  0.0000E+00  0.1680E+03
     14.138  0.0000E+00  0.1680E+03
     14.245  0.0000E+00  0.1680E+03
     14.352  0.0000E+00  0.1680E+03
     14.459  0.0000E+00  0.1680E+03
     14.566  0.0000E+00  0.1680E+03
     14.673  0.0000E+00  0.1680E+03
     14.780  0.0000E+00  0.1680E+03
     14.887  0.0000E+00  0.1680E+03
