  16  16   0   0
  0.6458258E+01  0.5267244E-09  0.5267244E-09  0.5267244E-09  0.5000000E-15
  1.000000000000000E-004
  CAR 
 diamond                                 
     19.10788446    -13.84665288  301      8.02005575      1.00000000
    -13.847  0.0000E+00  0.0000E+00
    -13.737  0.0000E+00  0.0000E+00
    -13.627  0.0000E+00  0.0000E+00
    -13.517  0.0000E+00  0.0000E+00
    -13.407  0.0000E+00  0.0000E+00
    -13.297  0.0000E+00  0.0000E+00
    -13.188  0.0000E+00  0.0000E+00
    -13.078  0.0000E+00  0.0000E+00
    -12.968  0.0000E+00  0.0000E+00
    -12.858  0.0000E+00  0.0000E+00
    -12.748  0.0000E+00  0.0000E+00
    -12.638  0.0000E+00  0.0000E+00
    -12.528  0.0000E+00  0.0000E+00
    -12.419  0.0000E+00  0.0000E+00
    -12.309  0.0000E+00  0.0000E+00
    -12.199  0.0000E+00  0.0000E+00
    -12.089  0.0000E+00  0.0000E+00
    -11.979  0.0000E+00  0.0000E+00
    -11.869  0.0000E+00  0.0000E+00
    -11.760  0.7246E-01  0.2104E-02
    -11.650  0.3477E+00  0.2411E-01
    -11.540  0.5106E+00  0.7194E-01
    -11.430  0.5857E+00  0.1326E+00
    -11.320  0.6855E+00  0.2024E+00
    -11.210  0.7753E+00  0.2828E+00
    -11.100  0.8374E+00  0.3717E+00
    -10.991  0.9076E+00  0.4673E+00
    -10.881  0.9961E+00  0.5717E+00
    -10.771  0.1114E+01  0.6872E+00
    -10.661  0.1287E+01  0.8183E+00
    -10.551  0.1511E+01  0.9717E+00
    -10.441  0.1752E+01  0.1151E+01
    -10.332  0.1687E+01  0.1350E+01
    -10.222  0.1413E+01  0.1516E+01
    -10.112  0.1339E+01  0.1667E+01
    -10.002  0.1199E+01  0.1807E+01
     -9.892  0.1019E+01  0.1930E+01
     -9.782  0.9528E+00  0.2033E+01
     -9.672  0.1130E+01  0.2143E+01
     -9.563  0.1394E+01  0.2282E+01
     -9.453  0.1931E+01  0.2460E+01
     -9.343  0.2212E+01  0.2700E+01
     -9.233  0.1874E+01  0.2927E+01
     -9.123  0.1630E+01  0.3117E+01
     -9.013  0.1688E+01  0.3295E+01
     -8.903  0.1736E+01  0.3481E+01
     -8.794  0.1918E+01  0.3683E+01
     -8.684  0.1943E+01  0.3896E+01
     -8.574  0.2032E+01  0.4113E+01
     -8.464  0.2132E+01  0.4342E+01
     -8.354  0.2144E+01  0.4578E+01
     -8.244  0.2180E+01  0.4815E+01
     -8.135  0.2271E+01  0.5059E+01
     -8.025  0.2228E+01  0.5309E+01
     -7.915  0.2217E+01  0.5553E+01
     -7.805  0.2195E+01  0.5795E+01
     -7.695  0.2438E+01  0.6043E+01
     -7.585  0.2674E+01  0.6338E+01
     -7.475  0.2650E+01  0.6629E+01
     -7.366  0.2750E+01  0.6920E+01
     -7.256  0.2891E+01  0.7233E+01
     -7.146  0.3090E+01  0.7558E+01
     -7.036  0.3489E+01  0.7920E+01
     -6.926  0.3945E+01  0.8328E+01
     -6.816  0.4552E+01  0.8792E+01
     -6.707  0.4518E+01  0.9335E+01
     -6.597  0.3003E+01  0.9740E+01
     -6.487  0.2032E+01  0.1001E+02
     -6.377  0.1790E+01  0.1021E+02
     -6.267  0.2218E+01  0.1043E+02
     -6.157  0.2417E+01  0.1068E+02
     -6.047  0.2858E+01  0.1097E+02
     -5.938  0.3171E+01  0.1130E+02
     -5.828  0.3153E+01  0.1166E+02
     -5.718  0.2786E+01  0.1198E+02
     -5.608  0.2633E+01  0.1228E+02
     -5.498  0.2527E+01  0.1256E+02
     -5.388  0.2358E+01  0.1283E+02
     -5.278  0.2343E+01  0.1309E+02
     -5.169  0.2444E+01  0.1335E+02
     -5.059  0.2818E+01  0.1364E+02
     -4.949  0.2912E+01  0.1396E+02
     -4.839  0.2987E+01  0.1428E+02
     -4.729  0.2839E+01  0.1460E+02
     -4.619  0.2662E+01  0.1491E+02
     -4.510  0.2301E+01  0.1518E+02
     -4.400  0.1964E+01  0.1541E+02
     -4.290  0.1781E+01  0.1561E+02
     -4.180  0.1230E+01  0.1579E+02
     -4.070  0.6026E+00  0.1588E+02
     -3.960  0.3715E+00  0.1593E+02
     -3.850  0.4823E+00  0.1597E+02
     -3.741  0.8524E+00  0.1605E+02
     -3.631  0.1189E+01  0.1616E+02
     -3.521  0.1469E+01  0.1631E+02
     -3.411  0.1809E+01  0.1649E+02
     -3.301  0.2127E+01  0.1670E+02
     -3.191  0.2642E+01  0.1696E+02
     -3.082  0.3378E+01  0.1729E+02
     -2.972  0.4622E+01  0.1772E+02
     -2.862  0.5394E+01  0.1828E+02
     -2.752  0.5881E+01  0.1890E+02
     -2.642  0.6431E+01  0.1957E+02
     -2.532  0.6252E+01  0.2028E+02
     -2.422  0.5322E+01  0.2092E+02
     -2.313  0.4254E+01  0.2145E+02
     -2.203  0.3413E+01  0.2187E+02
     -2.093  0.2846E+01  0.2221E+02
     -1.983  0.2587E+01  0.2250E+02
     -1.873  0.2412E+01  0.2278E+02
     -1.763  0.2333E+01  0.2304E+02
     -1.653  0.2635E+01  0.2331E+02
     -1.544  0.3136E+01  0.2362E+02
     -1.434  0.3412E+01  0.2399E+02
     -1.324  0.3455E+01  0.2437E+02
     -1.214  0.3312E+01  0.2474E+02
     -1.104  0.3017E+01  0.2509E+02
     -0.994  0.2742E+01  0.2541E+02
     -0.885  0.2557E+01  0.2570E+02
     -0.775  0.2422E+01  0.2597E+02
     -0.665  0.2391E+01  0.2623E+02
     -0.555  0.2431E+01  0.2650E+02
     -0.445  0.2501E+01  0.2677E+02
     -0.335  0.2525E+01  0.2704E+02
     -0.225  0.2491E+01  0.2732E+02
     -0.116  0.2390E+01  0.2759E+02
     -0.006  0.2678E+01  0.2787E+02
      0.104  0.3291E+01  0.2818E+02
      0.214  0.4152E+01  0.2860E+02
      0.324  0.3151E+01  0.2901E+02
      0.434  0.4304E+01  0.2942E+02
      0.543  0.4381E+01  0.2990E+02
      0.653  0.5622E+01  0.3046E+02
      0.763  0.4440E+01  0.3101E+02
      0.873  0.3261E+01  0.3143E+02
      0.983  0.4407E+01  0.3183E+02
      1.093  0.4767E+01  0.3232E+02
      1.203  0.4837E+01  0.3286E+02
      1.312  0.4668E+01  0.3338E+02
      1.422  0.4676E+01  0.3389E+02
      1.532  0.4823E+01  0.3441E+02
      1.642  0.5251E+01  0.3496E+02
      1.752  0.5812E+01  0.3558E+02
      1.862  0.5150E+01  0.3617E+02
      1.972  0.5661E+01  0.3676E+02
      2.081  0.6180E+01  0.3742E+02
      2.191  0.6790E+01  0.3813E+02
      2.301  0.6995E+01  0.3889E+02
      2.411  0.6719E+01  0.3964E+02
      2.521  0.7234E+01  0.4039E+02
      2.631  0.7572E+01  0.4125E+02
      2.740  0.6956E+01  0.4203E+02
      2.850  0.6668E+01  0.4278E+02
      2.960  0.5364E+01  0.4345E+02
      3.070  0.5861E+01  0.4411E+02
      3.180  0.4749E+01  0.4467E+02
      3.290  0.5346E+01  0.4520E+02
      3.400  0.5734E+01  0.4581E+02
      3.509  0.5773E+01  0.4644E+02
      3.619  0.6528E+01  0.4711E+02
      3.729  0.7142E+01  0.4789E+02
      3.839  0.7528E+01  0.4869E+02
      3.949  0.7776E+01  0.4953E+02
      4.059  0.7542E+01  0.5037E+02
      4.168  0.7531E+01  0.5122E+02
      4.278  0.6827E+01  0.5200E+02
      4.388  0.6047E+01  0.5271E+02
      4.498  0.5326E+01  0.5334E+02
      4.608  0.5448E+01  0.5391E+02
      4.718  0.6235E+01  0.5456E+02
      4.828  0.6237E+01  0.5525E+02
      4.937  0.5949E+01  0.5592E+02
      5.047  0.6069E+01  0.5658E+02
      5.157  0.5878E+01  0.5723E+02
      5.267  0.4691E+01  0.5781E+02
      5.377  0.4096E+01  0.5829E+02
      5.487  0.4517E+01  0.5875E+02
      5.597  0.5475E+01  0.5932E+02
      5.706  0.3882E+01  0.5982E+02
      5.816  0.3604E+01  0.6023E+02
      5.926  0.3438E+01  0.6062E+02
      6.036  0.3347E+01  0.6100E+02
      6.146  0.3082E+01  0.6135E+02
      6.256  0.2838E+01  0.6167E+02
      6.365  0.2616E+01  0.6197E+02
      6.475  0.2496E+01  0.6225E+02
      6.585  0.2467E+01  0.6253E+02
      6.695  0.2198E+01  0.6278E+02
      6.805  0.1909E+01  0.6301E+02
      6.915  0.1639E+01  0.6320E+02
      7.025  0.1398E+01  0.6337E+02
      7.134  0.1242E+01  0.6352E+02
      7.244  0.1069E+01  0.6364E+02
      7.354  0.9269E+00  0.6375E+02
      7.464  0.7938E+00  0.6385E+02
      7.574  0.5542E+00  0.6392E+02
      7.684  0.3208E+00  0.6397E+02
      7.793  0.1181E+00  0.6399E+02
      7.903  0.1851E-01  0.6400E+02
      8.013  0.0000E+00  0.6400E+02
      8.123  0.0000E+00  0.6400E+02
      8.233  0.0000E+00  0.6400E+02
      8.343  0.0000E+00  0.6400E+02
      8.453  0.0000E+00  0.6400E+02
      8.562  0.0000E+00  0.6400E+02
      8.672  0.0000E+00  0.6400E+02
      8.782  0.0000E+00  0.6400E+02
      8.892  0.0000E+00  0.6400E+02
      9.002  0.0000E+00  0.6400E+02
      9.112  0.0000E+00  0.6400E+02
      9.222  0.0000E+00  0.6400E+02
      9.331  0.0000E+00  0.6400E+02
      9.441  0.0000E+00  0.6400E+02
      9.551  0.0000E+00  0.6400E+02
      9.661  0.0000E+00  0.6400E+02
      9.771  0.0000E+00  0.6400E+02
      9.881  0.0000E+00  0.6400E+02
      9.990  0.0000E+00  0.6400E+02
     10.100  0.0000E+00  0.6400E+02
     10.210  0.0000E+00  0.6400E+02
     10.320  0.0000E+00  0.6400E+02
     10.430  0.0000E+00  0.6400E+02
     10.540  0.0000E+00  0.6400E+02
     10.650  0.0000E+00  0.6400E+02
     10.759  0.0000E+00  0.6400E+02
     10.869  0.0000E+00  0.6400E+02
     10.979  0.0000E+00  0.6400E+02
     11.089  0.0000E+00  0.6400E+02
     11.199  0.0000E+00  0.6400E+02
     11.309  0.0000E+00  0.6400E+02
     11.418  0.0000E+00  0.6400E+02
     11.528  0.0000E+00  0.6400E+02
     11.638  0.0000E+00  0.6400E+02
     11.748  0.0000E+00  0.6400E+02
     11.858  0.2395E-02  0.6400E+02
     11.968  0.7009E-01  0.6400E+02
     12.078  0.3473E+00  0.6402E+02
     12.187  0.7214E+00  0.6408E+02
     12.297  0.1136E+01  0.6418E+02
     12.407  0.1551E+01  0.6433E+02
     12.517  0.1757E+01  0.6451E+02
     12.627  0.2050E+01  0.6472E+02
     12.737  0.2341E+01  0.6496E+02
     12.847  0.2827E+01  0.6524E+02
     12.956  0.3417E+01  0.6559E+02
     13.066  0.3876E+01  0.6599E+02
     13.176  0.4215E+01  0.6643E+02
     13.286  0.4323E+01  0.6691E+02
     13.396  0.4120E+01  0.6737E+02
     13.506  0.4105E+01  0.6784E+02
     13.615  0.4124E+01  0.6829E+02
     13.725  0.3989E+01  0.6873E+02
     13.835  0.4073E+01  0.6917E+02
     13.945  0.3850E+01  0.6961E+02
     14.055  0.4745E+01  0.7007E+02
     14.165  0.4969E+01  0.7061E+02
     14.275  0.6032E+01  0.7120E+02
     14.384  0.6025E+01  0.7188E+02
     14.494  0.6309E+01  0.7257E+02
     14.604  0.6977E+01  0.7328E+02
     14.714  0.6785E+01  0.7404E+02
     14.824  0.6757E+01  0.7479E+02
     14.934  0.6927E+01  0.7554E+02
     15.043  0.6672E+01  0.7628E+02
     15.153  0.6520E+01  0.7701E+02
     15.263  0.6476E+01  0.7772E+02
     15.373  0.6268E+01  0.7842E+02
     15.483  0.5685E+01  0.7908E+02
     15.593  0.4719E+01  0.7965E+02
     15.703  0.4047E+01  0.8013E+02
     15.812  0.3571E+01  0.8055E+02
     15.922  0.3252E+01  0.8092E+02
     16.032  0.2552E+01  0.8125E+02
     16.142  0.2020E+01  0.8150E+02
     16.252  0.1367E+01  0.8168E+02
     16.362  0.8569E+00  0.8180E+02
     16.472  0.6182E+00  0.8188E+02
     16.581  0.4246E+00  0.8194E+02
     16.691  0.2375E+00  0.8197E+02
     16.801  0.1031E+00  0.8199E+02
     16.911  0.4093E-01  0.8200E+02
     17.021  0.7050E-02  0.8200E+02
     17.131  0.0000E+00  0.8200E+02
     17.240  0.0000E+00  0.8200E+02
     17.350  0.0000E+00  0.8200E+02
     17.460  0.0000E+00  0.8200E+02
     17.570  0.0000E+00  0.8200E+02
     17.680  0.0000E+00  0.8200E+02
     17.790  0.0000E+00  0.8200E+02
     17.900  0.0000E+00  0.8200E+02
     18.009  0.0000E+00  0.8200E+02
     18.119  0.0000E+00  0.8200E+02
     18.229  0.0000E+00  0.8200E+02
     18.339  0.0000E+00  0.8200E+02
     18.449  0.0000E+00  0.8200E+02
     18.559  0.0000E+00  0.8200E+02
     18.668  0.0000E+00  0.8200E+02
     18.778  0.0000E+00  0.8200E+02
     18.888  0.0000E+00  0.8200E+02
     18.998  0.0000E+00  0.8200E+02
     19.108  0.0000E+00  0.8200E+02
