       N       E                     dE             d eps       ncg     rms          rms(c)
DAV:   1     0.462142570321E+03    0.46214E+03   -0.77019E+04 27384   0.170E+03
DAV:   2    -0.235878837141E+03   -0.69802E+03   -0.66816E+03 34524   0.305E+02
DAV:   3    -0.271518438839E+03   -0.35640E+02   -0.35002E+02 33516   0.633E+01
DAV:   4    -0.272082542541E+03   -0.56410E+00   -0.56227E+00 33180   0.854E+00
DAV:   5    -0.272094848674E+03   -0.12306E-01   -0.12326E-01 33552   0.113E+00    0.219E+01
DAV:   6    -0.261530976389E+03    0.10564E+02   -0.83803E+00 31092   0.950E+00    0.116E+01
DAV:   7    -0.258095349413E+03    0.34356E+01   -0.85237E+00 29352   0.977E+00    0.148E+00
DAV:   8    -0.258119240065E+03   -0.23891E-01   -0.21838E-01 32748   0.154E+00    0.521E-01
DAV:   9    -0.258120748584E+03   -0.15085E-02   -0.58969E-03 32412   0.322E-01    0.721E-02
DAV:  10    -0.258120765922E+03   -0.17337E-04   -0.45436E-04 33216   0.873E-02    0.418E-02
DAV:  11    -0.258120793371E+03   -0.27450E-04   -0.14738E-04 36240   0.484E-02    0.269E-02
DAV:  12    -0.258120820330E+03   -0.26959E-04   -0.62763E-05 32220   0.279E-02    0.137E-02
DAV:  13    -0.258120817659E+03    0.26715E-05   -0.24605E-05 32580   0.136E-02    0.879E-03
DAV:  14    -0.258120822600E+03   -0.49412E-05   -0.10661E-05 27600   0.886E-03    0.488E-03
DAV:  15    -0.258120823144E+03   -0.54432E-06   -0.21199E-06 19308   0.339E-03
   1 F= -.26188360E+03 E0= -.26188360E+03  d E =0.000000E+00
