  32  32   0   0
  0.8730593E+01  0.4932875E-09  0.4932875E-09  0.1326350E-08  0.5000000E-15
  1.000000000000000E-004
  CAR 
 graphite                                
     15.90467494    -16.86296660  301      4.77562335      1.00000000
    -16.863  0.0000E+00  0.0000E+00
    -16.754  0.0000E+00  0.0000E+00
    -16.645  0.0000E+00  0.0000E+00
    -16.535  0.0000E+00  0.0000E+00
    -16.426  0.0000E+00  0.0000E+00
    -16.317  0.0000E+00  0.0000E+00
    -16.208  0.0000E+00  0.0000E+00
    -16.098  0.0000E+00  0.0000E+00
    -15.989  0.0000E+00  0.0000E+00
    -15.880  0.0000E+00  0.0000E+00
    -15.771  0.0000E+00  0.0000E+00
    -15.661  0.0000E+00  0.0000E+00
    -15.552  0.0000E+00  0.0000E+00
    -15.443  0.0000E+00  0.0000E+00
    -15.334  0.0000E+00  0.0000E+00
    -15.225  0.0000E+00  0.0000E+00
    -15.115  0.0000E+00  0.0000E+00
    -15.006  0.0000E+00  0.0000E+00
    -14.897  0.0000E+00  0.0000E+00
    -14.788  0.1640E+01  0.4974E-01
    -14.678  0.2494E+01  0.2615E+00
    -14.569  0.3680E+01  0.6012E+00
    -14.460  0.4732E+01  0.1095E+01
    -14.351  0.5062E+01  0.1632E+01
    -14.242  0.4863E+01  0.2171E+01
    -14.132  0.4944E+01  0.2707E+01
    -14.023  0.4928E+01  0.3249E+01
    -13.914  0.4947E+01  0.3790E+01
    -13.805  0.4970E+01  0.4330E+01
    -13.695  0.5032E+01  0.4877E+01
    -13.586  0.5641E+01  0.5466E+01
    -13.477  0.5855E+01  0.6098E+01
    -13.368  0.6855E+01  0.6838E+01
    -13.259  0.4419E+01  0.7389E+01
    -13.149  0.1899E+01  0.7736E+01
    -13.040  0.3978E+01  0.8017E+01
    -12.931  0.4188E+01  0.8448E+01
    -12.822  0.7355E+01  0.8957E+01
    -12.712  0.5640E+01  0.9718E+01
    -12.603  0.6408E+01  0.1038E+02
    -12.494  0.4393E+01  0.1095E+02
    -12.385  0.4603E+01  0.1144E+02
    -12.275  0.4756E+01  0.1195E+02
    -12.166  0.4957E+01  0.1248E+02
    -12.057  0.5138E+01  0.1303E+02
    -11.948  0.5426E+01  0.1360E+02
    -11.839  0.5684E+01  0.1423E+02
    -11.729  0.5242E+01  0.1483E+02
    -11.620  0.5072E+01  0.1539E+02
    -11.511  0.4964E+01  0.1594E+02
    -11.402  0.4993E+01  0.1648E+02
    -11.292  0.5083E+01  0.1703E+02
    -11.183  0.5138E+01  0.1759E+02
    -11.074  0.5357E+01  0.1816E+02
    -10.965  0.5564E+01  0.1876E+02
    -10.856  0.5915E+01  0.1938E+02
    -10.746  0.5825E+01  0.2002E+02
    -10.637  0.5822E+01  0.2066E+02
    -10.528  0.5917E+01  0.2130E+02
    -10.419  0.4816E+01  0.2189E+02
    -10.309  0.4447E+01  0.2238E+02
    -10.200  0.5145E+01  0.2291E+02
    -10.091  0.5331E+01  0.2349E+02
     -9.982  0.5489E+01  0.2408E+02
     -9.873  0.5711E+01  0.2469E+02
     -9.763  0.6408E+01  0.2533E+02
     -9.654  0.7913E+01  0.2610E+02
     -9.545  0.9613E+01  0.2712E+02
     -9.436  0.6368E+01  0.2798E+02
     -9.326  0.6257E+01  0.2870E+02
     -9.217  0.6532E+01  0.2933E+02
     -9.108  0.3487E+01  0.2977E+02
     -8.999  0.3111E+01  0.3014E+02
     -8.890  0.2736E+01  0.3045E+02
     -8.780  0.2360E+01  0.3073E+02
     -8.671  0.2987E+01  0.3101E+02
     -8.562  0.2512E+01  0.3133E+02
     -8.453  0.1388E+01  0.3155E+02
     -8.343  0.2017E+01  0.3173E+02
     -8.234  0.3554E+01  0.3201E+02
     -8.125  0.7104E+01  0.3270E+02
     -8.016  0.4191E+01  0.3324E+02
     -7.906  0.4066E+01  0.3367E+02
     -7.797  0.6446E+01  0.3414E+02
     -7.688  0.7782E+01  0.3491E+02
     -7.579  0.6742E+01  0.3566E+02
     -7.470  0.7832E+01  0.3645E+02
     -7.360  0.9053E+01  0.3737E+02
     -7.251  0.7109E+01  0.3826E+02
     -7.142  0.6156E+01  0.3895E+02
     -7.033  0.5886E+01  0.3961E+02
     -6.923  0.5638E+01  0.4024E+02
     -6.814  0.5431E+01  0.4084E+02
     -6.705  0.5248E+01  0.4143E+02
     -6.596  0.5061E+01  0.4199E+02
     -6.487  0.4882E+01  0.4253E+02
     -6.377  0.4832E+01  0.4306E+02
     -6.268  0.4804E+01  0.4359E+02
     -6.159  0.4709E+01  0.4411E+02
     -6.050  0.4524E+01  0.4461E+02
     -5.940  0.4404E+01  0.4510E+02
     -5.831  0.3580E+01  0.4553E+02
     -5.722  0.4101E+01  0.4596E+02
     -5.613  0.4738E+01  0.4644E+02
     -5.504  0.5492E+01  0.4700E+02
     -5.394  0.6320E+01  0.4764E+02
     -5.285  0.8975E+01  0.4846E+02
     -5.176  0.9458E+01  0.4954E+02
     -5.067  0.7078E+01  0.5044E+02
     -4.957  0.4699E+01  0.5109E+02
     -4.848  0.2679E+01  0.5148E+02
     -4.739  0.2757E+01  0.5176E+02
     -4.630  0.3886E+01  0.5212E+02
     -4.520  0.5271E+01  0.5262E+02
     -4.411  0.6828E+01  0.5327E+02
     -4.302  0.8108E+01  0.5411E+02
     -4.193  0.7178E+01  0.5495E+02
     -4.084  0.5872E+01  0.5567E+02
     -3.974  0.5902E+01  0.5629E+02
     -3.865  0.7452E+01  0.5708E+02
     -3.756  0.6931E+01  0.5787E+02
     -3.647  0.7011E+01  0.5863E+02
     -3.537  0.6720E+01  0.5938E+02
     -3.428  0.9184E+01  0.6017E+02
     -3.319  0.1040E+02  0.6125E+02
     -3.210  0.8262E+01  0.6227E+02
     -3.101  0.8491E+01  0.6320E+02
     -2.991  0.7451E+01  0.6408E+02
     -2.882  0.6826E+01  0.6484E+02
     -2.773  0.7649E+01  0.6562E+02
     -2.664  0.8712E+01  0.6652E+02
     -2.554  0.1116E+02  0.6757E+02
     -2.445  0.1377E+02  0.6894E+02
     -2.336  0.1205E+02  0.7042E+02
     -2.227  0.1132E+02  0.7164E+02
     -2.118  0.1236E+02  0.7296E+02
     -2.008  0.1421E+02  0.7434E+02
     -1.899  0.1322E+02  0.7594E+02
     -1.790  0.1549E+02  0.7746E+02
     -1.681  0.1164E+02  0.7915E+02
     -1.571  0.1424E+02  0.8040E+02
     -1.462  0.1802E+02  0.8250E+02
     -1.353  0.1966E+02  0.8451E+02
     -1.244  0.1428E+02  0.8630E+02
     -1.134  0.1253E+02  0.8777E+02
     -1.025  0.1175E+02  0.8909E+02
     -0.916  0.7836E+01  0.9016E+02
     -0.807  0.8055E+01  0.9103E+02
     -0.698  0.1077E+02  0.9203E+02
     -0.588  0.1417E+02  0.9346E+02
     -0.479  0.1895E+02  0.9509E+02
     -0.370  0.8937E+01  0.9635E+02
     -0.261  0.9566E+01  0.9732E+02
     -0.151  0.1024E+02  0.9840E+02
     -0.042  0.1068E+02  0.9957E+02
      0.067  0.1114E+02  0.1008E+03
      0.176  0.9509E+01  0.1019E+03
      0.285  0.9538E+01  0.1029E+03
      0.395  0.9803E+01  0.1040E+03
      0.504  0.9594E+01  0.1050E+03
      0.613  0.9337E+01  0.1061E+03
      0.722  0.9286E+01  0.1071E+03
      0.832  0.9342E+01  0.1081E+03
      0.941  0.9264E+01  0.1092E+03
      1.050  0.9262E+01  0.1102E+03
      1.159  0.9237E+01  0.1112E+03
      1.268  0.9535E+01  0.1122E+03
      1.378  0.9483E+01  0.1133E+03
      1.487  0.9249E+01  0.1143E+03
      1.596  0.9453E+01  0.1153E+03
      1.705  0.9012E+01  0.1164E+03
      1.815  0.6524E+01  0.1172E+03
      1.924  0.6448E+01  0.1179E+03
      2.033  0.6072E+01  0.1186E+03
      2.142  0.4447E+01  0.1191E+03
      2.251  0.4333E+01  0.1196E+03
      2.361  0.5721E+01  0.1201E+03
      2.470  0.7489E+01  0.1209E+03
      2.579  0.8620E+01  0.1218E+03
      2.688  0.4633E+01  0.1225E+03
      2.798  0.7106E+01  0.1232E+03
      2.907  0.6705E+01  0.1240E+03
      3.016  0.5091E+01  0.1246E+03
      3.125  0.4205E+01  0.1251E+03
      3.235  0.3616E+01  0.1256E+03
      3.344  0.3288E+01  0.1259E+03
      3.453  0.2969E+01  0.1263E+03
      3.562  0.2650E+01  0.1266E+03
      3.671  0.2250E+01  0.1269E+03
      3.781  0.1926E+01  0.1271E+03
      3.890  0.1686E+01  0.1273E+03
      3.999  0.1442E+01  0.1275E+03
      4.108  0.1201E+01  0.1276E+03
      4.218  0.9979E+00  0.1277E+03
      4.327  0.8387E+00  0.1278E+03
      4.436  0.6153E+00  0.1279E+03
      4.545  0.4037E+00  0.1280E+03
      4.654  0.2019E+00  0.1280E+03
      4.764  0.9650E-02  0.1280E+03
      4.873  0.1010E+00  0.1280E+03
      4.982  0.2383E+00  0.1280E+03
      5.091  0.3863E+00  0.1281E+03
      5.201  0.5490E+00  0.1281E+03
      5.310  0.7276E+00  0.1282E+03
      5.419  0.9308E+00  0.1283E+03
      5.528  0.1225E+01  0.1284E+03
      5.637  0.1602E+01  0.1285E+03
      5.747  0.1947E+01  0.1287E+03
      5.856  0.2312E+01  0.1290E+03
      5.965  0.2809E+01  0.1292E+03
      6.074  0.3316E+01  0.1296E+03
      6.184  0.4323E+01  0.1300E+03
      6.293  0.5991E+01  0.1306E+03
      6.402  0.8249E+01  0.1317E+03
      6.511  0.8154E+01  0.1326E+03
      6.621  0.7458E+01  0.1335E+03
      6.730  0.7666E+01  0.1343E+03
      6.839  0.6502E+01  0.1351E+03
      6.948  0.5920E+01  0.1358E+03
      7.057  0.5726E+01  0.1364E+03
      7.167  0.4933E+01  0.1370E+03
      7.276  0.4139E+01  0.1375E+03
      7.385  0.3580E+01  0.1379E+03
      7.494  0.3524E+01  0.1383E+03
      7.604  0.3893E+01  0.1387E+03
      7.713  0.4286E+01  0.1392E+03
      7.822  0.4610E+01  0.1396E+03
      7.931  0.4817E+01  0.1402E+03
      8.040  0.4632E+01  0.1407E+03
      8.150  0.4450E+01  0.1412E+03
      8.259  0.4272E+01  0.1417E+03
      8.368  0.4069E+01  0.1421E+03
      8.477  0.3888E+01  0.1425E+03
      8.587  0.3734E+01  0.1430E+03
      8.696  0.3619E+01  0.1434E+03
      8.805  0.3536E+01  0.1438E+03
      8.914  0.3448E+01  0.1441E+03
      9.023  0.3315E+01  0.1445E+03
      9.133  0.3218E+01  0.1449E+03
      9.242  0.3255E+01  0.1452E+03
      9.351  0.3571E+01  0.1456E+03
      9.460  0.3894E+01  0.1460E+03
      9.570  0.3997E+01  0.1464E+03
      9.679  0.3803E+01  0.1468E+03
      9.788  0.3806E+01  0.1473E+03
      9.897  0.3854E+01  0.1477E+03
     10.006  0.3882E+01  0.1481E+03
     10.116  0.3912E+01  0.1485E+03
     10.225  0.3883E+01  0.1490E+03
     10.334  0.3876E+01  0.1494E+03
     10.443  0.3885E+01  0.1498E+03
     10.553  0.3898E+01  0.1502E+03
     10.662  0.4371E+01  0.1507E+03
     10.771  0.4970E+01  0.1512E+03
     10.880  0.5360E+01  0.1517E+03
     10.990  0.4986E+01  0.1523E+03
     11.099  0.4813E+01  0.1528E+03
     11.208  0.4636E+01  0.1534E+03
     11.317  0.3570E+01  0.1539E+03
     11.426  0.3426E+01  0.1542E+03
     11.536  0.3165E+01  0.1546E+03
     11.645  0.3380E+01  0.1550E+03
     11.754  0.3925E+01  0.1554E+03
     11.863  0.3329E+01  0.1558E+03
     11.973  0.2844E+01  0.1560E+03
     12.082  0.6685E+01  0.1566E+03
     12.191  0.7188E+01  0.1574E+03
     12.300  0.1116E+02  0.1583E+03
     12.409  0.1320E+02  0.1597E+03
     12.519  0.1337E+02  0.1612E+03
     12.628  0.1337E+02  0.1627E+03
     12.737  0.1109E+02  0.1640E+03
     12.846  0.7409E+01  0.1651E+03
     12.956  0.6175E+01  0.1658E+03
     13.065  0.5529E+01  0.1664E+03
     13.174  0.5519E+01  0.1671E+03
     13.283  0.3383E+01  0.1675E+03
     13.392  0.2025E+01  0.1678E+03
     13.502  0.6009E+00  0.1680E+03
     13.611  0.2547E-01  0.1680E+03
     13.720  0.9566E-02  0.1680E+03
     13.829  0.1593E-02  0.1680E+03
     13.939  0.0000E+00  0.1680E+03
     14.048  0.0000E+00  0.1680E+03
     14.157  0.0000E+00  0.1680E+03
     14.266  0.0000E+00  0.1680E+03
     14.376  0.0000E+00  0.1680E+03
     14.485  0.0000E+00  0.1680E+03
     14.594  0.0000E+00  0.1680E+03
     14.703  0.0000E+00  0.1680E+03
     14.812  0.0000E+00  0.1680E+03
     14.922  0.0000E+00  0.1680E+03
     15.031  0.0000E+00  0.1680E+03
     15.140  0.0000E+00  0.1680E+03
     15.249  0.0000E+00  0.1680E+03
     15.359  0.0000E+00  0.1680E+03
     15.468  0.0000E+00  0.1680E+03
     15.577  0.0000E+00  0.1680E+03
     15.686  0.0000E+00  0.1680E+03
     15.795  0.0000E+00  0.1680E+03
     15.905  0.0000E+00  0.1680E+03
