   32   32    1    1
  0.8730593E+01  0.4932875E-09  0.4932875E-09  0.1326350E-08  0.5000000E-15
  1.000000000000000E-004
  CAR 
 graphite                                
    128    163     84
 
  0.0000000E+00  0.0000000E+00  0.0000000E+00  0.3086420E-02
    1      -14.862967
    2      -14.704932
    3      -14.704433
    4      -14.534598
    5       -9.531576
    6       -9.523330
    7       -9.520777
    8       -9.464895
    9       -9.464420
   10       -9.456714
   11       -9.453165
   12       -9.453108
   13       -9.450964
   14       -9.410077
   15       -9.399298
   16       -9.396053
   17       -8.451314
   18       -8.447902
   19       -8.445827
   20       -8.418766
   21       -8.415141
   22       -8.413090
   23       -8.412588
   24       -8.412515
   25       -8.408771
   26       -8.359532
   27       -8.354695
   28       -8.352633
   29       -3.769976
   30       -2.832633
   31       -2.830867
   32       -1.684927
   33       -1.624039
   34       -1.621311
   35       -1.602107
   36       -1.594531
   37       -1.590617
   38       -1.590608
   39       -1.589671
   40       -1.571934
   41       -1.569590
   42       -1.561059
   43       -1.558656
   44       -1.539268
   45        1.769677
   46        1.781543
   47        1.786570
   48        1.793817
   49        1.795399
   50        1.802662
   51        1.807089
   52        1.818585
   53        1.988642
   54        1.989879
   55        1.991101
   56        2.422838
   57        2.425162
   58        2.427010
   59        2.430919
   60        2.431314
   61        2.432972
   62        2.708774
   63        2.723173
   64        2.725957
   65        6.300472
   66        6.303635
   67        6.304868
   68        6.428112
   69        6.433477
   70        6.438142
   71        6.439023
   72        6.439274
   73        6.444528
   74        6.992658
   75        7.006122
   76        7.008520
   77        9.186323
   78       11.914938
   79       11.919299
   80       11.962143
   81       11.965998
   82       11.999366
   83       12.172761
   84       12.179189
 
  0.1111111E+00  0.1387779E-16  0.0000000E+00  0.6172840E-02
    1      -14.789193
    2      -14.631845
    3      -14.631349
    4      -14.462268
    5      -10.323286
    6      -10.210146
    7      -10.209560
    8      -10.091489
    9       -9.783078
   10       -9.774886
   11       -9.685307
   12       -9.685026
   13       -9.676374
   14       -9.675888
   15       -9.586503
   16       -9.577083
   17       -8.153811
   18       -8.147409
   19       -8.077594
   20       -8.074698
   21       -8.069365
   22       -8.069148
   23       -7.988730
   24       -7.981691
   25       -7.636093
   26       -7.547673
   27       -7.545865
   28       -7.452526
   29       -3.680444
   30       -2.745690
   31       -2.743925
   32       -1.848992
   33       -1.829503
   34       -1.814730
   35       -1.814392
   36       -1.796088
   37       -1.793713
   38       -1.779581
   39       -1.759922
   40       -1.601453
   41       -1.550712
   42       -1.520967
   43       -1.518227
   44       -1.488520
   45        1.390183
   46        1.487209
   47        1.500257
   48        1.504415
   49        1.518261
   50        1.616941
   51        1.629763
   52        1.634379
   53        1.646017
   54        1.869712
   55        1.871704
   56        2.001568
   57        2.004283
   58        2.371319
   59        2.373415
   60        2.377911
   61        2.380225
   62        2.600288
   63        2.770874
   64        2.784612
   65        6.369348
   66        6.371839
   67        6.559621
   68        6.564887
   69        6.569835
   70        6.571465
   71        6.649078
   72        6.979819
   73        6.983645
   74        7.128976
   75        7.140585
   76        7.611005
   77        9.274582
   78       11.989052
   79       11.993097
   80       12.004894
   81       12.210819
   82       12.212592
   83       12.299108
   84       12.335172
 
  0.2222222E+00  0.1387779E-16  0.0000000E+00  0.6172840E-02
    1      -14.568308
    2      -14.412919
    3      -14.412432
    4      -14.245632
    5      -11.336131
    6      -11.210098
    7      -11.209690
    8      -11.076627
    9      -10.131636
   10      -10.125925
   11      -10.020818
   12      -10.020122
   13      -10.014518
   14      -10.014008
   15       -9.904141
   16       -9.897997
   17       -7.474598
   18       -7.465358
   19       -7.389534
   20       -7.387027
   21       -7.379006
   22       -7.378741
   23       -7.296850
   24       -7.287527
   25       -6.309730
   26       -6.226934
   27       -6.225269
   28       -6.138959
   29       -3.412688
   30       -2.485664
   31       -2.483900
   32       -2.457035
   33       -2.438706
   34       -2.414978
   35       -2.414755
   36       -2.397576
   37       -2.395182
   38       -2.371401
   39       -2.352927
   40       -1.352300
   41       -1.335515
   42       -1.306509
   43       -1.303622
   44       -1.274584
   45        0.363871
   46        0.659325
   47        0.681665
   48        0.685799
   49        0.708660
   50        1.112524
   51        1.114622
   52        1.196201
   53        1.213409
   54        1.218141
   55        1.234702
   56        1.643042
   57        1.645856
   58        1.964148
   59        2.250182
   60        2.251716
   61        2.255449
   62        2.257887
   63        2.845344
   64        2.854791
   65        6.599609
   66        6.603348
   67        6.894604
   68        6.899651
   69        6.904390
   70        6.905990
   71        7.436098
   72        7.444018
   73        7.762465
   74        8.202586
   75        8.205576
   76        8.822188
   77        9.540102
   78       12.122464
   79       12.209319
   80       12.212967
   81       12.321003
   82       12.322753
   83       12.506409
   84       13.156727
 
  0.3333333E+00  0.8326673E-16  0.0000000E+00  0.6172840E-02
    1      -14.201333
    2      -14.049246
    3      -14.048772
    4      -13.885775
    5      -12.250310
    6      -12.115712
    7      -12.115305
    8      -11.972272
    9      -10.388615
   10      -10.384994
   11      -10.272934
   12      -10.271879
   13      -10.268681
   14      -10.268023
   15      -10.150343
   16      -10.146544
   17       -6.665778
   18       -6.655062
   19       -6.587348
   20       -6.584715
   21       -6.575548
   22       -6.575061
   23       -6.503006
   24       -6.492523
   25       -4.874317
   26       -4.802541
   27       -4.800677
   28       -4.726388
   29       -3.273485
   30       -3.257548
   31       -3.224290
   32       -3.224022
   33       -3.209197
   34       -3.206685
   35       -3.172721
   36       -3.156525
   37       -2.969212
   38       -2.055743
   39       -2.053998
   40       -0.986405
   41       -0.958708
   42       -0.955591
   43       -0.941680
   44       -0.927395
   45       -0.661111
   46       -0.528178
   47       -0.493895
   48       -0.490313
   49       -0.455792
   50        0.159277
   51        0.161157
   52        0.632988
   53        0.654097
   54        0.658360
   55        0.679390
   56        1.131003
   57        1.447809
   58        1.450345
   59        2.126309
   60        2.127360
   61        2.129911
   62        2.132690
   63        2.864964
   64        2.870693
   65        6.945520
   66        6.950682
   67        7.286862
   68        7.291730
   69        7.295199
   70        7.296743
   71        7.738210
   72        7.742681
   73        9.266795
   74        9.680698
   75        9.683259
   76        9.983059
   77       10.224844
   78       12.191765
   79       12.416207
   80       12.490250
   81       12.492326
   82       12.541283
   83       12.543822
   84       12.823869
 
  0.4444444E+00  0.2775558E-16  0.0000000E+00  0.6172840E-02
    1      -13.690278
    2      -13.542719
    3      -13.542257
    4      -13.384601
    5      -13.038195
    6      -12.896483
    7      -12.896063
    8      -12.745011
    9      -10.520792
   10      -10.518765
   11      -10.403560
   12      -10.401963
   13      -10.400915
   14      -10.399814
   15      -10.278375
   16      -10.276270
   17       -5.912699
   18       -5.904661
   19       -5.856122
   20       -5.852761
   21       -5.847403
   22       -5.846000
   23       -5.796530
   24       -5.789580
   25       -4.019450
   26       -4.010815
   27       -3.979898
   28       -3.978467
   29       -3.971343
   30       -3.968368
   31       -3.933472
   32       -3.923727
   33       -3.391356
   34       -3.332065
   35       -3.329788
   36       -3.268537
   37       -2.355207
   38       -1.916753
   39       -1.870687
   40       -1.867919
   41       -1.819383
   42       -1.579811
   43       -1.461280
   44       -1.459401
   45       -0.716005
   46       -0.714186
   47       -0.520064
   48       -0.493712
   49       -0.490249
   50       -0.463712
   51       -0.377721
   52        0.035582
   53        0.059920
   54        0.063632
   55        0.087994
   56        0.323999
   57        1.340131
   58        1.342109
   59        2.051824
   60        2.052994
   61        2.053995
   62        2.057388
   63        2.859230
   64        2.862237
   65        7.227047
   66        7.230594
   67        7.554937
   68        7.559977
   69        7.561144
   70        7.562400
   71        7.902877
   72        7.905818
   73       10.600214
   74       10.894296
   75       11.219959
   76       11.223082
   77       11.381902
   78       11.673879
   79       12.493819
   80       12.580500
   81       12.585122
   82       12.590452
   83       12.691470
   84       12.693267
 
  0.0000000E+00  0.1111111E+00  0.0000000E+00  0.6172840E-02
    1      -14.789195
    2      -14.631847
    3      -14.631350
    4      -14.462269
    5      -10.323213
    6      -10.209990
    7      -10.209539
    8      -10.091383
    9       -9.783093
   10       -9.775146
   11       -9.685325
   12       -9.685004
   13       -9.676645
   14       -9.676244
   15       -9.586452
   16       -9.577517
   17       -8.153914
   18       -8.146143
   19       -8.077902
   20       -8.074698
   21       -8.069273
   22       -8.066532
   23       -7.988847
   24       -7.980319
   25       -7.637050
   26       -7.547888
   27       -7.547584
   28       -7.453507
   29       -3.680439
   30       -2.745684
   31       -2.743920
   32       -1.850291
   33       -1.829453
   34       -1.817122
   35       -1.814400
   36       -1.796088
   37       -1.793853
   38       -1.780836
   39       -1.760075
   40       -1.601445
   41       -1.549260
   42       -1.518364
   43       -1.518208
   44       -1.487316
   45        1.390908
   46        1.484990
   47        1.498921
   48        1.500260
   49        1.514093
   50        1.621345
   51        1.634376
   52        1.635219
   53        1.648215
   54        1.869343
   55        1.871051
   56        2.003020
   57        2.004784
   58        2.371129
   59        2.373518
   60        2.376576
   61        2.379125
   62        2.601570
   63        2.770942
   64        2.783085
   65        6.370852
   66        6.372504
   67        6.559978
   68        6.564858
   69        6.570419
   70        6.574749
   71        6.647068
   72        6.978966
   73        6.980897
   74        7.129100
   75        7.142562
   76        7.609337
   77        9.274588
   78       11.989097
   79       11.993094
   80       12.005386
   81       12.211785
   82       12.212578
   83       12.298651
   84       12.334463
 
  0.1111111E+00  0.1111111E+00  0.0000000E+00  0.6172840E-02
    1      -14.641749
    2      -14.485722
    3      -14.485232
    4      -14.317667
    5      -10.789617
    6      -10.786569
    7      -10.671026
    8      -10.667702
    9      -10.667674
   10      -10.664878
   11      -10.542649
   12      -10.539532
   13       -9.342069
   14       -9.276839
   15       -9.275555
   16       -9.222789
   17       -8.266403
   18       -8.235564
   19       -8.232214
   20       -8.179074
   21       -6.953579
   22       -6.950374
   23       -6.867924
   24       -6.865295
   25       -6.865267
   26       -6.861310
   27       -6.775368
   28       -6.771928
   29       -3.501682
   30       -2.572050
   31       -2.570288
   32       -2.514327
   33       -2.472575
   34       -2.470455
   35       -2.427740
   36       -1.705827
   37       -1.702888
   38       -1.673623
   39       -1.669584
   40       -1.669575
   41       -1.668280
   42       -1.637007
   43       -1.634504
   44       -1.435029
   45        0.950838
   46        0.952033
   47        0.958926
   48        0.971237
   49        0.976182
   50        0.989640
   51        1.302562
   52        1.313905
   53        1.318422
   54        1.329098
   55        1.641394
   56        1.644992
   57        1.645093
   58        1.647158
   59        2.257082
   60        2.391280
   61        2.393882
   62        2.688978
   63        2.692045
   64        2.969419
   65        6.290031
   66        6.356383
   67        6.361150
   68        6.811422
   69        7.118348
   70        7.121150
   71        7.521080
   72        7.522782
   73        7.523116
   74        7.527198
   75        8.134890
   76        8.137376
   77        9.451817
   78       12.138506
   79       12.142328
   80       12.377690
   81       12.381718
   82       12.581114
   83       12.585922
   84       12.587622
 
  0.2222222E+00  0.1111111E+00  0.0000000E+00  0.6172840E-02
    1      -14.347726
    2      -14.194308
    3      -14.193831
    4      -14.029329
    5      -11.756246
    6      -11.626315
    7      -11.625898
    8      -11.488278
    9      -11.131006
   10      -11.007092
   11      -11.006650
   12      -10.875787
   13       -9.396628
   14       -9.302555
   15       -9.301927
   16       -9.207516
   17       -7.806154
   18       -7.735159
   19       -7.732320
   20       -7.652514
   21       -6.167548
   22       -6.087874
   23       -6.087275
   24       -6.004380
   25       -5.568135
   26       -5.491548
   27       -5.489855
   28       -5.410429
   29       -3.423947
   30       -3.373261
   31       -3.371185
   32       -3.318581
   33       -3.145890
   34       -2.231618
   35       -2.226836
   36       -2.225098
   37       -2.190884
   38       -2.190630
   39       -2.148984
   40       -1.418622
   41       -1.386996
   42       -1.384184
   43       -1.352139
   44       -1.104936
   45       -0.095270
   46        0.001949
   47        0.024919
   48        0.029664
   49        0.052321
   50        0.614633
   51        0.692298
   52        0.694249
   53        0.757513
   54        0.773783
   55        0.778863
   56        0.795046
   57        1.356388
   58        1.358106
   59        1.611273
   60        2.200248
   61        2.389356
   62        2.891199
   63        2.894114
   64        3.289390
   65        6.255004
   66        6.365507
   67        6.370114
   68        6.753331
   69        7.688385
   70        8.091926
   71        8.094071
   72        8.466248
   73        8.615957
   74        8.893633
   75        8.896163
   76        9.453844
   77        9.807229
   78       12.433202
   79       12.436503
   80       12.512481
   81       12.724872
   82       12.726662
   83       12.798098
   84       13.198444
 
  0.3333333E+00  0.1111111E+00  0.0000000E+00  0.6172840E-02
    1      -13.908568
    2      -13.759111
    3      -13.758650
    4      -13.598681
    5      -12.607856
    6      -12.470029
    7      -12.469606
    8      -12.323021
    9      -11.340267
   10      -11.214146
   11      -11.213677
   12      -11.080525
   13       -9.542000
   14       -9.436783
   15       -9.436465
   16       -9.327245
   17       -7.040711
   18       -6.968645
   19       -6.965958
   20       -6.890698
   21       -5.366213
   22       -5.300664
   23       -5.299376
   24       -5.232224
   25       -4.362506
   26       -4.310138
   27       -4.307915
   28       -4.251939
   29       -4.116497
   30       -4.051927
   31       -4.050020
   32       -3.983620
   33       -2.930434
   34       -2.887405
   35       -2.886342
   36       -2.840534
   37       -2.616757
   38       -1.715015
   39       -1.713322
   40       -1.247243
   41       -1.209591
   42       -1.205944
   43       -1.168928
   44       -1.072885
   45       -1.001902
   46       -0.972077
   47       -0.969094
   48       -0.938900
   49       -0.617036
   50       -0.230941
   51       -0.229129
   52        0.132363
   53        0.154777
   54        0.159384
   55        0.182051
   56        0.403495
   57        0.775904
   58        1.172289
   59        1.174026
   60        2.067035
   61        2.382479
   62        2.981316
   63        2.983810
   64        3.579486
   65        6.223310
   66        6.485859
   67        6.489852
   68        6.854718
   69        8.197007
   70        8.546573
   71        8.549083
   72        8.934029
   73       10.033436
   74       10.338529
   75       10.400274
   76       10.403254
   77       10.868625
   78       11.902083
   79       12.784705
   80       12.793468
   81       12.797604
   82       12.905717
   83       12.907938
   84       13.182481
 
  0.4444444E+00  0.1111111E+00  0.0000000E+00  0.6172840E-02
    1      -13.328953
    2      -13.325950
    3      -13.185882
    4      -13.183270
    5      -13.182310
    6      -13.180055
    7      -13.030201
    8      -13.027131
    9      -11.410886
   10      -11.284238
   11      -11.283755
   12      -11.149877
   13       -9.597155
   14       -9.489850
   15       -9.489512
   16       -9.377544
   17       -6.527289
   18       -6.481026
   19       -6.478485
   20       -6.434749
   21       -4.890715
   22       -4.881082
   23       -4.854358
   24       -4.853279
   25       -4.851043
   26       -4.849103
   27       -4.816622
   28       -4.812864
   29       -3.341800
   30       -3.317145
   31       -3.314220
   32       -3.283498
   33       -2.655107
   34       -2.651910
   35       -2.603425
   36       -2.603078
   37       -2.601426
   38       -2.596754
   39       -2.549095
   40       -2.545184
   41       -1.922991
   42       -1.920531
   43       -1.046292
   44       -1.043172
   45       -1.042405
   46       -1.040337
   47       -0.477219
   48       -0.470542
   49       -0.450511
   50       -0.443835
   51       -0.441618
   52       -0.441436
   53       -0.417124
   54       -0.412954
   55        0.015670
   56        0.018455
   57        0.331266
   58        1.108676
   59        1.110463
   60        2.019191
   61        2.368970
   62        3.004408
   63        3.006472
   64        3.689766
   65        6.222180
   66        6.554514
   67        6.557649
   68        6.910010
   69        8.416952
   70        8.723297
   71        8.726288
   72        9.030916
   73       11.042372
   74       11.044079
   75       11.631157
   76       11.634815
   77       11.892733
   78       11.895702
   79       11.896746
   80       11.901425
   81       12.275857
   82       12.279049
   83       13.022503
   84       13.037063
 
 -0.4444444E+00  0.1111111E+00  0.0000000E+00  0.6172840E-02
    1      -13.909325
    2      -13.759881
    3      -13.759409
    4      -13.599440
    5      -12.606649
    6      -12.468817
    7      -12.468408
    8      -12.321818
    9      -11.342047
   10      -11.215938
   11      -11.215455
   12      -11.082330
   13       -9.539333
   14       -9.433975
   15       -9.433610
   16       -9.324206
   17       -7.032331
   18       -6.959475
   19       -6.958517
   20       -6.882522
   21       -5.377637
   22       -5.312532
   23       -5.309763
   24       -5.243000
   25       -4.374614
   26       -4.321702
   27       -4.321153
   28       -4.264566
   29       -4.118699
   30       -4.054314
   31       -4.052047
   32       -3.985829
   33       -2.916051
   34       -2.873567
   35       -2.870730
   36       -2.825613
   37       -2.617499
   38       -1.715728
   39       -1.714052
   40       -1.247167
   41       -1.208954
   42       -1.206760
   43       -1.169266
   44       -1.071808
   45       -0.999852
   46       -0.970181
   47       -0.966806
   48       -0.936796
   49       -0.617731
   50       -0.229924
   51       -0.228065
   52        0.132653
   53        0.155246
   54        0.158371
   55        0.181600
   56        0.402118
   57        0.776863
   58        1.170547
   59        1.172430
   60        2.064807
   61        2.383086
   62        2.984083
   63        2.985896
   64        3.585941
   65        6.224171
   66        6.489620
   67        6.492011
   68        6.856188
   69        8.191438
   70        8.541425
   71        8.544854
   72        8.931903
   73       10.033920
   74       10.337518
   75       10.399637
   76       10.403017
   77       10.867446
   78       11.903493
   79       12.781498
   80       12.794003
   81       12.798032
   82       12.902307
   83       12.905184
   84       13.156146
 
 -0.3333333E+00  0.1111111E+00  0.0000000E+00  0.6172840E-02
    1      -14.348263
    2      -14.194857
    3      -14.194371
    4      -14.029867
    5      -11.754822
    6      -11.624880
    7      -11.624484
    8      -11.486851
    9      -11.134590
   10      -11.010717
   11      -11.010255
   12      -10.879436
   13       -9.390894
   14       -9.296118
   15       -9.295760
   16       -9.200485
   17       -7.799464
   18       -7.726783
   19       -7.726355
   20       -7.645022
   21       -6.179116
   22       -6.100197
   23       -6.097934
   24       -6.015734
   25       -5.570449
   26       -5.493945
   27       -5.492109
   28       -5.412768
   29       -3.439809
   30       -3.388241
   31       -3.388075
   32       -3.334582
   33       -3.146430
   34       -2.227391
   35       -2.225639
   36       -2.213274
   37       -2.173628
   38       -2.171133
   39       -2.130432
   40       -1.416910
   41       -1.385390
   42       -1.382338
   43       -1.350418
   44       -1.105448
   45       -0.094098
   46       -0.001859
   47        0.022016
   48        0.024018
   49        0.047163
   50        0.612081
   51        0.693326
   52        0.695401
   53        0.763141
   54        0.779113
   55        0.781487
   56        0.798349
   57        1.352999
   58        1.355041
   59        1.612216
   60        2.195689
   61        2.389560
   62        2.896325
   63        2.898106
   64        3.301868
   65        6.253718
   66        6.371785
   67        6.373825
   68        6.759189
   69        7.681312
   70        8.083562
   71        8.087304
   72        8.466165
   73        8.610370
   74        8.892682
   75        8.895531
   76        9.452448
   77        9.806475
   78       12.432743
   79       12.436004
   80       12.510224
   81       12.722355
   82       12.724538
   83       12.797387
   84       13.198439
 
 -0.2222222E+00  0.1111111E+00  0.0000000E+00  0.6172840E-02
    1      -14.642081
    2      -14.486058
    3      -14.485563
    4      -14.318003
    5      -10.793463
    6      -10.786451
    7      -10.673513
    8      -10.673103
    9      -10.666449
   10      -10.666016
   11      -10.546705
   12      -10.539565
   13       -9.332683
   14       -9.265672
   15       -9.265373
   16       -9.210728
   17       -8.263567
   18       -8.230190
   19       -8.229947
   20       -8.174553
   21       -6.962307
   22       -6.953605
   23       -6.876318
   24       -6.874225
   25       -6.867460
   26       -6.865758
   27       -6.784037
   28       -6.775439
   29       -3.502010
   30       -2.572370
   31       -2.570613
   32       -2.532116
   33       -2.489489
   34       -2.489243
   35       -2.445643
   36       -1.703847
   37       -1.683932
   38       -1.671200
   39       -1.668384
   40       -1.651134
   41       -1.648729
   42       -1.635351
   43       -1.615484
   44       -1.435341
   45        0.943433
   46        0.949828
   47        0.952815
   48        0.961327
   49        0.962941
   50        0.975703
   51        1.317231
   52        1.328214
   53        1.328368
   54        1.340595
   55        1.639117
   56        1.641407
   57        1.644233
   58        1.646629
   59        2.256715
   60        2.385985
   61        2.392736
   62        2.695553
   63        2.697380
   64        2.985417
   65        6.286769
   66        6.364038
   67        6.366027
   68        6.821853
   69        7.112940
   70        7.120511
   71        7.512115
   72        7.516127
   73        7.521815
   74        7.525273
   75        8.127116
   76        8.135472
   77        9.451347
   78       12.138104
   79       12.142316
   80       12.378229
   81       12.413850
   82       12.583659
   83       12.603603
   84       12.619809
 
 -0.1111111E+00  0.1111111E+00  0.0000000E+00  0.6172840E-02
    1      -14.789302
    2      -14.631944
    3      -14.631445
    4      -14.462376
    5      -10.330556
    6      -10.217458
    7      -10.217125
    8      -10.099094
    9       -9.774790
   10       -9.772631
   11       -9.677808
   12       -9.674924
   13       -9.674878
   14       -9.673182
   15       -9.577380
   16       -9.574920
   17       -8.149443
   18       -8.147511
   19       -8.071818
   20       -8.070908
   21       -8.070868
   22       -8.067946
   23       -7.983805
   24       -7.981875
   25       -7.644699
   26       -7.556514
   27       -7.554367
   28       -7.461221
   29       -3.680546
   30       -2.745765
   31       -2.744004
   32       -1.850614
   33       -1.847968
   34       -1.817865
   35       -1.814007
   36       -1.813997
   37       -1.813064
   38       -1.780972
   39       -1.778740
   40       -1.601542
   41       -1.529537
   42       -1.499711
   43       -1.497331
   44       -1.467400
   45        1.387288
   46        1.469115
   47        1.483216
   48        1.488168
   49        1.501016
   50        1.634785
   51        1.646500
   52        1.650925
   53        1.664073
   54        1.870618
   55        1.872672
   56        1.996859
   57        1.999448
   58        2.374771
   59        2.379135
   60        2.379507
   61        2.380515
   62        2.591475
   63        2.782459
   64        2.785168
   65        6.370003
   66        6.373044
   67        6.568482
   68        6.569966
   69        6.570208
   70        6.575247
   71        6.643918
   72        6.969510
   73        6.973826
   74        7.139391
   75        7.141901
   76        7.599605
   77        9.274428
   78       11.988944
   79       11.992954
   80       12.039878
   81       12.246195
   82       12.247038
   83       12.296287
   84       12.300412
 
  0.0000000E+00  0.2222222E+00  0.0000000E+00  0.6172840E-02
    1      -14.568314
    2      -14.412929
    3      -14.412435
    4      -14.245638
    5      -11.336169
    6      -11.210153
    7      -11.209707
    8      -11.076660
    9      -10.131800
   10      -10.125857
   11      -10.021290
   12      -10.020131
   13      -10.014484
   14      -10.013706
   15       -9.904233
   16       -9.897966
   17       -7.474755
   18       -7.464238
   19       -7.389938
   20       -7.387029
   21       -7.378824
   22       -7.376375
   23       -7.296925
   24       -7.286266
   25       -6.310618
   26       -6.227172
   27       -6.226860
   28       -6.139903
   29       -3.412669
   30       -2.485637
   31       -2.483881
   32       -2.458336
   33       -2.438774
   34       -2.417372
   35       -2.414774
   36       -2.397576
   37       -2.395408
   38       -2.372591
   39       -2.353066
   40       -1.352270
   41       -1.333997
   42       -1.303809
   43       -1.303609
   44       -1.273348
   45        0.364311
   46        0.657421
   47        0.681202
   48        0.681672
   49        0.705686
   50        1.113279
   51        1.114997
   52        1.199618
   53        1.218071
   54        1.218162
   55        1.236572
   56        1.642518
   57        1.645439
   58        1.964933
   59        2.249631
   60        2.251315
   61        2.255146
   62        2.256832
   63        2.845268
   64        2.853432
   65        6.599903
   66        6.605177
   67        6.895087
   68        6.899626
   69        6.905071
   70        6.909069
   71        7.436381
   72        7.445922
   73        7.760892
   74        8.201790
   75        8.203690
   76        8.820914
   77        9.540120
   78       12.123065
   79       12.209480
   80       12.213114
   81       12.322088
   82       12.322854
   83       12.506996
   84       13.178244
 
  0.1111111E+00  0.2222222E+00  0.0000000E+00  0.6172840E-02
    1      -14.347730
    2      -14.194315
    3      -14.193833
    4      -14.029334
    5      -11.756300
    6      -11.626398
    7      -11.625922
    8      -11.488329
    9      -11.130967
   10      -11.007037
   11      -11.006633
   12      -10.875755
   13       -9.396618
   14       -9.302554
   15       -9.301911
   16       -9.207510
   17       -7.806099
   18       -7.735039
   19       -7.732319
   20       -7.652447
   21       -6.166552
   22       -6.087310
   23       -6.085789
   24       -6.003325
   25       -5.569112
   26       -5.491924
   27       -5.491503
   28       -5.411479
   29       -3.424027
   30       -3.373262
   31       -3.371350
   32       -3.318668
   33       -3.145875
   34       -2.233060
   35       -2.226822
   36       -2.225082
   37       -2.193385
   38       -2.190863
   39       -2.150281
   40       -1.417053
   41       -1.384220
   42       -1.384097
   43       -1.350813
   44       -1.104911
   45       -0.094916
   46        0.001137
   47        0.024919
   48        0.027545
   49        0.050661