       N       E                     dE             d eps       ncg     rms          rms(c)
DAV:   1     0.980388147342E+01    0.98039E+01   -0.62970E+03  3104   0.138E+03
DAV:   2    -0.181237877355E+02   -0.27928E+02   -0.27624E+02  4752   0.141E+02
DAV:   3    -0.183856861046E+02   -0.26190E+00   -0.26190E+00  3528   0.178E+01
DAV:   4    -0.183861279659E+02   -0.44186E-03   -0.44186E-03  4320   0.777E-01
DAV:   5    -0.183861281841E+02   -0.21818E-06   -0.21818E-06  3336   0.126E-02    0.407E+00
DAV:   6    -0.180732823865E+02    0.31285E+00   -0.24530E-01  3248   0.385E+00    0.228E+00
DAV:   7    -0.179683495853E+02    0.10493E+00   -0.27628E-01  3856   0.419E+00    0.333E-01
DAV:   8    -0.179695176507E+02   -0.11681E-02   -0.18236E-03  3480   0.490E-01    0.412E-02
DAV:   9    -0.179695511145E+02   -0.33464E-04   -0.12839E-04  4592   0.100E-01    0.123E-02
DAV:  10    -0.179695622057E+02   -0.11091E-04   -0.13607E-05  3104   0.413E-02    0.101E-03
DAV:  11    -0.179695621041E+02    0.10153E-06   -0.48027E-08  4512   0.223E-03    0.224E-04
DAV:  12    -0.179695620757E+02    0.28485E-07   -0.61459E-09  3096   0.101E-03    0.580E-05
DAV:  13    -0.179695620777E+02   -0.20661E-08   -0.19643E-10  1552   0.129E-04
   1 F= -.18306019E+02 E0= -.18306019E+02  d E =-.183060E+02
