# Thermal properties / unit cell (natom)

unit:
  temperature:   K
  free_energy:   kJ/mol
  entropy:       J/K/mol
  heat_capacity: J/K/mol

natom:     2
num_modes: 1944
num_integrated_modes: 1944

zero_point_energy:      30.4958980
high_T_entropy:        114.7799187

thermal_properties:
- temperature:         0.0000000
  free_energy:        30.4958980
  entropy:             0.0000000
  heat_capacity:       0.0000000
  energy:             30.4958980

- temperature:        10.0000000
  free_energy:        30.4958980
  entropy:             0.0000000
  heat_capacity:       0.0000000
  energy:             30.4958980

- temperature:        20.0000000
  free_energy:        30.4958980
  entropy:             0.0000122
  heat_capacity:       0.0001433
  energy:             30.4958982

- temperature:        30.0000000
  free_energy:        30.4958961
  entropy:             0.0006072
  heat_capacity:       0.0047555
  energy:             30.4959143

- temperature:        40.0000000
  free_energy:        30.4958754
  entropy:             0.0043697
  heat_capacity:       0.0262207
  energy:             30.4960502

- temperature:        50.0000000
  free_energy:        30.4957863
  entropy:             0.0148231
  heat_capacity:       0.0741568
  energy:             30.4965275

- temperature:        60.0000000
  free_energy:        30.4955469
  entropy:             0.0348787
  heat_capacity:       0.1539893
  energy:             30.4976396

- temperature:        70.0000000
  free_energy:        30.4950489
  entropy:             0.0668957
  heat_capacity:       0.2711636
  energy:             30.4997316

- temperature:        80.0000000
  free_energy:        30.4941617
  entropy:             0.1131006
  heat_capacity:       0.4324055
  energy:             30.5032097

- temperature:        90.0000000
  free_energy:        30.4927320
  entropy:             0.1757567
  heat_capacity:       0.6447453
  energy:             30.5085501

- temperature:       100.0000000
  free_energy:        30.4905842
  entropy:             0.2571100
  heat_capacity:       0.9141961
  energy:             30.5162952

- temperature:       110.0000000
  free_energy:        30.4875205
  entropy:             0.3592577
  heat_capacity:       1.2450158
  energy:             30.5270388

- temperature:       120.0000000
  free_energy:        30.4833236
  entropy:             0.4840387
  heat_capacity:       1.6395858
  energy:             30.5414082

- temperature:       130.0000000
  free_energy:        30.4777592
  entropy:             0.6329722
  heat_capacity:       2.0986080
  energy:             30.5600455

- temperature:       140.0000000
  free_energy:        30.4705796
  entropy:             0.8072380
  heat_capacity:       2.6213697
  energy:             30.5835929

- temperature:       150.0000000
  free_energy:        30.4615271
  entropy:             1.0076803
  heat_capacity:       3.2059644
  energy:             30.6126792

- temperature:       160.0000000
  free_energy:        30.4503370
  entropy:             1.2348230
  heat_capacity:       3.8494591
  energy:             30.6479087

- temperature:       170.0000000
  free_energy:        30.4367409
  entropy:             1.4888892
  heat_capacity:       4.5480356
  energy:             30.6898520

- temperature:       180.0000000
  free_energy:        30.4204696
  entropy:             1.7698235
  heat_capacity:       5.2971317
  energy:             30.7390378

- temperature:       190.0000000
  free_energy:        30.4012559
  entropy:             2.0773163
  heat_capacity:       6.0915960
  energy:             30.7959459

- temperature:       200.0000000
  free_energy:        30.3788365
  entropy:             2.4108295
  heat_capacity:       6.9258549
  energy:             30.8610024

- temperature:       210.0000000
  free_energy:        30.3529550
  entropy:             2.7696253
  heat_capacity:       7.7940839
  energy:             30.9345763

- temperature:       220.0000000
  free_energy:        30.3233628
  entropy:             3.1527949
  heat_capacity:       8.6903726
  energy:             31.0169776

- temperature:       230.0000000
  free_energy:        30.2898213
  entropy:             3.5592889
  heat_capacity:       9.6088741
  energy:             31.1084578

- temperature:       240.0000000
  free_energy:        30.2521031
  entropy:             3.9879466
  heat_capacity:      10.5439313
  energy:             31.2092103

- temperature:       250.0000000
  free_energy:        30.2099926
  entropy:             4.4375240
  heat_capacity:      11.4901789
  energy:             31.3193736

- temperature:       260.0000000
  free_energy:        30.1632872
  entropy:             4.9067201
  heat_capacity:      12.4426184
  energy:             31.4390344

- temperature:       270.0000000
  free_energy:        30.1117973
  entropy:             5.3942001
  heat_capacity:      13.3966687
  energy:             31.5682313

- temperature:       280.0000000
  free_energy:        30.0553468
  entropy:             5.8986164
  heat_capacity:      14.3481951
  energy:             31.7069594

- temperature:       290.0000000
  free_energy:        29.9937730
  entropy:             6.4186260
  heat_capacity:      15.2935206
  energy:             31.8551745

- temperature:       300.0000000
  free_energy:        29.9269267
  entropy:             6.9529054
  heat_capacity:      16.2294215
  energy:             32.0127983

- temperature:       310.0000000
  free_energy:        29.8546716
  entropy:             7.5001631
  heat_capacity:      17.1531130
  energy:             32.1797222

- temperature:       320.0000000
  free_energy:        29.7768843
  entropy:             8.0591487
  heat_capacity:      18.0622256
  energy:             32.3558119

- temperature:       330.0000000
  free_energy:        29.6934536
  entropy:             8.6286603
  heat_capacity:      18.9547774
  energy:             32.5409115

- temperature:       340.0000000
  free_energy:        29.6042799
  entropy:             9.2075498
  heat_capacity:      19.8291419
  energy:             32.7348468

- temperature:       350.0000000
  free_energy:        29.5092750
  entropy:             9.7947267
  heat_capacity:      20.6840154
  energy:             32.9374293

- temperature:       360.0000000
  free_energy:        29.4083612
  entropy:            10.3891600
  heat_capacity:      21.5183835
  energy:             33.1484587

- temperature:       370.0000000
  free_energy:        29.3014708
  entropy:            10.9898791
  heat_capacity:      22.3314886
  energy:             33.3677261

- temperature:       380.0000000
  free_energy:        29.1885457
  entropy:            11.5959742
  heat_capacity:      23.1227994
  energy:             33.5950158

- temperature:       390.0000000
  free_energy:        29.0695362
  entropy:            12.2065950
  heat_capacity:      23.8919814
  energy:             33.8301083

- temperature:       400.0000000
  free_energy:        28.9444013
  entropy:            12.8209496
  heat_capacity:      24.6388705
  energy:             34.0727811

- temperature:       410.0000000
  free_energy:        28.8131073
  entropy:            13.4383025
  heat_capacity:      25.3634485
  energy:             34.3228113

- temperature:       420.0000000
  free_energy:        28.6756276
  entropy:            14.0579727
  heat_capacity:      26.0658208
  energy:             34.5799761

- temperature:       430.0000000
  free_energy:        28.5319422
  entropy:            14.6793307
  heat_capacity:      26.7461969
  energy:             34.8440544

- temperature:       440.0000000
  free_energy:        28.3820373
  entropy:            15.3017964
  heat_capacity:      27.4048728
  energy:             35.1148277

- temperature:       450.0000000
  free_energy:        28.2259044
  entropy:            15.9248364
  heat_capacity:      28.0422155
  energy:             35.3920807

- temperature:       460.0000000
  free_energy:        28.0635402
  entropy:            16.5479610
  heat_capacity:      28.6586490
  energy:             35.6756023

- temperature:       470.0000000
  free_energy:        27.8949464
  entropy:            17.1707218
  heat_capacity:      29.2546431
  energy:             35.9651856

- temperature:       480.0000000
  free_energy:        27.7201284
  entropy:            17.7927090
  heat_capacity:      29.8307026
  energy:             36.2606287

- temperature:       490.0000000
  free_energy:        27.5390960
  entropy:            18.4135489
  heat_capacity:      30.3873590
  energy:             36.5617350

- temperature:       500.0000000
  free_energy:        27.3518624
  entropy:            19.0329013
  heat_capacity:      30.9251621
  energy:             36.8683130

- temperature:       510.0000000
  free_energy:        27.1584440
  entropy:            19.6504574
  heat_capacity:      31.4446744
  energy:             37.1801772

- temperature:       520.0000000
  free_energy:        26.9588602
  entropy:            20.2659371
  heat_capacity:      31.9464650
  energy:             37.4971474

- temperature:       530.0000000
  free_energy:        26.7531330
  entropy:            20.8790875
  heat_capacity:      32.4311052
  energy:             37.8190494

- temperature:       540.0000000
  free_energy:        26.5412869
  entropy:            21.4896803
  heat_capacity:      32.8991649
  energy:             38.1457143

- temperature:       550.0000000
  free_energy:        26.3233486
  entropy:            22.0975103
  heat_capacity:      33.3512089
  energy:             38.4769793

- temperature:       560.0000000
  free_energy:        26.0993466
  entropy:            22.7023935
  heat_capacity:      33.7877948
  energy:             38.8126869

- temperature:       570.0000000
  free_energy:        25.8693111
  entropy:            23.3041656
  heat_capacity:      34.2094706
  energy:             39.1526855

- temperature:       580.0000000
  free_energy:        25.6332741
  entropy:            23.9026799
  heat_capacity:      34.6167728
  energy:             39.4968284

- temperature:       590.0000000
  free_energy:        25.3912688
  entropy:            24.4978067
  heat_capacity:      35.0102257
  energy:             39.8449748

- temperature:       600.0000000
  free_energy:        25.1433296
  entropy:            25.0894314
  heat_capacity:      35.3903397
  energy:             40.1969885

- temperature:       610.0000000
  free_energy:        24.8894922
  entropy:            25.6774534
  heat_capacity:      35.7576110
  energy:             40.5527387

- temperature:       620.0000000
  free_energy:        24.6297929
  entropy:            26.2617849
  heat_capacity:      36.1125209
  energy:             40.9120995

- temperature:       630.0000000
  free_energy:        24.3642690
  entropy:            26.8423500
  heat_capacity:      36.4555353
  energy:             41.2749495

- temperature:       640.0000000
  free_energy:        24.0929587
  entropy:            27.4190835
  heat_capacity:      36.7871050
  energy:             41.6411721

- temperature:       650.0000000
  free_energy:        23.8159003
  entropy:            27.9919301
  heat_capacity:      37.1076651
  energy:             42.0106549

- temperature:       660.0000000
  free_energy:        23.5331332
  entropy:            28.5608438
  heat_capacity:      37.4176352
  energy:             42.3832901

- temperature:       670.0000000
  free_energy:        23.2446967
  entropy:            29.1257865
  heat_capacity:      37.7174201
  energy:             42.7589737

- temperature:       680.0000000
  free_energy:        22.9506308
  entropy:            29.6867280
  heat_capacity:      38.0074089
  energy:             43.1376058

- temperature:       690.0000000
  free_energy:        22.6509755
  entropy:            30.2436448
  heat_capacity:      38.2879766
  energy:             43.5190904

- temperature:       700.0000000
  free_energy:        22.3457713
  entropy:            30.7965197
  heat_capacity:      38.5594833
  energy:             43.9033352

- temperature:       710.0000000
  free_energy:        22.0350587
  entropy:            31.3453414
  heat_capacity:      38.8222753
  energy:             44.2902511

- temperature:       720.0000000
  free_energy:        21.7188780
  entropy:            31.8901037
  heat_capacity:      39.0766850
  energy:             44.6797527

- temperature:       730.0000000
  free_energy:        21.3972701
  entropy:            32.4308052
  heat_capacity:      39.3230316
  energy:             45.0717579

- temperature:       740.0000000
  free_energy:        21.0702755
  entropy:            32.9674487
  heat_capacity:      39.5616217
  energy:             45.4661875

- temperature:       750.0000000
  free_energy:        20.7379347
  entropy:            33.5000411
  heat_capacity:      39.7927491
  energy:             45.8629654

- temperature:       760.0000000
  free_energy:        20.4002881
  entropy:            34.0285927
  heat_capacity:      40.0166958
  energy:             46.2620185

- temperature:       770.0000000
  free_energy:        20.0573762
  entropy:            34.5531170
  heat_capacity:      40.2337323
  energy:             46.6632763

- temperature:       780.0000000
  free_energy:        19.7092391
  entropy:            35.0736306
  heat_capacity:      40.4441179
  energy:             47.0666710

- temperature:       790.0000000
  free_energy:        19.3559169
  entropy:            35.5901524
  heat_capacity:      40.6481012
  energy:             47.4721373

- temperature:       800.0000000
  free_energy:        18.9974493
  entropy:            36.1027040
  heat_capacity:      40.8459205
  energy:             47.8796125

- temperature:       810.0000000
  free_energy:        18.6338760
  entropy:            36.6113086
  heat_capacity:      41.0378044
  energy:             48.2890360

- temperature:       820.0000000
  free_energy:        18.2652362
  entropy:            37.1159918
  heat_capacity:      41.2239719
  energy:             48.7003495

- temperature:       830.0000000
  free_energy:        17.8915691
  entropy:            37.6167806
  heat_capacity:      41.4046330
  energy:             49.1134971

- temperature:       840.0000000
  free_energy:        17.5129135
  entropy:            38.1137036
  heat_capacity:      41.5799888
  energy:             49.5284245

- temperature:       850.0000000
  free_energy:        17.1293079
  entropy:            38.6067905
  heat_capacity:      41.7502324
  energy:             49.9450798

- temperature:       860.0000000
  free_energy:        16.7407904
  entropy:            39.0960725
  heat_capacity:      41.9155487
  energy:             50.3634127

- temperature:       870.0000000
  free_energy:        16.3473990
  entropy:            39.5815816
  heat_capacity:      42.0761151
  energy:             50.7833749

- temperature:       880.0000000
  free_energy:        15.9491712
  entropy:            40.0633506
  heat_capacity:      42.2321017
  energy:             51.2049198

- temperature:       890.0000000
  free_energy:        15.5461443
  entropy:            40.5414134
  heat_capacity:      42.3836713
  energy:             51.6280023

- temperature:       900.0000000
  free_energy:        15.1383552
  entropy:            41.0158042
  heat_capacity:      42.5309806
  energy:             52.0525790

- temperature:       910.0000000
  free_energy:        14.7258404
  entropy:            41.4865580
  heat_capacity:      42.6741793
  energy:             52.4786082

- temperature:       920.0000000
  free_energy:        14.3086360
  entropy:            41.9537101
  heat_capacity:      42.8134115
  energy:             52.9060494

- temperature:       930.0000000
  free_energy:        13.8867780
  entropy:            42.4172963
  heat_capacity:      42.9488150
  energy:             53.3348636

- temperature:       940.0000000
  free_energy:        13.4603019
  entropy:            42.8773526
  heat_capacity:      43.0805225
  energy:             53.7650133

- temperature:       950.0000000
  free_energy:        13.0292426
  entropy:            43.3339153
  heat_capacity:      43.2086610
  energy:             54.1964622

- temperature:       960.0000000
  free_energy:        12.5936351
  entropy:            43.7870208
  heat_capacity:      43.3333525
  energy:             54.6291751

- temperature:       970.0000000
  free_energy:        12.1535136
  entropy:            44.2367057
  heat_capacity:      43.4547141
  energy:             55.0631181

- temperature:       980.0000000
  free_energy:        11.7089123
  entropy:            44.6830065
  heat_capacity:      43.5728583
  energy:             55.4982586

- temperature:       990.0000000
  free_energy:        11.2598647
  entropy:            45.1259599
  heat_capacity:      43.6878932
  energy:             55.9345649

- temperature:      1000.0000000
  free_energy:        10.8064041
  entropy:            45.5656024
  heat_capacity:      43.7999224
  energy:             56.3720065
