graphite                                
           1
     2.633622    0.000000    0.000000
     1.316811    2.280784    0.000000
     1.316811    0.760261    2.150343
   C 
   2
Direct configuration=     1
   0.00000000  0.00000000  0.00000000
   0.25000000  0.25000000  0.24999999
