    2    2    1    1
  0.5265935E+02  0.2466437E-09  0.2466437E-09  0.2000000E-08  0.5000000E-15
  1.000000000000000E-004
  CAR 
 graphite                                
      8    215      8
 
  0.0000000E+00  0.0000000E+00  0.0000000E+00  0.8680556E-03
    1      -22.260934
    2      -10.363968
    3       -5.791476
    4       -5.767237
    5        0.523823
    6        1.323342
    7        1.693158
    8        2.600905
 
  0.8333333E-01  0.6938894E-17  0.0000000E+00  0.3472222E-02
    1      -22.096833
    2      -10.168097
    3       -6.425014
    4       -6.123697
    5        0.746622
    6        1.548988
    7        1.921595
    8        2.827280
 
  0.1666667E+00  0.1387779E-16  0.0000000E+00  0.3472222E-02
    1      -21.606302
    2       -9.585754
    3       -8.064027
    4       -6.916511
    5        1.414960
    6        2.224563
    7        2.606929
    8        3.505243
 
  0.2500000E+00  0.0000000E+00  0.0000000E+00  0.3472222E-02
    1      -20.795161
    2      -10.164024
    3       -8.636158
    4       -7.796249
    5        2.526622
    6        3.334113
    7        3.748780
    8        4.450348
 
  0.3333333E+00  0.2775558E-16  0.0000000E+00  0.3472222E-02
    1      -19.675662
    2      -12.368728
    3       -8.529444
    4       -7.369581
    5        2.161509
    6        4.068701
    7        4.938988
    8        4.956805
 
  0.4166667E+00  0.5551115E-16  0.0000000E+00  0.3472222E-02
    1      -18.279377
    2      -14.469724
    3       -9.002169
    4       -5.949002
    5        0.029948
    6        4.696087
    7        6.078825
    8        6.935319
 
  0.5000000E+00  0.0000000E+00  0.0000000E+00  0.1736111E-02
    1      -17.019026
    2      -15.972838
    3       -9.164427
    4       -5.105996
    5       -1.065749
    6        4.616383
    7        8.379367
    8        8.531247
 
  0.8333333E-01  0.8333333E-01  0.0000000E+00  0.1736111E-02
    1      -21.769279
    2       -9.778652
    3       -7.456138
    4       -6.804839
    5        1.192712
    6        2.000027
    7        2.378829
    8        3.279911
 
  0.1666667E+00  0.8333333E-01  0.0000000E+00  0.3472222E-02
    1      -21.118217
    2       -9.170184
    3       -9.011287
    4       -7.800253
    5        2.083924
    6        2.898314
    7        3.292976
    8        4.181349
 
  0.2500000E+00  0.8333333E-01  0.0000000E+00  0.3472222E-02
    1      -20.152493
    2      -11.246202
    3       -8.685262
    4       -7.896564
    5        3.171054
    6        3.415912
    7        4.264507
    8        4.663248
 
  0.3333333E+00  0.8333333E-01  0.0000000E+00  0.3472222E-02
    1      -18.891181
    2      -13.370649
    3       -9.319970
    4       -6.518805
    5        0.974235
    6        5.155760
    7        5.558999
    8        6.033929
 
  0.4166667E+00  0.8333333E-01  0.0000000E+00  0.3472222E-02
    1      -17.412147
    2      -15.311747
    3       -9.648779
    4       -5.211992
    5       -0.791195
    6        5.355198
    7        7.377273
    8        8.201426
 
  0.5000000E+00  0.8333333E-01  0.0000000E+00  0.3472222E-02
    1      -17.414271
    2      -15.309391
    3       -9.649337
    4       -5.212964
    5       -0.790403
    6        5.356170
    7        7.373676
    8        8.198580
 
 -0.4166667E+00  0.8333333E-01  0.0000000E+00  0.3472222E-02
    1      -18.893228
    2      -13.368128
    3       -9.321383
    4       -6.520373
    5        0.975095
    6        5.153484
    7        5.561323
    8        6.031336
 
 -0.3333333E+00  0.8333333E-01  0.0000000E+00  0.3472222E-02
    1      -20.154134
    2      -11.244820
    3       -8.686371
    4       -7.898002
    5        3.170868
    6        3.413786
    7        4.262406
    8        4.661098
 
 -0.2500000E+00  0.8333333E-01  0.0000000E+00  0.3472222E-02
    1      -21.119406
    2       -9.173233
    3       -9.012393
    4       -7.797433
    5        2.082416
    6        2.896839
    7        3.291437
    8        4.179868
 
 -0.1666667E+00  0.8333333E-01  0.0000000E+00  0.3472222E-02
    1      -21.769996
    2       -9.779341
    3       -7.470586
    4       -6.790543
    5        1.191816
    6        1.999131
    7        2.377906
    8        3.279008
 
 -0.8333333E-01  0.8333333E-01  0.0000000E+00  0.1736111E-02
    1      -22.097073
    2      -10.168330
    3       -6.443164
    4       -6.105476
    5        0.746324
    6        1.548688
    7        1.921288
    8        2.826978
 
  0.1666667E+00  0.1666667E+00  0.0000000E+00  0.1736111E-02
    1      -20.312524
    2      -10.502406
    3       -9.162232
    4       -8.074910
    5        3.196520
    6        3.625995
    7        4.015354
    8        4.435942
 
  0.2500000E+00  0.1666667E+00  0.0000000E+00  0.3472222E-02
    1      -19.203485
    2      -12.232714
    3      -10.217599
    4       -6.823238
    5        1.680463
    6        4.744707
    7        5.557977
    8        6.034844
 
  0.3333333E+00  0.1666667E+00  0.0000000E+00  0.3472222E-02
    1      -17.826806
    2      -14.144906
    3      -10.793556
    4       -5.398652
    5       -0.229130
    6        6.699412
    7        7.273691
    8        7.449954
 
  0.4166667E+00  0.1666667E+00  0.0000000E+00  0.3472222E-02
    1      -16.597408
    2      -15.574742
    3      -10.978977
    4       -4.508938
    5       -1.294438
    6        7.165377
    7        8.864597
    8        8.938902
 
  0.5000000E+00  0.1666667E+00  0.0000000E+00  0.3472222E-02
    1      -17.831084
    2      -14.140484
    3      -10.794315
    4       -5.401500
    5       -0.227637
    6        6.693302
    7        7.276306
    8        7.445031
 
 -0.4166667E+00  0.1666667E+00  0.0000000E+00  0.3472222E-02
    1      -19.207138
    2      -12.231241
    3      -10.216490
    4       -6.826269
    5        1.680220
    6        4.739765
    7        5.553431
    8        6.029909
 
 -0.3333333E+00  0.1666667E+00  0.0000000E+00  0.3472222E-02
    1      -20.315333
    2      -10.510675
    3       -9.152327
    4       -8.077444
    5        3.192867
    6        3.622895
    7        4.011849
    8        4.432245
 
 -0.2500000E+00  0.1666667E+00  0.0000000E+00  0.3472222E-02
    1      -21.120109
    2       -9.186621
    3       -9.013076
    4       -7.782560
    5        2.081521
    6        2.895927
    7        3.290516
    8        4.178923
 
 -0.1666667E+00  0.1666667E+00  0.0000000E+00  0.1736111E-02
    1      -21.607252
    2       -9.586671
    3       -8.082271
    4       -6.897176
    5        1.413765
    6        2.223364
    7        2.605700
    8        3.504035
 
  0.2500000E+00  0.2500000E+00  0.0000000E+00  0.1736111E-02
    1      -17.974094
    2      -13.270489
    3      -11.700610
    4       -5.482241
    5        0.066719
    6        6.492814
    7        7.163609
    8        7.860872
 
  0.3333333E+00  0.2500000E+00  0.0000000E+00  0.3472222E-02
    1      -16.552084
    2      -14.692697
    3      -12.407605
    4       -4.099213
    5       -1.451823
    6        8.133126
    7        8.584301
    8        9.437963
 
  0.4166667E+00  0.2500000E+00  0.0000000E+00  0.3472222E-02
    1      -16.557780
    2      -14.688493
    3      -12.406131
    4       -4.102331
    5       -1.450267
    6        8.132602
    7        8.573184
    8        9.439193
 
  0.5000000E+00  0.2500000E+00  0.0000000E+00  0.3472222E-02
    1      -17.979876
    2      -13.273567
    3      -11.691771
    4       -5.486692
    5        0.066284
    6        6.484329
    7        7.157731
    8        7.852533
 
 -0.4166667E+00  0.2500000E+00  0.0000000E+00  0.3472222E-02
    1      -19.208223
    2      -12.243426
    3      -10.201965
    4       -6.827343
    5        1.676370
    6        4.738294
    7        5.552169
    8        6.028389
 
 -0.3333333E+00  0.2500000E+00  0.0000000E+00  0.3472222E-02
    1      -20.155953
    2      -11.260705
    3       -8.666550
    4       -7.899755
    5        3.163937
    6        3.411440
    7        4.260188
    8        4.658676
 
 -0.2500000E+00  0.2500000E+00  0.0000000E+00  0.1736111E-02
    1      -20.797260
    2      -10.180959
    3       -8.638160
    4       -7.775851
    5        2.523958
    6        3.331310
    7        3.746032
    8        4.443888
 
  0.3333333E+00  0.3333333E+00  0.0000000E+00  0.1736111E-02
    1      -15.339528
    2      -15.338560
    3      -13.295783
    4       -2.749713
    5       -2.746227
    6        7.874060
    7       10.131624
    8       10.149888
 
  0.4166667E+00  0.3333333E+00  0.0000000E+00  0.3472222E-02
    1      -16.558614
    2      -14.699271
    3      -12.393754
    4       -4.104198
    5       -1.452286
    6        8.135234
    7        8.571750
    8        9.479003
 
  0.5000000E+00  0.3333333E+00  0.0000000E+00  0.3472222E-02
    1      -17.833356
    2      -14.154348
    3      -10.776053
    4       -5.404023
    5       -0.233562
    6        6.690959
    7        7.315510
    8        7.442939
 
 -0.4166667E+00  0.3333333E+00  0.0000000E+00  0.3472222E-02
    1      -18.896434
    2      -13.382845
    3       -9.300198
    4       -6.523491
    5        0.966564
    6        5.152303
    7        5.595555
    8        6.027241
 
 -0.3333333E+00  0.3333333E+00  0.0000000E+00  0.1736111E-02
    1      -19.679259
    2      -12.383581
    3       -8.508148
    4       -7.372955
    5        2.152471
    6        4.064665
    7        4.934381
    8        4.992257
 
  0.4166667E+00  0.4166667E+00  0.0000000E+00  0.1736111E-02
    1      -16.600432
    2      -15.587920
    3      -10.960543
    4       -4.513676
    5       -1.299696
    6        7.207954
    7        8.868143
    8        8.926532
 
  0.5000000E+00  0.4166667E+00  0.0000000E+00  0.3472222E-02
    1      -17.418280
    2      -15.322895
    3       -9.628061
    4       -5.217566
    5       -0.798857
    6        5.396068
    7        7.366396
    8        8.193032
 
 -0.4166667E+00  0.4166667E+00  0.0000000E+00  0.1736111E-02
    1      -18.284482
    2      -14.482531
    3       -8.980283
    4       -5.953773
    5        0.020787
    6        4.734781
    7        6.071397
    8        6.928407
 
  0.5000000E+00  0.5000000E+00  0.0000000E+00  0.8680556E-03
    1      -17.022819
    2      -15.986743
    3       -9.142338
    4       -5.111479
    5       -1.074631
    6        4.655929
    7        8.366239
    8        8.522467
 
  0.0000000E+00  0.0000000E+00  0.1250000E+00  0.1736111E-02
    1      -22.260936
    2      -10.363974
    3       -5.791502
    4       -5.767263
    5        0.524150
    6        1.314189
    7        1.716281
    8        2.537849
 
  0.8333333E-01  0.6938894E-17  0.1250000E+00  0.6944444E-02
    1      -22.096832
    2      -10.168102
    3       -6.425012
    4       -6.123699
    5        0.746942
    6        1.539993
    7        1.944528
    8        2.764335
 
  0.1666667E+00  0.1387779E-16  0.1250000E+00  0.6944444E-02
    1      -21.606300
    2       -9.585756
    3       -8.064039
    4       -6.916513
    5        1.415259
    6        2.216082
    7        2.629214
    8        3.442891
 
  0.2500000E+00  0.0000000E+00  0.1250000E+00  0.6944444E-02
    1      -20.795160
    2      -10.164021
    3       -8.636145
    4       -7.796243
    5        2.526887
    6        3.327108
    7        3.768630
    8        4.441647
 
  0.3333333E+00  0.2775558E-16  0.1250000E+00  0.6944444E-02
    1      -19.675661
    2      -12.368729
    3       -8.529450
    4       -7.369563
    5        2.161508
    6        4.068910
    7        4.931554
    8        4.957504
 
  0.4166667E+00  0.5551115E-16  0.1250000E+00  0.6944444E-02
    1      -18.279376
    2      -14.469723
    3       -9.002178
    4       -5.949004
    5        0.029946
    6        4.696089
    7        6.079002
    8        6.930176
 
  0.5000000E+00  0.0000000E+00  0.1250000E+00  0.3472222E-02
    1      -17.019030
    2      -15.972838
    3       -9.164447
    4       -5.106001
    5       -1.065752
    6        4.616376
    7        8.379450
    8        8.531383
 
  0.8333333E-01  0.8333333E-01  0.1250000E+00  0.3472222E-02
    1      -21.769279
    2       -9.778653
    3       -7.456143
    4       -6.804849
    5        1.193018
    6        1.991363
    7        2.401349
    8        3.217329
 
  0.1666667E+00  0.8333333E-01  0.1250000E+00  0.6944444E-02
    1      -21.118217
    2       -9.170184
    3       -9.011286
    4       -7.800246
    5        2.084203
    6        2.890416
    7        3.314477
    8        4.120314
 
  0.2500000E+00  0.8333333E-01  0.1250000E+00  0.6944444E-02
    1      -20.152492
    2      -11.246200
    3       -8.685260
    4       -7.896563
    5        3.171052
    6        3.416152
    7        4.257088
    8        4.684145
 
  0.3333333E+00  0.8333333E-01  0.1250000E+00  0.6944444E-02
    1      -18.891180
    2      -13.370648
    3       -9.319977
    4       -6.518810
    5        0.974233
    6        5.155916
    7        5.559071
    8        6.028443
 
  0.4166667E+00  0.8333333E-01  0.1250000E+00  0.6944444E-02
    1      -17.412146
    2      -15.311749
    3       -9.648773
    4       -5.211991
    5       -0.791183
    6        5.355201
    7        7.377408
    8        8.198416
 
  0.5000000E+00  0.8333333E-01  0.1250000E+00  0.6944444E-02
    1      -17.414270
    2      -15.309392
    3       -9.649332
    4       -5.212963
    5       -0.790391
    6        5.356173
    7        7.373811
    8        8.195562
 
 -0.4166667E+00  0.8333333E-01  0.1250000E+00  0.6944444E-02
    1      -18.893226
    2      -13.368123
    3       -9.321384
    4       -6.520377
    5        0.975097
    6        5.153641
    7        5.561398
    8        6.025845
 
 -0.3333333E+00  0.8333333E-01  0.1250000E+00  0.6944444E-02
    1      -20.154135
    2      -11.244820
    3       -8.686372
    4       -7.897999
    5        3.170866
    6        3.414025
    7        4.254984
    8        4.682004
 
 -0.2500000E+00  0.8333333E-01  0.1250000E+00  0.6944444E-02
    1      -21.119406
    2       -9.173227
    3       -9.012395
    4       -7.797431
    5        2.082695
    6        2.888939
    7        3.312942
    8        4.118822
 
 -0.1666667E+00  0.8333333E-01  0.1250000E+00  0.6944444E-02
    1      -21.769997
    2       -9.779340
    3       -7.470590
    4       -6.790546
    5        1.192121
    6        1.990465
    7        2.400428
    8        3.216425
 
 -0.8333333E-01  0.8333333E-01  0.1250000E+00  0.3472222E-02
    1      -22.097072
    2      -10.168333
    3       -6.443163
    4       -6.105477
    5        0.746644
    6        1.539692
    7        1.944221
    8        2.764033
 
  0.1666667E+00  0.1666667E+00  0.1250000E+00  0.3472222E-02
    1      -20.312525
    2      -10.502409
    3       -9.162228
    4       -8.074895
    5        3.196768
    6        3.625994
    7        4.008522
    8        4.455948
 
  0.2500000E+00  0.1666667E+00  0.1250000E+00  0.6944444E-02
    1      -19.203484
    2      -12.232711
    3      -10.217597
    4       -6.823244
    5        1.680460
    6        4.744909
    7        5.552942
    8        6.051997
 
  0.3333333E+00  0.1666667E+00  0.1250000E+00  0.6944444E-02
    1      -17.826808
    2      -14.144914
    3      -10.793560
    4       -5.398667
    5       -0.229142
    6        6.699544
    7        7.273726
    8        7.447752
 
  0.4166667E+00  0.1666667E+00  0.1250000E+00  0.6944444E-02
    1      -16.597408
    2      -15.574740
    3      -10.978968
    4       -4.508931
    5       -1.294439
    6        7.165367
    7        8.864568
    8        8.938959
 
  0.5000000E+00  0.1666667E+00  0.1250000E+00  0.6944444E-02
    1      -17.831084
    2      -14.140486
    3      -10.794318
    4       -5.401515
    5       -0.227649
    6        6.693434
    7        7.276344
    8        7.442817
 
 -0.4166667E+00  0.1666667E+00  0.1250000E+00  0.6944444E-02
    1      -19.207139
    2      -12.231238
    3      -10.216489
    4       -6.826272
    5        1.680216
    6        4.739967
    7        5.548387
    8        6.047081
 
 -0.3333333E+00  0.1666667E+00  0.1250000E+00  0.6944444E-02
    1      -20.315333
    2      -10.510680
    3       -9.152327
    4       -8.077434
    5        3.193116
    6        3.622888
    7        4.005010
    8        4.452262
 
 -0.2500000E+00  0.1666667E+00  0.1250000E+00  0.6944444E-02
    1      -21.120109
    2       -9.186611
    3       -9.013072
    4       -7.782560
    5        2.081800
    6        2.888027
    7        3.312021
    8        4.117895
 
 -0.1666667E+00  0.1666667E+00  0.1250000E+00  0.3472222E-02
    1      -21.607251
    2       -9.586673
    3       -8.082273
    4       -6.897177
    5        1.414064
    6        2.214881
    7        2.627987
    8        3.441683
 
  0.2500000E+00  0.2500000E+00  0.1250000E+00  0.3472222E-02
    1      -17.974092
    2      -13.270483
    3      -11.700605
    4       -5.482247
    5        0.066720
    6        6.492963
    7        7.161921
    8        7.869582
 
  0.3333333E+00  0.2500000E+00  0.1250000E+00  0.6944444E-02
    1      -16.552083
    2      -14.692694
    3      -12.407606
    4       -4.099214
    5       -1.451827
    6        8.133116
    7        8.584373
    8        9.438005
 
  0.4166667E+00  0.2500000E+00  0.1250000E+00  0.6944444E-02
    1      -16.557778
    2      -14.688496
    3      -12.406131
    4       -4.102332
    5       -1.450268
    6        8.132593
    7        8.573257
    8        9.439237
 
  0.5000000E+00  0.2500000E+00  0.1250000E+00  0.6944444E-02
    1      -17.979874
    2      -13.273560
    3      -11.691771
    4       -5.486698
    5        0.066278
    6        6.484478
    7        7.156024
    8        7.861325
 
 -0.4166667E+00  0.2500000E+00  0.1250000E+00  0.6944444E-02
    1      -19.208223
    2      -12.243429
    3      -10.201968
    4       -6.827346
    5        1.676365
    6        4.738497
    7        5.547117
    8        6.045574
 
 -0.3333333E+00  0.2500000E+00  0.1250000E+00  0.6944444E-02
    1      -20.155955
    2      -11.260704
    3       -8.666550
    4       -7.899752
    5        3.163932
    6        3.411679
    7        4.252757
    8        4.679594
 
 -0.2500000E+00  0.2500000E+00  0.1250000E+00  0.3472222E-02
    1      -20.797261
    2      -10.180960
    3       -8.638148
    4       -7.775845
    5        2.524222
    6        3.324307
    7        3.765871
    8        4.435628
 
  0.3333333E+00  0.3333333E+00  0.1250000E+00  0.3472222E-02
    1      -15.339529
    2      -15.338564
    3      -13.295783
    4       -2.749718
    5       -2.746231
    6        7.874060
    7       10.131630
    8       10.149886
 
  0.4166667E+00  0.3333333E+00  0.1250000E+00  0.6944444E-02
    1      -16.558612
    2      -14.699269
    3      -12.393751
    4       -4.104197
    5       -1.452281
    6        8.135227
    7        8.571824
    8        9.479054
 
  0.5000000E+00  0.3333333E+00  0.1250000E+00  0.6944444E-02
    1      -17.833357
    2      -14.154348
    3      -10.776058
    4       -5.404038
    5       -0.233574
    6        6.691093
    7        7.315554
    8        7.440709
 
 -0.4166667E+00  0.3333333E+00  0.1250000E+00  0.6944444E-02
    1      -18.896433
    2      -13.382844
    3       -9.300198
    4       -6.523487
    5        0.966562
    6        5.152465
    7        5.595623
    8        6.021737
 
 -0.3333333E+00  0.3333333E+00  0.1250000E+00  0.3472222E-02
    1      -19.679258
    2      -12.383581
    3       -8.508154
    4       -7.372937
    5        2.152470
    6        4.064876
    7        4.927157
    8        4.992807
 
  0.4166667E+00  0.4166667E+00  0.1250000E+00  0.3472222E-02
    1      -16.600430
    2      -15.587910
    3      -10.960530
    4       -4.513668
    5       -1.299697
    6        7.207947
    7        8.868113
    8        8.926589
 
  0.5000000E+00  0.4166667E+00  0.1250000E+00  0.6944444E-02
    1      -17.418281
    2      -15.322894
    3       -9.628059
    4       -5.217565
    5       -0.798846
    6        5.396066
    7        7.366531
    8        8.189987
 
 -0.4166667E+00  0.4166667E+00  0.1250000E+00  0.3472222E-02
    1      -18.284479
    2      -14.482529
    3       -8.980291
    4       -5.953774
    5        0.020795
    6        4.734786
    7        6.071573
    8        6.923243
 
  0.5000000E+00  0.5000000E+00  0.1250000E+00  0.1736111E-02
    1      -17.022821
    2      -15.986742
    3       -9.142351
    4       -5.111483
    5       -1.074634
    6        4.655925
    7        8.366322
    8        8.522604
 
  0.0000000E+00  0.0000000E+00  0.2500000E+00  0.1736111E-02
    1      -22.260937
    2      -10.363958
    3       -5.791503
    4       -5.767264
    5        0.524945
    6        1.294673
    7        1.775130
    8        2.415458
 
  0.8333333E-01  0.6938894E-17  0.2500000E+00  0.6944444E-02
    1      -22.096832
    2      -10.168100
    3       -6.425019
    4       -6.123694
    5        0.747719
    6        1.520769
    7        2.002979
    8        2.642184
 
  0.1666667E+00  0.1387779E-16  0.2500000E+00  0.6944444E-02
    1      -21.606300
    2       -9.585754
    3       -8.064045
    4       -6.916525
    5        1.415983
    6        2.197824
    7        2.686274
    8        3.321836
 
  0.2500000E+00  0.0000000E+00  0.2500000E+00  0.6944444E-02
    1      -20.795162
    2      -10.164025
    3       -8.636151
    4       -7.796255
    5        2.527526
    6        3.311684
    7        3.819762
    8        4.402920
 
  0.3333333E+00  0.2775558E-16  0.2500000E+00  0.6944444E-02
    1      -19.675657
    2      -12.368730
    3       -8.529451
    4       -7.369566
    5        2.161514
    6        4.069414
    7        4.916028
    8        4.958180
 
  0.4166667E+00  0.5551115E-16  0.2500000E+00  0.6944444E-02
    1      -18.279377
    2      -14.469726
    3       -9.002172
    4       -5.949011
    5        0.029954
    6        4.696092
    7        6.079429
    8        6.918560
 
  0.5000000E+00  0.0000000E+00  0.2500000E+00  0.3472222E-02
    1      -17.019031
    2      -15.972838
    3       -9.164447
    4       -5.106002
    5       -1.065757
    6        4.616372
    7        8.379656
    8        8.531713
 
  0.8333333E-01  0.8333333E-01  0.2500000E+00  0.3472222E-02
    1      -21.769281
    2       -9.778648
    3       -7.456149
    4       -6.804851
    5        1.193760
    6        1.972759
    7        2.458918
    8        3.095848
 
  0.1666667E+00  0.8333333E-01  0.2500000E+00  0.6944444E-02
    1      -21.118219
    2       -9.170181
    3       -9.011288
    4       -7.800246
    5        2.084878
    6        2.873269
    7        3.369792
    8        4.001297
 
  0.2500000E+00  0.8333333E-01  0.2500000E+00  0.6944444E-02
    1      -20.152494
    2      -11.246203
    3       -8.685267
    4       -7.896571
    5        3.171037
    6        3.416729
    7        4.240898
    8        4.738154
 
  0.3333333E+00  0.8333333E-01  0.2500000E+00  0.6944444E-02
    1      -18.891182
    2      -13.370647
    3       -9.319978
    4       -6.518815
    5        0.974237
    6        5.156294
    7        5.559245
    8        6.016095
 
  0.4166667E+00  0.8333333E-01  0.2500000E+00  0.6944444E-02
    1      -17.412148
    2      -15.311747
    3       -9.648768
    4       -5.211984
    5       -0.791178
    6        5.355195
    7        7.377734
    8        8.191403
 
  0.5000000E+00  0.8333333E-01  0.2500000E+00  0.6944444E-02
    1      -17.414270
    2      -15.309391
    3       -9.649323
    4       -5.212956
    5       -0.790386
    6        5.356167
    7        7.374137
    8        8.188532
 
 -0.4166667E+00  0.8333333E-01  0.2500000E+00  0.6944444E-02
    1      -18.893228
    2      -13.368123
    3       -9.321386
    4       -6.520381
    5        0.975104
    6        5.154020
    7        5.561573
    8        6.013487
 
 -0.3333333E+00  0.8333333E-01  0.2500000E+00  0.6944444E-02
    1      -20.154138
    2      -11.244819
    3       -8.686381
    4       -7.898010
    5        3.170852
    6        3.414603
    7        4.238790
    8        4.736015
 
 -0.2500000E+00  0.8333333E-01  0.2500000E+00  0.6944444E-02
    1      -21.119407
    2       -9.173224
    3       -9.012394
    4       -7.797429
    5        2.083371
    6        2.871786
    7        3.368267
    8        3.999792
 
 -0.1666667E+00  0.8333333E-01  0.2500000E+00  0.6944444E-02
    1      -21.769998
    2       -9.779337
    3       -7.470596
    4       -6.790552
    5        1.192863
    6        1.971859
    7        2.458001
    8        3.094939
 
 -0.8333333E-01  0.8333333E-01  0.2500000E+00  0.3472222E-02
    1      -22.097072
    2      -10.168334
    3       -6.443174
    4       -6.105473
    5        0.747421
    6        1.520468
    7        2.002673
    8        2.641881
 
  0.1666667E+00  0.1666667E+00  0.2500000E+00  0.3472222E-02
    1      -20.312525
    2      -10.502408
    3       -9.162224
    4       -8.074894
    5        3.197367
    6        3.625991
    7        3.993450
    8        4.507835
 
  0.2500000E+00  0.1666667E+00  0.2500000E+00  0.6944444E-02
    1      -19.203483
    2      -12.232712
    3      -10.217595
    4       -6.823242
    5        1.680448
    6        4.745399
    7        5.541536
    8        6.096945
 
  0.3333333E+00  0.1666667E+00  0.2500000E+00  0.6944444E-02
    1      -17.826809
    2      -14.144912
    3      -10.793560
    4       -5.398659
    5       -0.229137
    6        6.699870
    7        7.273838
    8        7.442554
 
  0.4166667E+00  0.1666667E+00  0.2500000E+00  0.6944444E-02
    1      -16.597409
    2      -15.574739
    3      -10.978971
    4       -4.508934
    5       -1.294443
    6        7.165363
    7        8.864496
    8        8.939092
 
  0.5000000E+00  0.1666667E+00  0.2500000E+00  0.6944444E-02
    1      -17.831085
    2      -14.140486
    3      -10.794316
    4       -5.401507
    5       -0.227643
    6        6.693760
    7        7.276455
    8        7.437590
 
 -0.4166667E+00  0.1666667E+00  0.2500000E+00  0.6944444E-02
    1      -19.207140
    2      -12.231241
    3      -10.216485
    4       -6.826281
    5        1.680206
    6        4.740456
    7        5.536960
    8        6.092076
 
 -0.3333333E+00  0.1666667E+00  0.2500000E+00  0.6944444E-02
    1      -20.315332
    2      -10.510676
    3       -9.152320
    4       -8.077430
    5        3.193715
    6        3.622890
    7        3.989924
    8        4.504175
 
 -0.2500000E+00  0.1666667E+00  0.2500000E+00  0.6944444E-02
    1      -21.120109
    2       -9.186607
    3       -9.013074
    4       -7.782558
    5        2.082476
    6        2.870873
    7        3.367347
    8        3.998878
 
 -0.1666667E+00  0.1666667E+00  0.2500000E+00  0.3472222E-02
    1      -21.607249
    2       -9.586668
    3       -8.082274
    4       -6.897175
    5        1.414789
    6        2.196620
    7        2.685051
    8        3.320627
 
  0.2500000E+00  0.2500000E+00  0.2500000E+00  0.3472222E-02
    1      -17.974091
    2      -13.270485
    3      -11.700602
    4       -5.482233
    5        0.066738
    6        6.493326
    7        7.157914
    8        7.891974
 
  0.3333333E+00  0.2500000E+00  0.2500000E+00  0.6944444E-02
    1      -16.552084
    2      -14.692696
    3      -12.407610
    4       -4.099218
    5       -1.451840
    6        8.133096
    7        8.584550
    8        9.438098
 
  0.4166667E+00  0.2500000E+00  0.2500000E+00  0.6944444E-02
    1      -16.557778
    2      -14.688497
    3      -12.406136
    4       -4.102336
    5       -1.450284
    6        8.132571
    7        8.573434
    8        9.439332
 
  0.5000000E+00  0.2500000E+00  0.2500000E+00  0.6944444E-02
    1      -17.979875
    2      -13.273568
    3      -11.691770
    4       -5.486684
    5        0.066302
    6        6.484841
    7        7.151972
    8        7.883938
 
 -0.4166667E+00  0.2500000E+00  0.2500000E+00  0.6944444E-02
    1      -19.208224
    2      -12.243426
    3      -10.201960
    4       -6.827349
    5        1.676357
    6        4.738986
    7        5.535677
    8        6.090598
 
 -0.3333333E+00  0.2500000E+00  0.2500000E+00  0.6944444E-02
    1      -20.155957
    2      -11.260706
    3       -8.666557
    4       -7.899763
    5        3.163920
    6        3.412257
    7        4.236544
    8        4.733634
 
 -0.2500000E+00  0.2500000E+00  0.2500000E+00  0.3472222E-02
    1      -20.797261
    2      -10.180963
    3       -8.638153
    4       -7.775857
    5        2.524862
    6        3.308887
    7        3.816966
    8        4.398586
 
  0.3333333E+00  0.3333333E+00  0.2500000E+00  0.3472222E-02
    1      -15.339529
    2      -15.338564
    3      -13.295784
    4       -2.749738
    5       -2.746252
    6        7.874057
    7       10.131625
    8       10.149882
 
  0.4166667E+00  0.3333333E+00  0.2500000E+00  0.6944444E-02
    1      -16.558614
    2      -14.699269
    3      -12.393756
    4       -4.104202
    5       -1.452300
    6        8.135204
    7        8.572000
    8        9.479160
 
  0.5000000E+00  0.3333333E+00  0.2500000E+00  0.6944444E-02
    1      -17.833357
    2      -14.154344
    3      -10.776051
    4       -5.404030
    5       -0.233568
    6        6.691422
    7        7.315679
    8        7.435444
 
 -0.4166667E+00  0.3333333E+00  0.2500000E+00  0.6944444E-02
    1      -18.896432
    2      -13.382843
    3       -9.300204
    4       -6.523492
    5        0.966566
    6        5.152856
    7        5.595797
    8        6.009349
 
 -0.3333333E+00  0.3333333E+00  0.2500000E+00  0.3472222E-02
    1      -19.679254
    2      -12.383583
    3       -8.508153
    4       -7.372939