16   
2    

1    
  0.0012239467254512   0.0000000000000000   0.0099248150820686
  -0.1587502400    0.1776624500   -0.1425627500
  -0.0698138100    0.1773752500   -0.0082326500
  -0.0821744200    0.1700354200   -0.0079880200
  -0.0822104000    0.1849582900   -0.0080037100
  -0.1709182800    0.0986142300   -0.0000019700
  -0.1709182800    0.0986142300   -0.0000020400
  -0.1709182800    0.0986142400   -0.0000020300
  -0.1709182800    0.0986142300   -0.0000015400
   0.0826871500   -0.1774165700    0.0125347500
   0.0923762800   -0.1782119900    0.0521573100
   0.1094261300   -0.1678608800    0.0514876600
   0.1084631900   -0.1865400300    0.0506220200
   0.1709173100   -0.0986147200   -0.0000017700
   0.1709173100   -0.0986147200   -0.0000017600
   0.1709173100   -0.0986147200   -0.0000017500
   0.1709173100   -0.0986147200   -0.0000017700

1    
 -0.0012239467254512   0.0000000000000000  -0.0099248150820686
  -0.1091036900    0.0633908000    0.1426088400
  -0.1980119400    0.0636201000    0.0081001000
  -0.1853144000    0.0709229800    0.0081960400
  -0.1854492800    0.0561100000    0.0079207700
  -0.1709162500    0.0986152800   -0.0000010300
  -0.1709162600    0.0986152900   -0.0000009500
  -0.1709162500    0.0986153000   -0.0000009500
  -0.1709162600    0.0986152900   -0.0000014500
   0.1849175200   -0.0636450900   -0.0125373500
   0.1752349900   -0.0640033500   -0.0516756600
   0.1593912500   -0.0725670200   -0.0517929400
   0.1583326000   -0.0538292200   -0.0508133300
   0.1709169900   -0.0986151000   -0.0000005200
   0.1709170000   -0.0986150800   -0.0000005300
   0.1709169900   -0.0986151000   -0.0000005200
   0.1709170100   -0.0986151000   -0.0000005300
