# Thermal properties / unit cell (natom)

unit:
  temperature:   K
  free_energy:   kJ/mol
  entropy:       J/K/mol
  heat_capacity: J/K/mol

natom:     2
num_modes: 864
num_integrated_modes: 752

zero_point_energy:      28.7368795
high_T_entropy:        100.5850600

thermal_properties:
- temperature:         0.0000000
  free_energy:        28.7368795
  entropy:             0.0000000
  heat_capacity:       0.0000000
  energy:             28.7368795

- temperature:        10.0000000
  free_energy:        28.7368795
  entropy:             0.0000300
  heat_capacity:       0.0003389
  energy:             28.7368798

- temperature:        20.0000000
  free_energy:        28.7368590
  entropy:             0.0073122
  heat_capacity:       0.0386185
  energy:             28.7370052

- temperature:        30.0000000
  free_energy:        28.7366390
  entropy:             0.0414482
  heat_capacity:       0.1429273
  energy:             28.7378824

- temperature:        40.0000000
  free_energy:        28.7359498
  entropy:             0.0997752
  heat_capacity:       0.2726996
  energy:             28.7399408

- temperature:        50.0000000
  free_energy:        28.7345801
  entropy:             0.1773111
  heat_capacity:       0.4352949
  energy:             28.7434456

- temperature:        60.0000000
  free_energy:        28.7323381
  entropy:             0.2745515
  heat_capacity:       0.6468932
  energy:             28.7488112

- temperature:        70.0000000
  free_energy:        28.7290160
  entropy:             0.3936862
  heat_capacity:       0.9154454
  energy:             28.7565741

- temperature:        80.0000000
  free_energy:        28.7243849
  entropy:             0.5366284
  heat_capacity:       1.2424258
  energy:             28.7673152

- temperature:        90.0000000
  free_energy:        28.7182001
  entropy:             0.7045691
  heat_capacity:       1.6259669
  energy:             28.7816113

- temperature:       100.0000000
  free_energy:        28.7102084
  entropy:             0.8980335
  heat_capacity:       2.0626481
  energy:             28.8000117

- temperature:       110.0000000
  free_energy:        28.7001542
  entropy:             1.1170278
  heat_capacity:       2.5482297
  energy:             28.8230273

- temperature:       120.0000000
  free_energy:        28.6877840
  entropy:             1.3611614
  heat_capacity:       3.0779066
  energy:             28.8511234

- temperature:       130.0000000
  free_energy:        28.6728495
  entropy:             1.6297346
  heat_capacity:       3.6464527
  energy:             28.8847150

- temperature:       140.0000000
  free_energy:        28.6551110
  entropy:             1.9218057
  heat_capacity:       4.2484001
  energy:             28.9241638

- temperature:       150.0000000
  free_energy:        28.6343388
  entropy:             2.2362480
  heat_capacity:       4.8782542
  energy:             28.9697760

- temperature:       160.0000000
  free_energy:        28.6103156
  entropy:             2.5718032
  heat_capacity:       5.5307041
  energy:             29.0218041

- temperature:       170.0000000
  free_energy:        28.5828369
  entropy:             2.9271294
  heat_capacity:       6.2007910
  energy:             29.0804489

- temperature:       180.0000000
  free_energy:        28.5517117
  entropy:             3.3008442
  heat_capacity:       6.8840179
  energy:             29.1458637

- temperature:       190.0000000
  free_energy:        28.5167633
  entropy:             3.6915598
  heat_capacity:       7.5764018
  energy:             29.2181597

- temperature:       200.0000000
  free_energy:        28.4778284
  entropy:             4.0979111
  heat_capacity:       8.2744793
  energy:             29.2974106

- temperature:       210.0000000
  free_energy:        28.4347574
  entropy:             4.5185758
  heat_capacity:       8.9752795
  energy:             29.3836583

- temperature:       220.0000000
  free_energy:        28.3874134
  entropy:             4.9522883
  heat_capacity:       9.6762779
  energy:             29.4769169

- temperature:       230.0000000
  free_energy:        28.3356721
  entropy:             5.3978488
  heat_capacity:      10.3753421
  energy:             29.5771774

- temperature:       240.0000000
  free_energy:        28.2794207
  entropy:             5.8541271
  heat_capacity:      11.0706764
  energy:             29.6844112

- temperature:       250.0000000
  free_energy:        28.2185574
  entropy:             6.3200640
  heat_capacity:      11.7607696
  energy:             29.7985734

- temperature:       260.0000000
  free_energy:        28.1529906
  entropy:             6.7946705
  heat_capacity:      12.4443493
  energy:             29.9196049

- temperature:       270.0000000
  free_energy:        28.0826382
  entropy:             7.2770256
  heat_capacity:      13.1203428
  energy:             30.0474351

- temperature:       280.0000000
  free_energy:        28.0074271
  entropy:             7.7662727
  heat_capacity:      13.7878443
  energy:             30.1819834

- temperature:       290.0000000
  free_energy:        27.9272924
  entropy:             8.2616162
  heat_capacity:      14.4460889
  energy:             30.3231611

- temperature:       300.0000000
  free_energy:        27.8421769
  entropy:             8.7623176
  heat_capacity:      15.0944312
  energy:             30.4708722

- temperature:       310.0000000
  free_energy:        27.7520305
  entropy:             9.2676916
  heat_capacity:      15.7323283
  energy:             30.6250149

- temperature:       320.0000000
  free_energy:        27.6568096
  entropy:             9.7771025
  heat_capacity:      16.3593264
  energy:             30.7854824

- temperature:       330.0000000
  free_energy:        27.5564769
  entropy:            10.2899603
  heat_capacity:      16.9750500
  energy:             30.9521638

- temperature:       340.0000000
  free_energy:        27.4510007
  entropy:            10.8057178
  heat_capacity:      17.5791928
  energy:             31.1249448

- temperature:       350.0000000
  free_energy:        27.3403546
  entropy:            11.3238675
  heat_capacity:      18.1715106
  energy:             31.3037083

- temperature:       360.0000000
  free_energy:        27.2245170
  entropy:            11.8439388
  heat_capacity:      18.7518152
  energy:             31.4883350

- temperature:       370.0000000
  free_energy:        27.1034709
  entropy:            12.3654950
  heat_capacity:      19.3199688
  energy:             31.6787041

- temperature:       380.0000000
  free_energy:        26.9772035
  entropy:            12.8881316
  heat_capacity:      19.8758795
  energy:             31.8746935

- temperature:       390.0000000
  free_energy:        26.8457059
  entropy:            13.4114737
  heat_capacity:      20.4194969
  energy:             32.0761807

- temperature:       400.0000000
  free_energy:        26.7089728
  entropy:            13.9351740
  heat_capacity:      20.9508084
  energy:             32.2830424

- temperature:       410.0000000
  free_energy:        26.5670023
  entropy:            14.4589111
  heat_capacity:      21.4698355
  energy:             32.4951559

- temperature:       420.0000000
  free_energy:        26.4197955
  entropy:            14.9823878
  heat_capacity:      21.9766304
  energy:             32.7123984

- temperature:       430.0000000
  free_energy:        26.2673563
  entropy:            15.5053294
  heat_capacity:      22.4712733
  energy:             32.9346480

- temperature:       440.0000000
  free_energy:        26.1096915
  entropy:            16.0274822
  heat_capacity:      22.9538687
  energy:             33.1617837

- temperature:       450.0000000
  free_energy:        25.9468101
  entropy:            16.5486122
  heat_capacity:      23.4245436
  energy:             33.3936856

- temperature:       460.0000000
  free_energy:        25.7787234
  entropy:            17.0685041
  heat_capacity:      23.8834439
  energy:             33.6302353

- temperature:       470.0000000
  free_energy:        25.6054448
  entropy:            17.5869595
  heat_capacity:      24.3307330
  energy:             33.8713158

- temperature:       480.0000000
  free_energy:        25.4269896
  entropy:            18.1037963
  heat_capacity:      24.7665886
  energy:             34.1168118

- temperature:       490.0000000
  free_energy:        25.2433748
  entropy:            18.6188474
  heat_capacity:      25.1912015
  energy:             34.3666101

- temperature:       500.0000000
  free_energy:        25.0546191
  entropy:            19.1319599
  heat_capacity:      25.6047729
  energy:             34.6205991

- temperature:       510.0000000
  free_energy:        24.8607426
  entropy:            19.6429938
  heat_capacity:      26.0075132
  energy:             34.8786694

- temperature:       520.0000000
  free_energy:        24.6617666
  entropy:            20.1518218
  heat_capacity:      26.3996400
  energy:             35.1407140

- temperature:       530.0000000
  free_energy:        24.4577139
  entropy:            20.6583278
  heat_capacity:      26.7813768
  energy:             35.4066276

- temperature:       540.0000000
  free_energy:        24.2486081
  entropy:            21.1624064
  heat_capacity:      27.1529515
  energy:             35.6763076

- temperature:       550.0000000
  free_energy:        24.0344742
  entropy:            21.6639625
  heat_capacity:      27.5145954
  energy:             35.9496535

- temperature:       560.0000000
  free_energy:        23.8153376
  entropy:            22.1629100
  heat_capacity:      27.8665417
  energy:             36.2265672

- temperature:       570.0000000
  free_energy:        23.5912249
  entropy:            22.6591718
  heat_capacity:      28.2090251
  energy:             36.5069528

- temperature:       580.0000000
  free_energy:        23.3621633
  entropy:            23.1526786
  heat_capacity:      28.5422801
  energy:             36.7907169

- temperature:       590.0000000
  free_energy:        23.1281807
  entropy:            23.6433690
  heat_capacity:      28.8665411
  energy:             37.0777684

- temperature:       600.0000000
  free_energy:        22.8893055
  entropy:            24.1311884
  heat_capacity:      29.1820411
  energy:             37.3680186

- temperature:       610.0000000
  free_energy:        22.6455667
  entropy:            24.6160887
  heat_capacity:      29.4890112
  energy:             37.6613808

- temperature:       620.0000000
  free_energy:        22.3969936
  entropy:            25.0980282
  heat_capacity:      29.7876802
  energy:             37.9577711

- temperature:       630.0000000
  free_energy:        22.1436161
  entropy:            25.5769705
  heat_capacity:      30.0782739
  energy:             38.2571075

- temperature:       640.0000000
  free_energy:        21.8854643
  entropy:            26.0528845
  heat_capacity:      30.3610151
  energy:             38.5593104

- temperature:       650.0000000
  free_energy:        21.6225686
  entropy:            26.5257442
  heat_capacity:      30.6361229
  energy:             38.8643024

- temperature:       660.0000000
  free_energy:        21.3549597
  entropy:            26.9955280
  heat_capacity:      30.9038125
  energy:             39.1720081

- temperature:       670.0000000
  free_energy:        21.0826684
  entropy:            27.4622183
  heat_capacity:      31.1642950
  energy:             39.4823546

- temperature:       680.0000000
  free_energy:        20.8057257
  entropy:            27.9258015
  heat_capacity:      31.4177772
  energy:             39.7952707

- temperature:       690.0000000
  free_energy:        20.5241627
  entropy:            28.3862678
  heat_capacity:      31.6644616
  energy:             40.1106875

- temperature:       700.0000000
  free_energy:        20.2380107
  entropy:            28.8436103
  heat_capacity:      31.9045458
  energy:             40.4285379

- temperature:       710.0000000
  free_energy:        19.9473009
  entropy:            29.2978255
  heat_capacity:      32.1382230
  energy:             40.7487570

- temperature:       720.0000000
  free_energy:        19.6520646
  entropy:            29.7489125
  heat_capacity:      32.3656815
  energy:             41.0712817

- temperature:       730.0000000
  free_energy:        19.3523331
  entropy:            30.1968732
  heat_capacity:      32.5871051
  energy:             41.3960506

- temperature:       740.0000000
  free_energy:        19.0481376
  entropy:            30.6417117
  heat_capacity:      32.8026725
  energy:             41.7230043

- temperature:       750.0000000
  free_energy:        18.7395093
  entropy:            31.0834344
  heat_capacity:      33.0125578
  energy:             42.0520851

- temperature:       760.0000000
  free_energy:        18.4264793
  entropy:            31.5220497
  heat_capacity:      33.2169303
  energy:             42.3832370

- temperature:       770.0000000
  free_energy:        18.1090786
  entropy:            31.9575679
  heat_capacity:      33.4159546
  energy:             42.7164058

- temperature:       780.0000000
  free_energy:        17.7873382
  entropy:            32.3900008
  heat_capacity:      33.6097907
  energy:             43.0515388

- temperature:       790.0000000
  free_energy:        17.4612888
  entropy:            32.8193621
  heat_capacity:      33.7985938
  energy:             43.3885849

- temperature:       800.0000000
  free_energy:        17.1309611
  entropy:            33.2456666
  heat_capacity:      33.9825148
  energy:             43.7274944

- temperature:       810.0000000
  free_energy:        16.7963856
  entropy:            33.6689306
  heat_capacity:      34.1616999
  energy:             44.0682194

- temperature:       820.0000000
  free_energy:        16.4575926
  entropy:            34.0891714
  heat_capacity:      34.3362911
  energy:             44.4107131

- temperature:       830.0000000
  free_energy:        16.1146122
  entropy:            34.5064074
  heat_capacity:      34.5064260
  energy:             44.7549304

- temperature:       840.0000000
  free_energy:        15.7674744
  entropy:            34.9206581
  heat_capacity:      34.6722380
  energy:             45.1008272

- temperature:       850.0000000
  free_energy:        15.4162089
  entropy:            35.3319438
  heat_capacity:      34.8338564
  energy:             45.4483611

- temperature:       860.0000000
  free_energy:        15.0608453
  entropy:            35.7402854
  heat_capacity:      34.9914066
  energy:             45.7974908

- temperature:       870.0000000
  free_energy:        14.7014130
  entropy:            36.1457048
  heat_capacity:      35.1450099
  energy:             46.1481761

- temperature:       880.0000000
  free_energy:        14.3379409
  entropy:            36.5482242
  heat_capacity:      35.2947838
  energy:             46.5003782

- temperature:       890.0000000
  free_energy:        13.9704581
  entropy:            36.9478667
  heat_capacity:      35.4408422
  energy:             46.8540594

- temperature:       900.0000000
  free_energy:        13.5989931
  entropy:            37.3446555
  heat_capacity:      35.5832955
  energy:             47.2091831

- temperature:       910.0000000
  free_energy:        13.2235744
  entropy:            37.7386146
  heat_capacity:      35.7222502
  energy:             47.5657137

- temperature:       920.0000000
  free_energy:        12.8442302
  entropy:            38.1297680
  heat_capacity:      35.8578098
  energy:             47.9236167

- temperature:       930.0000000
  free_energy:        12.4609883
  entropy:            38.5181404
  heat_capacity:      35.9900742
  energy:             48.2828589

- temperature:       940.0000000
  free_energy:        12.0738765
  entropy:            38.9037564
  heat_capacity:      36.1191402
  energy:             48.6434076

- temperature:       950.0000000
  free_energy:        11.6829223
  entropy:            39.2866411
  heat_capacity:      36.2451017
  energy:             49.0052313

- temperature:       960.0000000
  free_energy:        11.2881527
  entropy:            39.6668196
  heat_capacity:      36.3680491
  energy:             49.3682996

- temperature:       970.0000000
  free_energy:        10.8895948
  entropy:            40.0443173
  heat_capacity:      36.4880703
  energy:             49.7325826

- temperature:       980.0000000
  free_energy:        10.4872752
  entropy:            40.4191594
  heat_capacity:      36.6052503
  energy:             50.0980515

- temperature:       990.0000000
  free_energy:        10.0812204
  entropy:            40.7913717
  heat_capacity:      36.7196711
  energy:             50.4646784

- temperature:      1000.0000000
  free_energy:         9.6714565
  entropy:            41.1609795
  heat_capacity:      36.8314123
  energy:             50.8324360
