  32  32   0   0
  0.8817899E+01  0.4932875E-09  0.4932875E-09  0.1339614E-08  0.5000000E-15
  1.000000000000000E-004
  CAR 
 graphite                                
     15.69157921    -16.94139477  301      4.68602375      1.00000000
    -16.941  0.0000E+00  0.0000E+00
    -16.833  0.0000E+00  0.0000E+00
    -16.724  0.0000E+00  0.0000E+00
    -16.615  0.0000E+00  0.0000E+00
    -16.506  0.0000E+00  0.0000E+00
    -16.398  0.0000E+00  0.0000E+00
    -16.289  0.0000E+00  0.0000E+00
    -16.180  0.0000E+00  0.0000E+00
    -16.071  0.0000E+00  0.0000E+00
    -15.962  0.0000E+00  0.0000E+00
    -15.854  0.0000E+00  0.0000E+00
    -15.745  0.0000E+00  0.0000E+00
    -15.636  0.0000E+00  0.0000E+00
    -15.527  0.0000E+00  0.0000E+00
    -15.419  0.0000E+00  0.0000E+00
    -15.310  0.0000E+00  0.0000E+00
    -15.201  0.0000E+00  0.0000E+00
    -15.092  0.0000E+00  0.0000E+00
    -14.983  0.0000E+00  0.0000E+00
    -14.875  0.6577E+00  0.1699E-01
    -14.766  0.2521E+01  0.2024E+00
    -14.657  0.3426E+01  0.5156E+00
    -14.548  0.5004E+01  0.9817E+00
    -14.440  0.4849E+01  0.1526E+01
    -14.331  0.5013E+01  0.2065E+01
    -14.222  0.4984E+01  0.2609E+01
    -14.113  0.4886E+01  0.3147E+01
    -14.004  0.4862E+01  0.3675E+01
    -13.896  0.5112E+01  0.4217E+01
    -13.787  0.5499E+01  0.4788E+01
    -13.678  0.7279E+01  0.5519E+01
    -13.569  0.7384E+01  0.6320E+01
    -13.461  0.5849E+01  0.7126E+01
    -13.352  0.2360E+01  0.7528E+01
    -13.243  0.1849E+01  0.7749E+01
    -13.134  0.2075E+01  0.7957E+01
    -13.025  0.2477E+01  0.8205E+01
    -12.917  0.3221E+01  0.8501E+01
    -12.808  0.1041E+02  0.9282E+01
    -12.699  0.8180E+01  0.1016E+02
    -12.590  0.6782E+01  0.1101E+02
    -12.482  0.4042E+01  0.1152E+02
    -12.373  0.4153E+01  0.1196E+02
    -12.264  0.4281E+01  0.1242E+02
    -12.155  0.4436E+01  0.1290E+02
    -12.046  0.4581E+01  0.1339E+02
    -11.938  0.4712E+01  0.1389E+02
    -11.829  0.5081E+01  0.1442E+02
    -11.720  0.5523E+01  0.1499E+02
    -11.611  0.6413E+01  0.1562E+02
    -11.503  0.5985E+01  0.1630E+02
    -11.394  0.5619E+01  0.1693E+02
    -11.285  0.5515E+01  0.1753E+02
    -11.176  0.5681E+01  0.1814E+02
    -11.067  0.5848E+01  0.1877E+02
    -10.959  0.6014E+01  0.1941E+02
    -10.850  0.5744E+01  0.2005E+02
    -10.741  0.5588E+01  0.2067E+02
    -10.632  0.5485E+01  0.2127E+02
    -10.524  0.4777E+01  0.2184E+02
    -10.415  0.3833E+01  0.2230E+02
    -10.306  0.4622E+01  0.2275E+02
    -10.197  0.4996E+01  0.2328E+02
    -10.088  0.5183E+01  0.2383E+02
     -9.980  0.6735E+01  0.2446E+02
     -9.871  0.9419E+01  0.2532E+02
     -9.762  0.1004E+02  0.2649E+02
     -9.653  0.7708E+01  0.2746E+02
     -9.545  0.5496E+01  0.2817E+02
     -9.436  0.4598E+01  0.2870E+02
     -9.327  0.4115E+01  0.2918E+02
     -9.218  0.3632E+01  0.2960E+02
     -9.109  0.5297E+01  0.3025E+02
     -9.001  0.3864E+01  0.3083E+02
     -8.892  0.1892E+01  0.3106E+02
     -8.783  0.1685E+01  0.3125E+02
     -8.674  0.1478E+01  0.3142E+02
     -8.566  0.1272E+01  0.3157E+02
     -8.457  0.1445E+01  0.3171E+02
     -8.348  0.1944E+01  0.3190E+02
     -8.239  0.2444E+01  0.3214E+02
     -8.130  0.2981E+01  0.3243E+02
     -8.022  0.6925E+01  0.3293E+02
     -7.913  0.9760E+01  0.3396E+02
     -7.804  0.5062E+01  0.3465E+02
     -7.695  0.5467E+01  0.3521E+02
     -7.587  0.6642E+01  0.3587E+02
     -7.478  0.7816E+01  0.3665E+02
     -7.369  0.8991E+01  0.3757E+02
     -7.260  0.8746E+01  0.3859E+02
     -7.152  0.5628E+01  0.3940E+02
     -7.043  0.5583E+01  0.4001E+02
     -6.934  0.5581E+01  0.4061E+02
     -6.825  0.5496E+01  0.4122E+02
     -6.716  0.5338E+01  0.4181E+02
     -6.608  0.5154E+01  0.4238E+02
     -6.499  0.5034E+01  0.4293E+02
     -6.390  0.4915E+01  0.4347E+02
     -6.281  0.4797E+01  0.4400E+02
     -6.173  0.4678E+01  0.4452E+02
     -6.064  0.4560E+01  0.4502E+02
     -5.955  0.4441E+01  0.4551E+02
     -5.846  0.4348E+01  0.4599E+02
     -5.737  0.4909E+01  0.4648E+02
     -5.629  0.5503E+01  0.4705E+02
     -5.520  0.6097E+01  0.4768E+02
     -5.411  0.6691E+01  0.4838E+02
     -5.302  0.7285E+01  0.4914E+02
     -5.194  0.7879E+01  0.4996E+02
     -5.085  0.8474E+01  0.5085E+02
     -4.976  0.8857E+01  0.5181E+02
     -4.867  0.3898E+01  0.5247E+02
     -4.758  0.6192E+01  0.5300E+02
     -4.650  0.6705E+01  0.5375E+02
     -4.541  0.5226E+01  0.5440E+02
     -4.432  0.3748E+01  0.5489E+02
     -4.323  0.2269E+01  0.5521E+02
     -4.215  0.1068E+01  0.5538E+02
     -4.106  0.2380E+01  0.5556E+02
     -3.997  0.3897E+01  0.5590E+02
     -3.888  0.5413E+01  0.5641E+02
     -3.779  0.8889E+01  0.5715E+02
     -3.671  0.1186E+02  0.5833E+02
     -3.562  0.1317E+02  0.5966E+02
     -3.453  0.1172E+02  0.6106E+02
     -3.344  0.5227E+01  0.6202E+02
     -3.236  0.5073E+01  0.6253E+02
     -3.127  0.6269E+01  0.6316E+02
     -3.018  0.7190E+01  0.6388E+02
     -2.909  0.1235E+02  0.6493E+02
     -2.800  0.1818E+02  0.6659E+02
     -2.692  0.9144E+01  0.6882E+02
     -2.583  0.6964E+01  0.6956E+02
     -2.474  0.7192E+01  0.7033E+02
     -2.365  0.7755E+01  0.7114E+02
     -2.257  0.8478E+01  0.7202E+02
     -2.148  0.1326E+02  0.7310E+02
     -2.039  0.1431E+02  0.7479E+02
     -1.930  0.1118E+02  0.7617E+02
     -1.821  0.1083E+02  0.7731E+02
     -1.713  0.3933E+02  0.7942E+02
     -1.604  0.1743E+02  0.8210E+02
     -1.495  0.1478E+02  0.8416E+02
     -1.386  0.1430E+02  0.8568E+02
     -1.278  0.1742E+02  0.8737E+02
     -1.169  0.1088E+02  0.8910E+02
     -1.060  0.6955E+01  0.9006E+02
     -0.951  0.6778E+01  0.9076E+02
     -0.842  0.7776E+01  0.9156E+02
     -0.734  0.8720E+01  0.9245E+02
     -0.625  0.1002E+02  0.9347E+02
     -0.516  0.1111E+02  0.9464E+02
     -0.407  0.1107E+02  0.9583E+02
     -0.299  0.2729E+02  0.9746E+02
     -0.190  0.1241E+02  0.9882E+02
     -0.081  0.1164E+02  0.1002E+03
      0.028  0.1122E+02  0.1015E+03
      0.137  0.9528E+01  0.1025E+03
      0.245  0.9690E+01  0.1036E+03
      0.354  0.9665E+01  0.1046E+03
      0.463  0.9723E+01  0.1057E+03
      0.572  0.9604E+01  0.1067E+03
      0.680  0.9633E+01  0.1078E+03
      0.789  0.9335E+01  0.1088E+03
      0.898  0.9205E+01  0.1098E+03
      1.007  0.9217E+01  0.1108E+03
      1.116  0.9716E+01  0.1119E+03
      1.224  0.9523E+01  0.1129E+03
      1.333  0.9789E+01  0.1140E+03
      1.442  0.1034E+02  0.1151E+03
      1.551  0.9992E+01  0.1162E+03
      1.659  0.7749E+01  0.1172E+03
      1.768  0.6559E+01  0.1179E+03
      1.877  0.5963E+01  0.1186E+03
      1.986  0.4083E+01  0.1192E+03
      2.095  0.2972E+01  0.1196E+03
      2.203  0.3073E+01  0.1199E+03
      2.312  0.3918E+01  0.1202E+03
      2.421  0.5418E+01  0.1207E+03
      2.530  0.7788E+01  0.1215E+03
      2.638  0.8928E+01  0.1224E+03
      2.747  0.8852E+01  0.1234E+03
      2.856  0.6935E+01  0.1243E+03
      2.965  0.5282E+01  0.1249E+03
      3.073  0.4223E+01  0.1254E+03
      3.182  0.3494E+01  0.1258E+03
      3.291  0.3114E+01  0.1262E+03
      3.400  0.2739E+01  0.1265E+03
      3.509  0.2377E+01  0.1268E+03
      3.617  0.2068E+01  0.1270E+03
      3.726  0.1785E+01  0.1272E+03
      3.835  0.1490E+01  0.1274E+03
      3.944  0.1256E+01  0.1276E+03
      4.052  0.1021E+01  0.1277E+03
      4.161  0.8085E+00  0.1278E+03
      4.270  0.6172E+00  0.1279E+03
      4.379  0.4388E+00  0.1279E+03
      4.488  0.2718E+00  0.1280E+03
      4.596  0.1146E+00  0.1280E+03
      4.705  0.8793E-02  0.1280E+03
      4.814  0.1258E+00  0.1280E+03
      4.923  0.2534E+00  0.1280E+03
      5.031  0.3925E+00  0.1281E+03
      5.140  0.5456E+00  0.1281E+03
      5.249  0.7142E+00  0.1282E+03
      5.358  0.9066E+00  0.1283E+03
      5.467  0.1144E+01  0.1284E+03
      5.575  0.1392E+01  0.1285E+03
      5.684  0.1640E+01  0.1287E+03
      5.793  0.2311E+01  0.1289E+03
      5.902  0.3130E+01  0.1292E+03
      6.010  0.3673E+01  0.1296E+03
      6.119  0.4068E+01  0.1300E+03
      6.228  0.6536E+01  0.1305E+03
      6.337  0.1246E+02  0.1315E+03
      6.446  0.1018E+02  0.1328E+03
      6.554  0.8031E+01  0.1338E+03
      6.663  0.6447E+01  0.1346E+03
      6.772  0.5760E+01  0.1353E+03
      6.881  0.5314E+01  0.1359E+03
      6.989  0.5131E+01  0.1364E+03
      7.098  0.4512E+01  0.1369E+03
      7.207  0.3782E+01  0.1374E+03
      7.316  0.3627E+01  0.1378E+03
      7.425  0.3787E+01  0.1382E+03
      7.533  0.4195E+01  0.1386E+03
      7.642  0.4599E+01  0.1391E+03
      7.751  0.4878E+01  0.1396E+03
      7.860  0.4800E+01  0.1402E+03
      7.968  0.4614E+01  0.1407E+03
      8.077  0.4462E+01  0.1412E+03
      8.186  0.4306E+01  0.1416E+03
      8.295  0.4196E+01  0.1421E+03
      8.404  0.4115E+01  0.1425E+03
      8.512  0.4049E+01  0.1430E+03
      8.621  0.3990E+01  0.1434E+03
      8.730  0.3943E+01  0.1439E+03
      8.839  0.3720E+01  0.1443E+03
      8.947  0.3466E+01  0.1447E+03
      9.056  0.3371E+01  0.1450E+03
      9.165  0.3514E+01  0.1454E+03
      9.274  0.3698E+01  0.1458E+03
      9.383  0.3674E+01  0.1462E+03
      9.491  0.3641E+01  0.1466E+03
      9.600  0.3698E+01  0.1470E+03
      9.709  0.3751E+01  0.1474E+03
      9.818  0.3774E+01  0.1478E+03
      9.926  0.3753E+01  0.1482E+03
     10.035  0.3724E+01  0.1486E+03
     10.144  0.3715E+01  0.1490E+03
     10.253  0.3722E+01  0.1494E+03
     10.362  0.4826E+01  0.1499E+03
     10.470  0.6010E+01  0.1505E+03
     10.579  0.5365E+01  0.1511E+03
     10.688  0.5798E+01  0.1517E+03
     10.797  0.5569E+01  0.1523E+03
     10.905  0.4991E+01  0.1529E+03
     11.014  0.6321E+01  0.1535E+03
     11.123  0.4088E+01  0.1540E+03
     11.232  0.2593E+01  0.1544E+03
     11.341  0.2508E+01  0.1547E+03
     11.449  0.2746E+01  0.1549E+03
     11.558  0.3044E+01  0.1553E+03
     11.667  0.3430E+01  0.1556E+03
     11.776  0.3163E+01  0.1560E+03
     11.884  0.3108E+01  0.1563E+03
     11.993  0.6556E+01  0.1568E+03
     12.102  0.6828E+01  0.1575E+03
     12.211  0.8435E+01  0.1584E+03
     12.320  0.1085E+02  0.1594E+03
     12.428  0.1308E+02  0.1607E+03
     12.537  0.1334E+02  0.1621E+03
     12.646  0.1353E+02  0.1636E+03
     12.755  0.1201E+02  0.1650E+03
     12.863  0.9974E+01  0.1662E+03
     12.972  0.1149E+02  0.1674E+03
     13.081  0.3641E+00  0.1679E+03
     13.190  0.1990E+00  0.1680E+03
     13.298  0.1221E+00  0.1680E+03
     13.407  0.6388E-01  0.1680E+03
     13.516  0.2435E-01  0.1680E+03
     13.625  0.3522E-02  0.1680E+03
     13.734  0.0000E+00  0.1680E+03
     13.842  0.0000E+00  0.1680E+03
     13.951  0.0000E+00  0.1680E+03
     14.060  0.0000E+00  0.1680E+03
     14.169  0.0000E+00  0.1680E+03
     14.277  0.0000E+00  0.1680E+03
     14.386  0.0000E+00  0.1680E+03
     14.495  0.0000E+00  0.1680E+03
     14.604  0.0000E+00  0.1680E+03
     14.713  0.0000E+00  0.1680E+03
     14.821  0.0000E+00  0.1680E+03
     14.930  0.0000E+00  0.1680E+03
     15.039  0.0000E+00  0.1680E+03
     15.148  0.0000E+00  0.1680E+03
     15.256  0.0000E+00  0.1680E+03
     15.365  0.0000E+00  0.1680E+03
     15.474  0.0000E+00  0.1680E+03
     15.583  0.0000E+00  0.1680E+03
     15.692  0.0000E+00  0.1680E+03
