   32   32    1    1
  0.8817899E+01  0.4932875E-09  0.4932875E-09  0.1339614E-08  0.5000000E-15
  1.000000000000000E-004
  CAR 
 graphite                                
    128     76     84
 
  0.0000000E+00  0.0000000E+00  0.0000000E+00  0.6944444E-02
    1      -14.941395
    2      -14.794711
    3      -14.794098
    4      -14.637135
    5       -9.617610
    6       -9.609302
    7       -9.606738
    8       -9.556422
    9       -9.556237
   10       -9.548490
   11       -9.544758
   12       -9.544709
   13       -9.542817
   14       -9.505436
   15       -9.494771
   16       -9.491598
   17       -8.542155
   18       -8.538626
   19       -8.536576
   20       -8.511260
   21       -8.507499
   22       -8.505585
   23       -8.504841
   24       -8.504792
   25       -8.501377
   26       -8.456977
   27       -8.452177
   28       -8.450142
   29       -3.817293
   30       -2.924033
   31       -2.922388
   32       -1.834777
   33       -1.715757
   34       -1.713003
   35       -1.693870
   36       -1.689462
   37       -1.685383
   38       -1.685377
   39       -1.684672
   40       -1.666664
   41       -1.664715
   42       -1.658927
   43       -1.656531
   44       -1.637186
   45        1.675080
   46        1.686413
   47        1.691358
   48        1.698740
   49        1.699766
   50        1.707530
   51        1.711485
   52        1.722279
   53        1.924990
   54        1.926085
   55        1.927383
   56        2.332214
   57        2.334289
   58        2.336235
   59        2.340241
   60        2.340524
   61        2.342067
   62        2.608292
   63        2.622143
   64        2.624887
   65        6.205316
   66        6.208355
   67        6.209347
   68        6.339189
   69        6.344673
   70        6.349244
   71        6.350198
   72        6.350499
   73        6.355500
   74        6.873443
   75        6.886780
   76        6.889169
   77        9.010996
   78       11.659605
   79       11.663868
   80       11.885561
   81       11.889441
   82       11.922749
   83       12.079908
   84       12.085202
 
  0.1666667E+00  0.0000000E+00  0.0000000E+00  0.1388889E-01
    1      -14.775719
    2      -14.630428
    3      -14.629822
    4      -14.474491
    5      -10.920461
    6      -10.809082
    7      -10.808486
    8      -10.691642
    9      -10.047847
   10      -10.040947
   11       -9.949902
   12       -9.949180
   13       -9.942218
   14       -9.941904
   15       -9.847904
   16       -9.840344
   17       -7.925979
   18       -7.917932
   19       -7.848764
   20       -7.845968
   21       -7.839250
   22       -7.838897
   23       -7.763047
   24       -7.754745
   25       -7.078359
   26       -6.998228
   27       -6.996865
   28       -6.913181
   29       -3.616220
   30       -2.728450
   31       -2.726805
   32       -2.205936
   33       -2.186923
   34       -2.171531
   35       -2.171001
   36       -2.153109
   37       -2.151060
   38       -2.135852
   39       -2.116689
   40       -1.646912
   41       -1.552357
   42       -1.526067
   43       -1.523039
   44       -1.496551
   45        0.833834
   46        1.036106
   47        1.051658
   48        1.055596
   49        1.071875
   50        1.338194
   51        1.351793
   52        1.356705
   53        1.369141
   54        1.490796
   55        1.493185
   56        1.698345
   57        1.701072
   58        2.203097
   59        2.224773
   60        2.226369
   61        2.230757
   62        2.232901
   63        2.702022
   64        2.713164
   65        6.378305
   66        6.381132
   67        6.620290
   68        6.625568
   69        6.630417
   70        6.632068
   71        7.058339
   72        7.153066
   73        7.162913
   74        7.451755
   75        7.454896
   76        8.054899
   77        9.210739
   78       11.830813
   79       11.834899
   80       11.978005
   81       12.166110
   82       12.167944
   83       12.356406
   84       12.619507
 
  0.3333333E+00  0.0000000E+00  0.0000000E+00  0.1388889E-01
    1      -14.280484
    2      -14.139391
    3      -14.138805
    4      -13.988310
    5      -12.331372
    6      -12.206798
    7      -12.206288
    8      -12.074597
    9      -10.471193
   10      -10.467581
   11      -10.364609
   12      -10.363324
   13      -10.360140
   14      -10.359715
   15      -10.251410
   16      -10.247639
   17       -6.752155
   18       -6.741426
   19       -6.680183
   20       -6.677367
   21       -6.668382
   22       -6.667683
   23       -6.602521
   24       -6.592022
   25       -4.961690
   26       -4.895544
   27       -4.893983
   28       -4.825759
   29       -3.363172
   30       -3.347219
   31       -3.317922
   32       -3.317788
   33       -3.302790
   34       -3.300601
   35       -3.270839
   36       -3.254620
   37       -3.017269
   38       -2.146894
   39       -2.145253
   40       -1.089971
   41       -1.078599
   42       -1.053478
   43       -1.050146
   44       -1.024952
   45       -0.712338
   46       -0.619426
   47       -0.588217
   48       -0.584939
   49       -0.553499
   50        0.068509
   51        0.070344
   52        0.540065
   53        0.559085
   54        0.563524
   55        0.582190
   56        0.990164
   57        1.391806
   58        1.394367
   59        2.035840
   60        2.036747
   61        2.039448
   62        2.041964
   63        2.737251
   64        2.742791
   65        6.871941
   66        6.877205
   67        7.197268
   68        7.202237
   69        7.205595
   70        7.207197
   71        7.624225
   72        7.628803
   73        9.199427
   74        9.591443
   75        9.593820
   76        9.811592
   77       10.105614
   78       12.067713
   79       12.312813
   80       12.316002
   81       12.318760
   82       12.397195
   83       12.399385
   84       12.704312
 
  0.5000000E+00  0.0000000E+00  0.0000000E+00  0.6944444E-02
    1      -13.463046
    2      -13.460238
    3      -13.330188
    4      -13.326961
    5      -13.326927
    6      -13.324523
    7      -13.185700
    8      -13.182831
    9      -10.619954
   10      -10.618229
   11      -10.511705
   12      -10.509454
   13      -10.509408
   14      -10.508165
   15      -10.395909
   16      -10.394133
   17       -5.839517
   18       -5.837111
   19       -5.801499
   20       -5.797394
   21       -5.796515
   22       -5.796504
   23       -5.760812
   24       -5.759022
   25       -4.244534
   26       -4.243452
   27       -4.219309
   28       -4.219292
   29       -4.218414
   30       -4.215633
   31       -4.186758
   32       -4.185033
   33       -2.739841
   34       -2.737129
   35       -2.690530
   36       -2.689628
   37       -2.689604
   38       -2.684383
   39       -2.638908
   40       -2.635368
   41       -2.037171
   42       -2.034916
   43       -1.200143
   44       -1.196671
   45       -1.196580
   46       -1.194433
   47       -0.347545
   48       -0.340561
   49       -0.324492
   50       -0.316666
   51       -0.316651
   52       -0.315653
   53       -0.295221
   54       -0.291616
   55       -0.189675
   56       -0.187056
   57        1.271535
   58        1.273402
   59        1.951409
   60        1.952841
   61        1.953301
   62        1.956689
   63        2.724871
   64        2.727337
   65        7.199941
   66        7.202532
   67        7.502957
   68        7.508174
   69        7.508840
   70        7.509704
   71        7.813575
   72        7.816424
   73       10.805083
   74       10.806098
   75       11.632289
   76       11.635655
   77       11.869145
   78       11.872515
   79       11.874040
   80       11.878821
   81       12.272863
   82       12.275895
   83       12.627055
   84       12.630385
 
 -0.1355253E-19  0.1666667E+00  0.0000000E+00  0.1388889E-01
    1      -14.775723
    2      -14.630435
    3      -14.629823
    4      -14.474495
    5      -10.920470
    6      -10.809089
    7      -10.808485
    8      -10.691639
    9      -10.047946
   10      -10.041010
   11       -9.950179
   12       -9.949181
   13       -9.942219
   14       -9.941931
   15       -9.847930
   16       -9.840482
   17       -7.926146
   18       -7.916789
   19       -7.849178
   20       -7.845968
   21       -7.838929
   22       -7.836678
   23       -7.763152
   24       -7.753484
   25       -7.079227
   26       -6.998673
   27       -6.998192
   28       -6.914088
   29       -3.616210
   30       -2.728435
   31       -2.726796
   32       -2.207226
   33       -2.186917
   34       -2.173882
   35       -2.171008
   36       -2.153109
   37       -2.151212
   38       -2.137044
   39       -2.116820
   40       -1.646896
   41       -1.550879
   42       -1.523469
   43       -1.523033
   44       -1.495374
   45        0.834407
   46        1.034145
   47        1.050699
   48        1.051657
   49        1.068355
   50        1.342244
   51        1.356575
   52        1.356714
   53        1.370993
   54        1.491918
   55        1.493540
   56        1.697960
   57        1.700481
   58        2.204027
   59        2.224465
   60        2.226226
   61        2.229902
   62        2.231889
   63        2.702035
   64        2.711720
   65        6.378821
   66        6.382746
   67        6.620701
   68        6.625542
   69        6.631148
   70        6.635113
   71        7.056548
   72        7.153257
   73        7.164824
   74        7.450850
   75        7.452752
   76        8.053463
   77        9.210750
   78       11.830885
   79       11.834966
   80       11.978529
   81       12.167092
   82       12.167992
   83       12.356908
   84       12.633973
 
  0.1666667E+00  0.1666667E+00  0.0000000E+00  0.1388889E-01
    1      -14.445023
    2      -14.302538
    3      -14.301946
    4      -14.149846
    5      -11.542833
    6      -11.539865
    7      -11.426656
    8      -11.423216
    9      -11.423190
   10      -11.420682
   11      -11.300754
   12      -11.297732
   13       -9.191978
   14       -9.133637
   15       -9.132611
   16       -9.084474
   17       -8.138150
   18       -8.111496
   19       -8.107923
   20       -8.063409
   21       -5.969518
   22       -5.966150
   23       -5.898293
   24       -5.895148
   25       -5.895123
   26       -5.891391
   27       -5.821431
   28       -5.817852
   29       -3.534069
   30       -3.487189
   31       -3.485511
   32       -3.437168
   33       -3.215883
   34       -2.339532
   35       -2.337887
   36       -1.878995
   37       -1.875854
   38       -1.847594
   39       -1.843245
   40       -1.843239
   41       -1.841889
   42       -1.811286
   43       -1.808601
   44       -1.274057
   45        0.001828
   46        0.017233
   47        0.020875
   48        0.035868
   49        0.188731
   50        0.191257
   51        0.662041
   52        0.673315
   53        0.677880
   54        0.688867
   55        0.916368
   56        0.919576
   57        0.919696
   58        0.921944
   59        1.756303
   60        1.758843
   61        2.524817
   62        2.929670
   63        2.932429
   64        3.192727
   65        6.125377
   66        6.131746
   67        6.132864
   68        6.427222
   69        8.002706
   70        8.005313
   71        8.401881
   72        8.404161
   73        8.404602
   74        8.407805
   75        8.920640
   76        8.923044
   77        9.612767
   78       12.177187
   79       12.180881
   80       12.772616
   81       12.776590
   82       12.976926
   83       12.981726
   84       12.982059
 
  0.3333333E+00  0.1666667E+00  0.0000000E+00  0.1388889E-01
    1      -13.787734
    2      -13.650809
    3      -13.650243
    4      -13.504519
    5      -12.814495
    6      -12.685810
    7      -12.685266
    8      -12.548936
    9      -11.858496
   10      -11.738123
   11      -11.737488
   12      -11.610480
   13       -9.178722
   14       -9.088642
   15       -9.088385
   16       -8.995870
   17       -7.283494
   18       -7.224256
   19       -7.221201
   20       -7.159435
   21       -4.967765
   22       -4.922332
   23       -4.920518
   24       -4.870477
   25       -4.809263
   26       -4.757623
   27       -4.755658
   28       -4.703576
   29       -3.824604
   30       -3.769933
   31       -3.768412
   32       -3.712447
   33       -2.775740
   34       -2.740964
   35       -2.739707
   36       -2.702536
   37       -2.424718
   38       -1.730202
   39       -1.698850
   40       -1.695426
   41       -1.660212
   42       -1.571114
   43       -1.569092
   44       -1.268853
   45       -1.239881
   46       -1.211498
   47       -1.208465
   48       -1.179420
   49       -0.542893
   50       -0.460021
   51       -0.458319
   52       -0.344033
   53       -0.323644
   54       -0.318876
   55       -0.297929
   56       -0.147443
   57        0.505861
   58        0.612179
   59        0.613747
   60        1.504885
   61        2.812987
   62        3.337504
   63        3.339897
   64        3.824607
   65        5.765522
   66        5.985553
   67        5.989623
   68        6.316219
   69        8.810848
   70        9.117245
   71        9.119989
   72        9.445156
   73       10.299011
   74       10.416413
   75       10.613009
   76       10.615328
   77       10.999624
   78       11.604543
   79       12.564154
   80       12.661640
   81       12.672222
   82       12.796824
   83       12.928100
   84       12.940867
 
  0.5000000E+00  0.1666667E+00  0.0000000E+00  0.1388889E-01
    1      -13.788965
    2      -13.652053
    3      -13.651456
    4      -13.505744
    5      -12.812763
    6      -12.684060
    7      -12.683559
    8      -12.547213
    9      -11.859736
   10      -11.739376
   11      -11.738715
   12      -11.611727
   13       -9.176243
   14       -9.086013
   15       -9.085578
   16       -8.992845
   17       -7.277097
   18       -7.217021
   19       -7.215677
   20       -7.153168
   21       -4.977301
   22       -4.931526
   23       -4.931188
   24       -4.880753
   25       -4.820006
   26       -4.768589
   27       -4.765344
   28       -4.713444
   29       -3.827594
   30       -3.773294
   31       -3.771080
   32       -3.715432
   33       -2.763188
   34       -2.728780
   35       -2.725983
   36       -2.689204
   37       -2.425902
   38       -1.730084
   39       -1.697957
   40       -1.696503
   41       -1.660569
   42       -1.572226
   43       -1.570254
   44       -1.267282
   45       -1.237271
   46       -1.209156
   47       -1.205339
   48       -1.176627
   49       -0.544003
   50       -0.458552
   51       -0.456761
   52       -0.343464
   53       -0.322787
   54       -0.320060
   55       -0.298443
   56       -0.148482
   57        0.507335
   58        0.610985
   59        0.612595
   60        1.503478
   61        2.813001
   62        3.340102
   63        3.341776
   64        3.831712
   65        5.764381
   66        5.987914
   67        5.990421
   68        6.316880
   69        8.805956
   70        9.113113
   71        9.116512
   72        9.443587
   73       10.300258
   74       10.414788
   75       10.612519
   76       10.615235
   77       10.997998
   78       11.606753
   79       12.560588
   80       12.662336
   81       12.672944
   82       12.795403
   83       12.925638
   84       12.938336
 
 -0.3333333E+00  0.1666667E+00  0.0000000E+00  0.1388889E-01
    1      -14.445760
    2      -14.303283
    3      -14.302672
    4      -14.150578
    5      -11.545048
    6      -11.539075
    7      -11.427529
    8      -11.426882
    9      -11.421471
   10      -11.420967
   11      -11.303089
   12      -11.297088
   13       -9.182981
   14       -9.123247
   15       -9.122731
   16       -9.073070
   17       -8.135731
   18       -8.106886
   19       -8.106421
   20       -8.059686
   21       -5.980132
   22       -5.970652
   23       -5.908494
   24       -5.906046
   25       -5.898661
   26       -5.897130
   27       -5.831911
   28       -5.822652
   29       -3.549644
   30       -3.502224
   31       -3.501747
   32       -3.452865
   33       -3.216613
   34       -2.340237
   35       -2.338613
   36       -1.875852
   37       -1.857510
   38       -1.844078
   39       -1.840880
   40       -1.825310
   41       -1.823078
   42       -1.808480
   43       -1.790189
   44       -1.274748
   45       -0.008024
   46        0.008751
   47        0.009562
   48        0.025355
   49        0.187255
   50        0.191566
   51        0.673823
   52        0.685072
   53        0.685443
   54        0.698134
   55        0.915250
   56        0.917028
   57        0.919921
   58        0.921956
   59        1.753645
   60        1.758615
   61        2.524382
   62        2.935698
   63        2.937449
   64        3.207646
   65        6.127831
   66        6.132742
   67        6.134680
   68        6.433942
   69        7.995261
   70        8.004640
   71        8.393710
   72        8.397482
   73        8.402821
   74        8.405586
   75        8.914714
   76        8.920421
   77        9.611753
   78       12.176439
   79       12.180115
   80       12.771362
   81       12.803335
   82       12.976769
   83       12.992300
   84       13.014230
 
 -0.1666667E+00  0.1666667E+00  0.0000000E+00  0.1388889E-01
    1      -14.775970
    2      -14.630683
    3      -14.630064
    4      -14.474739
    5      -10.926752
    6      -10.815423
    7      -10.814856
    8      -10.698062
    9      -10.039763
   10      -10.037778
   11       -9.942495
   12       -9.939775
   13       -9.939740
   14       -9.938350
   15       -9.839385
   16       -9.837241
   17       -7.921067
   18       -7.919296
   19       -7.842952
   20       -7.841763
   21       -7.841736
   22       -7.839318
   23       -7.758066
   24       -7.756212
   25       -7.088252
   26       -7.008526
   27       -7.006292
   28       -6.922995
   29       -3.616457
   30       -2.728674
   31       -2.727041
   32       -2.207067
   33       -2.204533
   34       -2.174161
   35       -2.170165
   36       -2.170156
   37       -2.169576
   38       -2.136729
   39       -2.134601
   40       -1.647131
   41       -1.531264
   42       -1.504608
   43       -1.502512
   44       -1.475563
   45        0.830207
   46        1.017965
   47        1.033968
   48        1.039001
   49        1.054347
   50        1.356652
   51        1.369490
   52        1.373503
   53        1.387276
   54        1.486480
   55        1.488494
   56        1.700710
   57        1.702753
   58        2.196719
   59        2.228107
   60        2.232450
   61        2.232707
   62        2.233738
   63        2.711347
   64        2.713976
   65        6.380327
   66        6.383259
   67        6.628608
   68        6.630106
   69        6.630379
   70        6.635110
   71        7.050541
   72        7.160837
   73        7.163386
   74        7.441236
   75        7.445261
   76        8.044927
   77        9.210397
   78       11.830572
   79       11.834651
   80       12.012575
   81       12.201228
   82       12.202005
   83       12.390798
   84       12.617786
 
 -0.2710505E-19  0.3333333E+00  0.0000000E+00  0.1388889E-01
    1      -14.280498
    2      -14.139416
    3      -14.138808
    4      -13.988323
    5      -12.331425
    6      -12.206894
    7      -12.206298
    8      -12.074650
    9      -10.471486
   10      -10.467305
   11      -10.365365
   12      -10.363327
   13      -10.360092
   14      -10.358946
   15      -10.251634
   16      -10.247346
   17       -6.752187
   18       -6.740301
   19       -6.680332
   20       -6.677366
   21       -6.667698
   22       -6.665701
   23       -6.602423
   24       -6.590687
   25       -4.962657
   26       -4.896020
   27       -4.895520
   28       -4.826809
   29       -3.364525
   30       -3.347483
   31       -3.320422
   32       -3.317833
   33       -3.302792
   34       -3.301145
   35       -3.272061
   36       -3.254915
   37       -3.017224
   38       -2.146825
   39       -2.145214
   40       -1.089897
   41       -1.076942
   42       -1.050644
   43       -1.050140
   44       -1.023694
   45       -0.712101
   46       -0.621028
   47       -0.588621
   48       -0.588208
   49       -0.555653
   50        0.068947
   51        0.070546
   52        0.542769
   53        0.563091
   54        0.563529
   55        0.583840
   56        0.990595
   57        1.391079
   58        1.394219
   59        2.034415
   60        2.036633
   61        2.039537
   62        2.041307
   63        2.736829
   64        2.741888
   65        6.872139
   66        6.879015
   67        7.197933
   68        7.202231
   69        7.206525
   70        7.209875
   71        7.624706
   72        7.630673
   73        9.198235
   74        9.590498
   75        9.592746
   76        9.811614
   77       10.104622
   78       12.068037
   79       12.313619
   80       12.316139
   81       12.319040
   82       12.398504
   83       12.399498
   84       12.704856
 
  0.1666667E+00  0.3333333E+00  0.0000000E+00  0.1388889E-01
    1      -13.787741
    2      -13.650821
    3      -13.650245
    4      -13.504526
    5      -12.814555
    6      -12.685917
    7      -12.685277
    8      -12.548995
    9      -11.858437
   10      -11.738016
   11      -11.737479
   12      -11.610422
   13       -9.178769
   14       -9.088698
   15       -9.088436
   16       -8.995932
   17       -7.283087
   18       -7.223439
   19       -7.221197
   20       -7.159014
   21       -4.968151
   22       -4.922335
   23       -4.921318
   24       -4.870899
   25       -4.807850
   26       -4.755663
   27       -4.754770
   28       -4.702142
   29       -3.825901
   30       -3.771115
   31       -3.769926
   32       -3.713848
   33       -2.777427
   34       -2.743061
   35       -2.740964
   36       -2.704201
   37       -2.424680
   38       -1.731071
   39       -1.698854
   40       -1.697453
   41       -1.661445
   42       -1.571054
   43       -1.569088
   44       -1.268658
   45       -1.237991
   46       -1.208468
   47       -1.208020
   48       -1.177796
   49       -0.542804
   50       -0.459735
   51       -0.458154
   52       -0.342410
   53       -0.321514
   54       -0.318874
   55       -0.297090
   56       -0.147736
   57        0.506182
   58        0.611767
   59        0.613425
   60        1.504404
   61        2.812549
   62        3.337330
   63        3.339127
   64        3.824202
   65        5.765770
   66        5.986863
   67        5.989705
   68        6.317252
   69        8.811999
   70        9.118988
   71        9.120574
   72        9.446393
   73       10.297927
   74       10.416414
   75       10.611908
   76       10.614473
   77       10.998591
   78       11.604610
   79       12.563808
   80       12.661922
   81       12.672483
   82       12.796774
   83       12.927721
   84       12.940434
 
  0.3333333E+00  0.3333333E+00  0.0000000E+00  0.1388889E-01
    1      -12.979028
    2      -12.976332
    3      -12.973725
    4      -12.850767
    5      -12.846732
    6      -12.846709
    7      -12.845905
    8      -12.843818
    9      -12.841946
   10      -12.710457
   11      -12.707808
   12      -12.705129
   13       -7.964296
   14       -7.872580
   15       -7.872183
   16       -7.865940
   17       -7.864067
   18       -7.861023
   19       -7.859360
   20       -7.770724
   21       -5.822991
   22       -5.822557
   23       -5.818310
   24       -5.817120
   25       -3.064781
   26       -3.060813
   27       -3.057751
   28       -3.038130
   29       -3.032484
   30       -3.032180
   31       -3.032154
   32       -3.031278
   33       -3.026617
   34       -3.007164
   35       -3.004921
   36       -3.001180
   37       -1.703743
   38       -1.697723
   39       -1.694912
   40       -1.686022
   41       -1.680513
   42       -1.679234
   43       -1.678000
   44       -1.677993
   45       -1.672326
   46       -1.660841
   47       -1.656811
   48       -1.651434
   49       -1.458438
   50       -1.456294
   51       -1.454013
   52       -0.642208
   53       -0.638677
   54       -0.638402
   55       -0.637240
   56       -0.635824
   57       -0.633478
   58        0.338980
   59        0.341440
   60        0.343648
   61        4.051520
   62        4.666626
   63        4.675356
   64        4.683786
   65        4.686894
   66        4.705251
   67        4.705871
   68        5.414119
   69       10.820503
   70       10.823640
   71       10.830124
   72       11.055819
   73       11.061562
   74       11.062100
   75       11.062593
   76       11.063606
   77       11.066506
   78       11.308121
   79       11.311520
   80       11.313823
   81       11.418339
   82       11.420219
   83       11.425314
   84       13.691579
 
  0.5000000E+00  0.3333333E+00  0.0000000E+00  0.1388889E-01
    1      -13.789709
    2      -13.652813
    3      -13.652180
    4      -13.506486
    5      -12.816493
    6      -12.687860
    7      -12.687205
    8      -12.550931
    9      -11.854524
   10      -11.734079
   11      -11.733588
   12      -11.606516
   13       -9.169107
   14       -9.079070
   15       -9.078410
   16       -8.985915
   17       -7.283789
   18       -7.223695
   19       -7.223276
   20       -7.160724
   21       -4.977187
   22       -4.931917
   23       -4.930630
   24       -4.880698
   25       -4.812907
   26       -4.761511
   27       -4.759135
   28       -4.707279
   29       -3.839674
   30       -3.785665
   31       -3.782491
   32       -3.727149
   33       -2.775243
   34       -2.741551
   35       -2.737787
   36       -2.701787
   37       -2.426579
   38       -1.743189
   39       -1.710957
   40       -1.708439
   41       -1.672787
   42       -1.573066
   43       -1.571195
   44       -1.270449
   45       -1.220305
   46       -1.191784
   47       -1.188950
   48       -1.159669
   49       -0.544659
   50       -0.461568
   51       -0.459979
   52       -0.329175
   53       -0.307804
   54       -0.305987
   55       -0.283634
   56       -0.144387
   57        0.504234
   58        0.614842
   59        0.616737
   60        1.507380
   61        2.816658
   62        3.342866
   63        3.344985
   64        3.832635
   65        5.770076
   66        5.986895
   67        5.988759
   68        6.309445
   69        8.815349
   70        9.118244
   71        9.120562
   72        9.441913
   73       10.289640
   74       10.413830
   75       10.604587
   76       10.607896
   77       10.994547
   78       11.602393
   79       12.555286
   80       12.657599
   81       12.668158
   82       12.801968
   83       12.929269
   84       12.942014
 
 -0.3333333E+00  0.3333333E+00  0.0000000E+00  0.1388889E-01
    1      -14.281482
    2      -14.140408
    3      -14.139773
    4      -13.989300
    5      -12.335343
    6      -12.210844
    7      -12.210189
    8      -12.078574
    9      -10.463908
   10      -10.462145
   11      -10.357622
   12      -10.355359
   13      -10.355326
   14      -10.353998
   15      -10.244044
   16      -10.242212
   17       -6.747911
   18       -6.746117
   19       -6.675259
   20       -6.674172
   21       -6.674156
   22       -6.671479
   23       -6.598754
   24       -6.596772
   25       -4.974626
   26       -4.908851
   27       -4.906350
   28       -4.838496
   29       -3.362848
   30       -3.360753
   31       -3.319342
   32       -3.315526
   33       -3.315417
   34       -3.315374
   35       -3.270322
   36       -3.268510
   37       -3.018195
   38       -2.147770
   39       -2.146180
   40       -1.090838
   41       -1.058038
   42       -1.032540
   43       -1.030222
   44       -1.004521
   45       -0.715602
   46       -0.636581
   47       -0.605532
   48       -0.601541
   49       -0.570409
   50        0.065349
   51        0.066959
   52        0.559004
   53        0.578084
   54        0.581578
   55        0.600937
   56        0.986706
   57        1.395994
   58        1.397992
   59        2.038932
   60        2.043092
   61        2.043324
   62        2.044426
   63        2.742841
   64        2.745353
   65        6.877816
   66        6.880421
   67        7.202636
   68        7.204086
   69        7.204318
   70        7.208894
   71        7.623315
   72        7.626000
   73        9.188781
   74        9.581080
   75        9.584662
   76        9.810294
   77       10.098133
   78       12.074599
   79       12.315858
   80       12.318898
   81       12.341277
   82       12.429867
   83       12.431125
   84       12.730982
 
 -0.1666667E+00  0.3333333E+00  0.0000000E+00  0.1388889E-01
    1      -14.445770
    2      -14.303302
    3      -14.302674
    4      -14.150588
    5      -11.545416
    6      -11.538800
    7      -11.428666
    8      -11.426909
    9      -11.421051
   10      -11.420218
   11      -11.303376
   12      -11.296708
   13       -9.183710
   14       -9.124719
   15       -9.122747
   16       -9.073797
   17       -8.134309
   18       -8.106418
   19       -8.103633
   20       -8.057969
   21       -5.980437
   22       -5.971280
   23       -5.909294
   24       -5.906046
   25       -5.898667
   26       -5.897852
   27       -5.832015
   28       -5.823171
   29       -3.550793
   30       -3.504384
   31       -3.501759
   32       -3.453900
   33       -3.216582
   34       -2.340191
   35       -2.338584
   36       -1.874649
   37       -1.857759
   38       -1.841893
   39       -1.840877
   40       -1.825311
   41       -1.823168
   42       -1.807261
   43       -1.790150
   44       -1.274698
   45       -0.011329
   46        0.004589
   47        0.009556
   48        0.023791
   49        0.186966