 running on    6 total cores
 distrk:  each k-point on    6 cores,    1 groups
 distr:  one band on    1 cores,    6 groups
 using from now: INCAR     
 vasp.5.3.5 31Mar14 (build Nov 02 2014 15:17:37) complex                        
  
 POSCAR found :  1 types and      32 ions
 scaLAPACK will be used

 ----------------------------------------------------------------------------- 
|                                                                             |
|           W    W    AA    RRRRR   N    N  II  N    N   GGGG   !!!           |
|           W    W   A  A   R    R  NN   N  II  NN   N  G    G  !!!           |
|           W    W  A    A  R    R  N N  N  II  N N  N  G       !!!           |
|           W WW W  AAAAAA  RRRRR   N  N N  II  N  N N  G  GGG   !            |
|           WW  WW  A    A  R   R   N   NN  II  N   NN  G    G                |
|           W    W  A    A  R    R  N    N  II  N    N   GGGG   !!!           |
|                                                                             |
|      For optimal performance we recommend to set                            |
|        NCORE= 4 - approx SQRT( number of cores)                             |
|      NCORE specifies how many cores store one orbital (NPAR=cpu/NCORE).     |
|      This setting can  greatly improve the performance of VASP for DFT.     |
|      The default, NPAR=number of cores might be grossly inefficient         |
|      on modern multi-core architectures or massively parallel machines.     |
|      Do your own testing !!!!                                               |
|      Unfortunately you need to use the default for GW and RPA calculations. |
|      (for HF NCORE is supported but not extensively tested yet)             |
|                                                                             |
 ----------------------------------------------------------------------------- 


 ----------------------------------------------------------------------------- 
|                                                                             |
|  ADVICE TO THIS USER RUNNING 'VASP/VAMP'   (HEAR YOUR MASTER'S VOICE ...):  |
|                                                                             |
|      You have a (more or less) 'large supercell' and for larger cells       |
|      it might be more efficient to use real space projection operators      |
|      So try LREAL= Auto  in the INCAR   file.                               |
|      Mind: If you want to do a very accurate calculations keep the          |
|      reciprocal projection scheme          (i.e. LREAL=.FALSE.)             |
|                                                                             |
 ----------------------------------------------------------------------------- 

 LDA part: xc-table for Pade appr. of Perdew
 POSCAR, INCAR and KPOINTS ok, starting setup
 FFT: planning ...
 WAVECAR not read
 WARNING: random wavefunctions but no delay for mixing, default for NELMDL
 entering main loop
       N       E                     dE             d eps       ncg     rms          rms(c)
DAV:   1     0.705931303251E+03    0.70593E+03   -0.84121E+04 12768   0.200E+03
DAV:   2    -0.254656141302E+03   -0.96059E+03   -0.92554E+03 15900   0.341E+02
DAV:   3    -0.312590287180E+03   -0.57934E+02   -0.57341E+02 15552   0.824E+01
DAV:   4    -0.313718762202E+03   -0.11285E+01   -0.11262E+01 15924   0.124E+01
DAV:   5    -0.313753115778E+03   -0.34354E-01   -0.34342E-01 16392   0.203E+00    0.221E+01
DAV:   6    -0.299334441255E+03    0.14419E+02   -0.14868E+01 14592   0.107E+01    0.116E+01
DAV:   7    -0.294766401358E+03    0.45680E+01   -0.15655E+01 14520   0.110E+01    0.195E+00
DAV:   8    -0.294834268716E+03   -0.67867E-01   -0.65352E-01 14832   0.212E+00    0.741E-01
DAV:   9    -0.294829894082E+03    0.43746E-02   -0.45895E-02 14916   0.770E-01    0.381E-01
DAV:  10    -0.294826962117E+03    0.29320E-02   -0.61940E-02 19212   0.540E-01    0.193E-01
DAV:  11    -0.294826406227E+03    0.55589E-03   -0.81135E-03 14580   0.260E-01    0.104E-01
DAV:  12    -0.294827180974E+03   -0.77475E-03   -0.59602E-03 16116   0.153E-01    0.125E-01
DAV:  13    -0.294826993800E+03    0.18717E-03   -0.19919E-03 15120   0.101E-01    0.904E-02
DAV:  14    -0.294827892738E+03   -0.89894E-03   -0.12406E-02 20112   0.206E-01    0.134E-01
DAV:  15    -0.294827865190E+03    0.27548E-04   -0.29200E-04 14568   0.586E-02    0.133E-01
DAV:  16    -0.294827744842E+03    0.12035E-03   -0.61269E-04 18384   0.487E-02    0.111E-01
DAV:  17    -0.294827154699E+03    0.59014E-03   -0.17292E-03 22548   0.131E-01    0.490E-02
DAV:  18    -0.294827172009E+03   -0.17310E-04   -0.97457E-04 14880   0.525E-02    0.518E-02
DAV:  19    -0.294827135033E+03    0.36976E-04   -0.24702E-04 14592   0.260E-02    0.169E-02
DAV:  20    -0.294827135348E+03   -0.31547E-06   -0.58391E-06 14580   0.747E-03    0.176E-02
DAV:  21    -0.294827137207E+03   -0.18589E-05   -0.10631E-04 18888   0.146E-02    0.228E-02
DAV:  22    -0.294827130865E+03    0.63420E-05   -0.44889E-05 16236   0.930E-03    0.997E-03
DAV:  23    -0.294827134646E+03   -0.37809E-05   -0.47472E-05 21420   0.100E-02    0.187E-02
DAV:  24    -0.294827132561E+03    0.20854E-05   -0.37273E-06 14520   0.386E-03    0.144E-02
DAV:  25    -0.294827130789E+03    0.17716E-05   -0.47274E-06 17712   0.311E-03    0.940E-03
DAV:  26    -0.294827129980E+03    0.80918E-06   -0.19990E-06 16992   0.200E-03    0.585E-03
DAV:  27    -0.294827130006E+03   -0.26387E-07   -0.97612E-08 13176   0.929E-04    0.623E-03
DAV:  28    -0.294827130039E+03   -0.32891E-07   -0.11599E-06 14604   0.259E-03    0.664E-03
DAV:  29    -0.294827129472E+03    0.56756E-06   -0.36646E-06 16884   0.261E-03    0.174E-03
DAV:  30    -0.294827129467E+03    0.45893E-08   -0.38769E-07 13440   0.950E-04    0.384E-04
DAV:  31    -0.294827129471E+03   -0.40745E-08   -0.48095E-08  9240   0.432E-04
   1 F= -.29984009E+03 E0= -.29984009E+03  d E =0.000000E+00
