  32  32   0   0
  0.9341735E+01  0.4932875E-09  0.4932875E-09  0.1419195E-08  0.5000000E-15
  1.000000000000000E-004
  CAR 
 graphite                                
     14.53818888    -17.38646735  301      4.20070110      1.00000000
    -17.386  0.0000E+00  0.0000E+00
    -17.280  0.0000E+00  0.0000E+00
    -17.174  0.0000E+00  0.0000E+00
    -17.067  0.0000E+00  0.0000E+00
    -16.961  0.0000E+00  0.0000E+00
    -16.854  0.0000E+00  0.0000E+00
    -16.748  0.0000E+00  0.0000E+00
    -16.642  0.0000E+00  0.0000E+00
    -16.535  0.0000E+00  0.0000E+00
    -16.429  0.0000E+00  0.0000E+00
    -16.322  0.0000E+00  0.0000E+00
    -16.216  0.0000E+00  0.0000E+00
    -16.109  0.0000E+00  0.0000E+00
    -16.003  0.0000E+00  0.0000E+00
    -15.897  0.0000E+00  0.0000E+00
    -15.790  0.0000E+00  0.0000E+00
    -15.684  0.0000E+00  0.0000E+00
    -15.577  0.0000E+00  0.0000E+00
    -15.471  0.0000E+00  0.0000E+00
    -15.365  0.1460E+00  0.1211E-02
    -15.258  0.2395E+01  0.1186E+00
    -15.152  0.4359E+01  0.4929E+00
    -15.045  0.5012E+01  0.1017E+01
    -14.939  0.4854E+01  0.1515E+01
    -14.832  0.5163E+01  0.2052E+01
    -14.726  0.5041E+01  0.2599E+01
    -14.620  0.4777E+01  0.3119E+01
    -14.513  0.4831E+01  0.3627E+01
    -14.407  0.5044E+01  0.4152E+01
    -14.300  0.5257E+01  0.4700E+01
    -14.194  0.7007E+01  0.5316E+01
    -14.088  0.8186E+01  0.6131E+01
    -13.981  0.6375E+01  0.6990E+01
    -13.875  0.2644E+01  0.7454E+01
    -13.768  0.1890E+01  0.7679E+01
    -13.662  0.2161E+01  0.7891E+01
    -13.556  0.2512E+01  0.8140E+01
    -13.449  0.2864E+01  0.8426E+01
    -13.343  0.5707E+01  0.8801E+01
    -13.236  0.1046E+02  0.9890E+01
    -13.130  0.7469E+01  0.1088E+02
    -13.023  0.3974E+01  0.1137E+02
    -12.917  0.4070E+01  0.1180E+02
    -12.811  0.4167E+01  0.1224E+02
    -12.704  0.4282E+01  0.1268E+02
    -12.598  0.4410E+01  0.1315E+02
    -12.491  0.4532E+01  0.1362E+02
    -12.385  0.4654E+01  0.1411E+02
    -12.279  0.5267E+01  0.1462E+02
    -12.172  0.6257E+01  0.1523E+02
    -12.066  0.6259E+01  0.1592E+02
    -11.959  0.5693E+01  0.1656E+02
    -11.853  0.5362E+01  0.1714E+02
    -11.746  0.5517E+01  0.1772E+02
    -11.640  0.5679E+01  0.1832E+02
    -11.534  0.5841E+01  0.1893E+02
    -11.427  0.6003E+01  0.1956E+02
    -11.321  0.5664E+01  0.2019E+02
    -11.214  0.5280E+01  0.2077E+02
    -11.108  0.5329E+01  0.2134E+02
    -11.002  0.4702E+01  0.2189E+02
    -10.895  0.4274E+01  0.2234E+02
    -10.789  0.4984E+01  0.2284E+02
    -10.682  0.5159E+01  0.2338E+02
    -10.576  0.5334E+01  0.2394E+02
    -10.469  0.6939E+01  0.2455E+02
    -10.363  0.1184E+02  0.2553E+02
    -10.257  0.9575E+01  0.2667E+02
    -10.150  0.7313E+01  0.2757E+02
    -10.044  0.5134E+01  0.2823E+02
     -9.937  0.4457E+01  0.2873E+02
     -9.831  0.4015E+01  0.2918E+02
     -9.725  0.3573E+01  0.2958E+02
     -9.618  0.7642E+01  0.3017E+02
     -9.512  0.2097E+01  0.3082E+02
     -9.405  0.1899E+01  0.3103E+02
     -9.299  0.1700E+01  0.3122E+02
     -9.192  0.1502E+01  0.3139E+02
     -9.086  0.1304E+01  0.3154E+02
     -8.980  0.1312E+01  0.3168E+02
     -8.873  0.1807E+01  0.3184E+02
     -8.767  0.2304E+01  0.3206E+02
     -8.660  0.2801E+01  0.3233E+02
     -8.554  0.5145E+01  0.3271E+02
     -8.448  0.9581E+01  0.3349E+02
     -8.341  0.5171E+01  0.3448E+02
     -8.235  0.5085E+01  0.3500E+02
     -8.128  0.6202E+01  0.3560E+02
     -8.022  0.7319E+01  0.3632E+02
     -7.915  0.8436E+01  0.3716E+02
     -7.809  0.9553E+01  0.3811E+02
     -7.703  0.7228E+01  0.3908E+02
     -7.596  0.5555E+01  0.3970E+02
     -7.490  0.5593E+01  0.4029E+02
     -7.383  0.5591E+01  0.4089E+02
     -7.277  0.5443E+01  0.4147E+02
     -7.171  0.5281E+01  0.4204E+02
     -7.064  0.5142E+01  0.4260E+02
     -6.958  0.5023E+01  0.4314E+02
     -6.851  0.4905E+01  0.4367E+02
     -6.745  0.4787E+01  0.4418E+02
     -6.638  0.4669E+01  0.4469E+02
     -6.532  0.4550E+01  0.4518E+02
     -6.426  0.4432E+01  0.4565E+02
     -6.319  0.4431E+01  0.4612E+02
     -6.213  0.5048E+01  0.4663E+02
     -6.106  0.5621E+01  0.4720E+02
     -6.000  0.6193E+01  0.4782E+02
     -5.894  0.6766E+01  0.4851E+02
     -5.787  0.7338E+01  0.4926E+02
     -5.681  0.7910E+01  0.5008E+02
     -5.574  0.8483E+01  0.5095E+02
     -5.468  0.9055E+01  0.5188E+02
     -5.362  0.3883E+01  0.5249E+02
     -5.255  0.6464E+01  0.5300E+02
     -5.149  0.6605E+01  0.5376E+02
     -5.042  0.5199E+01  0.5438E+02
     -4.936  0.3793E+01  0.5486E+02
     -4.829  0.2386E+01  0.5519E+02
     -4.723  0.1070E+01  0.5537E+02
     -4.617  0.2274E+01  0.5554E+02
     -4.510  0.3687E+01  0.5586E+02
     -4.404  0.5100E+01  0.5632E+02
     -4.297  0.7729E+01  0.5695E+02
     -4.191  0.1138E+02  0.5807E+02
     -4.085  0.1051E+02  0.5923E+02
     -3.978  0.1090E+02  0.6034E+02
     -3.872  0.1059E+02  0.6152E+02
     -3.765  0.5379E+01  0.6225E+02
     -3.659  0.5672E+01  0.6283E+02
     -3.552  0.6508E+01  0.6348E+02
     -3.446  0.1039E+02  0.6433E+02
     -3.340  0.1555E+02  0.6571E+02
     -3.233  0.2608E+02  0.6783E+02
     -3.127  0.6539E+01  0.6904E+02
     -3.020  0.6689E+01  0.6974E+02
     -2.914  0.7016E+01  0.7047E+02
     -2.808  0.7613E+01  0.7124E+02
     -2.701  0.9405E+01  0.7213E+02
     -2.595  0.1675E+02  0.7375E+02
     -2.488  0.1449E+02  0.7540E+02
     -2.382  0.1158E+02  0.7684E+02
     -2.275  0.1616E+02  0.7812E+02
     -2.169  0.1520E+02  0.8135E+02
     -2.063  0.2090E+02  0.8317E+02
     -1.956  0.1253E+02  0.8501E+02
     -1.850  0.1400E+02  0.8641E+02
     -1.743  0.1491E+02  0.8799E+02
     -1.637  0.9107E+01  0.8929E+02
     -1.531  0.6522E+01  0.9010E+02
     -1.424  0.8367E+01  0.9088E+02
     -1.318  0.8380E+01  0.9179E+02
     -1.211  0.9287E+01  0.9273E+02
     -1.105  0.9845E+01  0.9376E+02
     -0.998  0.9566E+01  0.9478E+02
     -0.892  0.1105E+02  0.9587E+02
     -0.786  0.1197E+02  0.9768E+02
     -0.679  0.1121E+02  0.9892E+02
     -0.573  0.1157E+02  0.1001E+03
     -0.466  0.1179E+02  0.1014E+03
     -0.360  0.1040E+02  0.1025E+03
     -0.254  0.1006E+02  0.1036E+03
     -0.147  0.9804E+01  0.1047E+03
     -0.041  0.9583E+01  0.1057E+03
      0.066  0.9511E+01  0.1067E+03
      0.172  0.9530E+01  0.1078E+03
      0.279  0.9142E+01  0.1087E+03
      0.385  0.8994E+01  0.1097E+03
      0.491  0.9027E+01  0.1107E+03
      0.598  0.9797E+01  0.1117E+03
      0.704  0.9859E+01  0.1127E+03
      0.811  0.1019E+02  0.1138E+03
      0.917  0.1060E+02  0.1149E+03
      1.023  0.9543E+01  0.1160E+03
      1.130  0.8087E+01  0.1169E+03
      1.236  0.6606E+01  0.1177E+03
      1.343  0.5524E+01  0.1184E+03
      1.449  0.4902E+01  0.1189E+03
      1.555  0.3881E+01  0.1194E+03
      1.662  0.2924E+01  0.1198E+03
      1.768  0.3634E+01  0.1201E+03
      1.875  0.5428E+01  0.1206E+03
      1.981  0.8016E+01  0.1213E+03
      2.088  0.1302E+02  0.1224E+03
      2.194  0.7430E+01  0.1233E+03
      2.300  0.6369E+01  0.1241E+03
      2.407  0.5659E+01  0.1247E+03
      2.513  0.4607E+01  0.1253E+03
      2.620  0.3722E+01  0.1257E+03
      2.726  0.3266E+01  0.1261E+03
      2.832  0.2922E+01  0.1264E+03
      2.939  0.2566E+01  0.1267E+03
      3.045  0.2230E+01  0.1269E+03
      3.152  0.1904E+01  0.1272E+03
      3.258  0.1548E+01  0.1273E+03
      3.365  0.1347E+01  0.1275E+03
      3.471  0.1146E+01  0.1276E+03
      3.577  0.9449E+00  0.1277E+03
      3.684  0.7438E+00  0.1278E+03
      3.790  0.5479E+00  0.1279E+03
      3.897  0.3825E+00  0.1279E+03
      4.003  0.2350E+00  0.1280E+03
      4.109  0.1018E+00  0.1280E+03
      4.216  0.8157E-02  0.1280E+03
      4.322  0.1169E+00  0.1280E+03
      4.429  0.2401E+00  0.1280E+03
      4.535  0.3800E+00  0.1281E+03
      4.642  0.5412E+00  0.1281E+03
      4.748  0.7422E+00  0.1282E+03
      4.854  0.9584E+00  0.1283E+03
      4.961  0.1175E+01  0.1284E+03
      5.067  0.1391E+01  0.1285E+03
      5.174  0.1608E+01  0.1287E+03
      5.280  0.1825E+01  0.1289E+03
      5.386  0.3037E+01  0.1291E+03
      5.493  0.3883E+01  0.1295E+03
      5.599  0.4032E+01  0.1299E+03
      5.706  0.5629E+01  0.1304E+03
      5.812  0.8261E+01  0.1311E+03
      5.919  0.1298E+02  0.1323E+03
      6.025  0.8969E+01  0.1334E+03
      6.131  0.7071E+01  0.1342E+03
      6.238  0.6338E+01  0.1349E+03
      6.344  0.5959E+01  0.1356E+03
      6.451  0.5411E+01  0.1362E+03
      6.557  0.4659E+01  0.1367E+03
      6.663  0.4490E+01  0.1372E+03
      6.770  0.4007E+01  0.1377E+03
      6.876  0.3794E+01  0.1381E+03
      6.983  0.4017E+01  0.1385E+03
      7.089  0.4495E+01  0.1389E+03
      7.196  0.4797E+01  0.1394E+03
      7.302  0.4738E+01  0.1399E+03
      7.408  0.4641E+01  0.1404E+03
      7.515  0.4469E+01  0.1409E+03
      7.621  0.4298E+01  0.1414E+03
      7.728  0.4170E+01  0.1418E+03
      7.834  0.4088E+01  0.1423E+03
      7.940  0.4036E+01  0.1427E+03
      8.047  0.4001E+01  0.1431E+03
      8.153  0.4028E+01  0.1436E+03
      8.260  0.4329E+01  0.1440E+03
      8.366  0.4577E+01  0.1445E+03
      8.473  0.4255E+01  0.1450E+03
      8.579  0.4126E+01  0.1454E+03
      8.685  0.4050E+01  0.1458E+03
      8.792  0.3980E+01  0.1463E+03
      8.898  0.3868E+01  0.1467E+03
      9.005  0.3916E+01  0.1471E+03
      9.111  0.3971E+01  0.1475E+03
      9.217  0.4021E+01  0.1479E+03
      9.324  0.4072E+01  0.1484E+03
      9.430  0.4102E+01  0.1488E+03
      9.537  0.4182E+01  0.1493E+03
      9.643  0.4606E+01  0.1497E+03
      9.749  0.4759E+01  0.1502E+03
      9.856  0.4756E+01  0.1507E+03
      9.962  0.6401E+01  0.1513E+03
     10.069  0.5368E+01  0.1519E+03
     10.175  0.6141E+01  0.1525E+03
     10.282  0.5649E+01  0.1532E+03
     10.388  0.6395E+01  0.1538E+03
     10.494  0.4990E+01  0.1544E+03
     10.601  0.3326E+01  0.1549E+03
     10.707  0.4345E+01  0.1552E+03
     10.814  0.3170E+01  0.1557E+03
     10.920  0.2954E+01  0.1560E+03
     11.026  0.3062E+01  0.1563E+03
     11.133  0.3237E+01  0.1567E+03
     11.239  0.3346E+01  0.1570E+03
     11.346  0.4090E+01  0.1574E+03
     11.452  0.4661E+01  0.1579E+03
     11.559  0.8420E+01  0.1586E+03
     11.665  0.8689E+01  0.1594E+03
     11.771  0.9950E+01  0.1604E+03
     11.878  0.1191E+02  0.1616E+03
     11.984  0.1282E+02  0.1629E+03
     12.091  0.1269E+02  0.1642E+03
     12.197  0.1303E+02  0.1656E+03
     12.303  0.1144E+02  0.1669E+03
     12.410  0.4749E+01  0.1678E+03
     12.516  0.2604E-01  0.1680E+03
     12.623  0.0000E+00  0.1680E+03
     12.729  0.0000E+00  0.1680E+03
     12.836  0.0000E+00  0.1680E+03
     12.942  0.0000E+00  0.1680E+03
     13.048  0.0000E+00  0.1680E+03
     13.155  0.0000E+00  0.1680E+03
     13.261  0.0000E+00  0.1680E+03
     13.368  0.0000E+00  0.1680E+03
     13.474  0.0000E+00  0.1680E+03
     13.580  0.0000E+00  0.1680E+03
     13.687  0.0000E+00  0.1680E+03
     13.793  0.0000E+00  0.1680E+03
     13.900  0.0000E+00  0.1680E+03
     14.006  0.0000E+00  0.1680E+03
     14.113  0.0000E+00  0.1680E+03
     14.219  0.0000E+00  0.1680E+03
     14.325  0.0000E+00  0.1680E+03
     14.432  0.0000E+00  0.1680E+03
     14.538  0.0000E+00  0.1680E+03
