   32   32    1    1
  0.9341735E+01  0.4932875E-09  0.4932875E-09  0.1419195E-08  0.5000000E-15
  1.000000000000000E-004
  CAR 
 graphite                                
    128     76     84
 
  0.0000000E+00  0.0000000E+00  0.0000000E+00  0.6944444E-02
    1      -15.386467
    2      -15.293388
    3      -15.291744
    4      -15.194386
    5      -10.093856
    6      -10.082493
    7      -10.079827
    8      -10.057884
    9      -10.056927
   10      -10.047467
   11      -10.042741
   12      -10.042710
   13      -10.042116
   14      -10.024670
   15      -10.011733
   16      -10.008916
   17       -9.029440
   18       -9.027116
   19       -9.026186
   20       -9.007922
   21       -9.005029
   22       -9.004756
   23       -9.004741
   24       -9.002703
   25       -9.001543
   26       -8.975186
   27       -8.973408
   28       -8.972795
   29       -4.085999
   30       -3.417069
   31       -3.415210
   32       -2.621793
   33       -2.202575
   34       -2.199577
   35       -2.188569
   36       -2.185912
   37       -2.183568
   38       -2.183489
   39       -2.183482
   40       -2.170205
   41       -2.169872
   42       -2.169348
   43       -2.166946
   44       -2.153359
   45        1.184269
   46        1.194859
   47        1.195367
   48        1.198954
   49        1.199905
   50        1.201850
   51        1.202486
   52        1.210861
   53        1.560230
   54        1.565592
   55        1.567593
   56        1.838590
   57        1.839908
   58        1.846939
   59        1.851533
   60        1.851916
   61        1.852555
   62        2.054178
   63        2.070705
   64        2.073232
   65        5.706355
   66        5.709284
   67        5.715155
   68        5.860743
   69        5.864326
   70        5.865110
   71        5.865142
   72        5.867729
   73        5.869209
   74        6.246164
   75        6.249729
   76        6.251993
   77        8.091597
   78       10.316492
   79       10.319613
   80       11.458047
   81       11.461776
   82       11.493065
   83       11.587137
   84       11.590095
 
  0.1666667E+00  0.0000000E+00  0.0000000E+00  0.1388889E-01
    1      -15.221155
    2      -15.129105
    3      -15.127468
    4      -15.031207
    5      -11.377337
    6      -11.308462
    7      -11.306802
    8      -11.235575
    9      -10.509885
   10      -10.502212
   11      -10.450073
   12      -10.448253
   13      -10.441599
   14      -10.440429
   15      -10.386923
   16      -10.378738
   17       -8.392417
   18       -8.388419
   19       -8.345619
   20       -8.341767
   21       -8.340140
   22       -8.338796
   23       -8.292575
   24       -8.288411
   25       -7.547684
   26       -7.498252
   27       -7.498112
   28       -7.447124
   29       -3.885936
   30       -3.221255
   31       -3.219381
   32       -2.690103
   33       -2.676135
   34       -2.670731
   35       -2.669149
   36       -2.656073
   37       -2.655520
   38       -2.649516
   39       -2.635397
   40       -2.431679
   41       -2.039165
   42       -2.025143
   43       -2.021172
   44       -2.007195
   45        0.520153
   46        0.539825
   47        0.548570
   48        0.551283
   49        0.561261
   50        0.846196
   51        0.855235
   52        0.860134
   53        0.865958
   54        1.001366
   55        1.004321
   56        1.356297
   57        1.363242
   58        1.522952
   59        1.731861
   60        1.732898
   61        1.741667
   62        1.743262
   63        2.089812
   64        2.103887
   65        5.927168
   66        5.932349
   67        6.140484
   68        6.145008
   69        6.145986
   70        6.147361
   71        6.523358
   72        6.526524
   73        6.662431
   74        6.966240
   75        6.968156
   76        7.397855
   77        8.296179
   78       10.503748
   79       10.506805
   80       11.547469
   81       11.668500
   82       11.671261
   83       11.788913
   84       12.209366
 
  0.3333333E+00  0.0000000E+00  0.0000000E+00  0.1388889E-01
    1      -14.727277
    2      -14.638118
    3      -14.636498
    4      -14.543408
    5      -12.783625
    6      -12.705763
    7      -12.704211
    8      -12.623410
    9      -10.929739
   10      -10.926015
   11      -10.864053
   12      -10.861697
   13      -10.859266
   14      -10.858295
   15      -10.793978
   16      -10.790151
   17       -7.220444
   18       -7.213128
   19       -7.177630
   20       -7.173817
   21       -7.169150
   22       -7.167395
   23       -7.129724
   24       -7.122607
   25       -5.436213
   26       -5.395995
   27       -5.395747
   28       -5.354727
   29       -3.843701
   30       -3.831806
   31       -3.817626
   32       -3.816356
   33       -3.805342
   34       -3.804545
   35       -3.789388
   36       -3.777335
   37       -3.289886
   38       -2.639078
   39       -2.637160
   40       -1.868377
   41       -1.565719
   42       -1.552360
   43       -1.548132
   44       -1.534948
   45       -1.109087
   46       -1.090625
   47       -1.089106
   48       -1.070571
   49       -1.000351
   50       -0.421807
   51       -0.419541
   52        0.050910
   53        0.061292
   54        0.066282
   55        0.075611
   56        0.247705
   57        1.074140
   58        1.078432
   59        1.544362
   60        1.545355
   61        1.550079
   62        1.551502
   63        2.055188
   64        2.062466
   65        6.472326
   66        6.474705
   67        6.713836
   68        6.719075
   69        6.720212
   70        6.720747
   71        7.018900
   72        7.021509
   73        8.822747
   74        8.910853
   75        9.104577
   76        9.106386
   77        9.470077
   78       11.056556
   79       11.059380
   80       11.306637
   81       11.829132
   82       11.889767
   83       11.892831
   84       12.096760
 
  0.5000000E+00  0.0000000E+00  0.0000000E+00  0.6944444E-02
    1      -13.912009
    2      -13.909308
    3      -13.828879
    4      -13.824657
    5      -13.824627
    6      -13.823509
    7      -13.738079
    8      -13.735390
    9      -11.077529
   10      -11.075854
   11      -11.010964
   12      -11.007742
   13      -11.007603
   14      -11.007507
   15      -10.938933
   16      -10.937280
   17       -6.321333
   18       -6.318761
   19       -6.299972
   20       -6.296192
   21       -6.294270
   22       -6.294264
   23       -6.273683
   24       -6.272145
   25       -4.736573
   26       -4.735603
   27       -4.720819
   28       -4.720362
   29       -4.720346
   30       -4.718201
   31       -4.701876
   32       -4.700162
   33       -3.221523
   34       -3.219021
   35       -3.193037
   36       -3.190920
   37       -3.190907
   38       -3.187236
   39       -3.161866
   40       -3.158361
   41       -2.315388
   42       -2.313238
   43       -1.691536
   44       -1.687758
   45       -1.687424
   46       -1.686252
   47       -0.955746
   48       -0.953307
   49       -0.836686
   50       -0.828108
   51       -0.821644
   52       -0.814605
   53       -0.814401
   54       -0.814391
   55       -0.803642
   56       -0.800810
   57        0.961941
   58        0.963763
   59        1.460701
   60        1.462761
   61        1.463314
   62        1.465448
   63        2.020830
   64        2.023092
   65        6.807125
   66        6.809649
   67        7.016926
   68        7.022028
   69        7.023395
   70        7.023730
   71        7.235061
   72        7.237686
   73        9.930244
   74        9.931058
   75       11.232158
   76       11.235269
   77       11.338812
   78       11.344012
   79       11.346171
   80       11.352437
   81       11.673017
   82       11.675804
   83       11.965666
   84       11.970604
 
  0.0000000E+00  0.1666667E+00  0.0000000E+00  0.1388889E-01
    1      -15.221159
    2      -15.129112
    3      -15.127468
    4      -15.031211
    5      -11.377345
    6      -11.308473
    7      -11.306801
    8      -11.235577
    9      -10.509967
   10      -10.502307
   11      -10.450292
   12      -10.448252
   13      -10.441653
   14      -10.440435
   15      -10.386936
   16      -10.378845
   17       -8.392686
   18       -8.387288
   19       -8.346142
   20       -8.341766
   21       -8.338792
   22       -8.337627
   23       -8.292735
   24       -8.287126
   25       -7.548503
   26       -7.499832
   27       -7.498195
   28       -7.447967
   29       -3.885925
   30       -3.221234
   31       -3.219378
   32       -2.691419
   33       -2.676086
   34       -2.672898
   35       -2.669154
   36       -2.656074
   37       -2.655596
   38       -2.650650
   39       -2.635557
   40       -2.431664
   41       -2.037585
   42       -2.022768
   43       -2.021168
   44       -2.006208
   45        0.520306
   46        0.538569
   47        0.547304
   48        0.548564
   49        0.557373
   50        0.851440
   51        0.858592
   52        0.860141
   53        0.867207
   54        1.002669
   55        1.004425
   56        1.356152
   57        1.362399
   58        1.523827
   59        1.731673
   60        1.732876
   61        1.739877
   62        1.742992
   63        2.089784
   64        2.102608
   65        5.929142
   66        5.932394
   67        6.141383
   68        6.145606
   69        6.147054
   70        6.148750
   71        6.523526
   72        6.528327
   73        6.660829
   74        6.964704
   75        6.966793
   76        7.396470
   77        8.296187
   78       10.503777
   79       10.506832
   80       11.547967
   81       11.669464
   82       11.671274
   83       11.789388
   84       12.196049
 
  0.1666667E+00  0.1666667E+00  0.0000000E+00  0.1388889E-01
    1      -14.891360
    2      -14.801246
    3      -14.799622
    4      -14.705505
    5      -11.997416
    6      -11.994556
    7      -11.925662
    8      -11.921232
    9      -11.921212
   10      -11.920002
   11      -11.846989
   12      -11.844164
   13       -9.669464
   14       -9.634842
   15       -9.634436
   16       -9.603681
   17       -8.624568
   18       -8.606439
   19       -8.602138
   20       -8.577641
   21       -6.441545
   22       -6.438310
   23       -6.399276
   24       -6.395082
   25       -6.395063
   26       -6.392753
   27       -6.352141
   28       -6.348775
   29       -4.017643
   30       -3.989602
   31       -3.989291
   32       -3.960608
   33       -3.487495
   34       -2.831877
   35       -2.829975
   36       -2.363973
   37       -2.360663
   38       -2.346739
   39       -2.341571
   40       -2.341566
   41       -2.341476
   42       -2.324411
   43       -2.322066
   44       -2.054640
   45       -0.497785
   46       -0.489001
   47       -0.486927
   48       -0.477498
   49       -0.110207
   50       -0.107900
   51        0.172111
   52        0.180361
   53        0.184738
   54        0.189899
   55        0.426437
   56        0.429989
   57        0.430364
   58        0.431572
   59        1.036902
   60        1.039268
   61        2.159807
   62        2.436302
   63        2.437855
   64        2.644078
   65        5.603646
   66        5.646950
   67        5.652177
   68        5.863767
   69        7.622573
   70        7.624997
   71        7.915461
   72        7.918387
   73        7.918953
   74        7.920892
   75        8.286325
   76        8.288586
   77        8.707364
   78       10.879542
   79       10.882461
   80       12.237761
   81       12.240562
   82       12.428815
   83       12.437717
   84       12.478592
 
  0.3333333E+00  0.1666667E+00  0.0000000E+00  0.1388889E-01
    1      -14.235866
    2      -14.149591
    3      -14.147990
    4      -14.058095
    5      -13.265162
    6      -13.184582
    7      -13.182992
    8      -13.099246
    9      -12.311941
   10      -12.237110
   11      -12.235401
   12      -12.157710
   13       -9.643997
   14       -9.589162
   15       -9.587943
   16       -9.532206
   17       -7.756523
   18       -7.721380
   19       -7.717461
   20       -7.681208
   21       -5.451881
   22       -5.423871
   23       -5.423444
   24       -5.393661
   25       -5.287842
   26       -5.257819
   27       -5.254810
   28       -5.224643
   29       -4.302981
   30       -4.270128
   31       -4.269897
   32       -4.236381
   33       -3.261650
   34       -3.240584
   35       -3.240501
   36       -3.218458
   37       -2.700498
   38       -2.220297
   39       -2.201217
   40       -2.199272
   41       -2.179091
   42       -2.063871
   43       -2.061767
   44       -1.726652
   45       -1.711164
   46       -1.707154
   47       -1.691484
   48       -1.552629
   49       -1.314209
   50       -0.951055
   51       -0.948983
   52       -0.830880
   53       -0.819372
   54       -0.814131
   55       -0.803591
   56       -0.440789
   57       -0.249008
   58        0.121776
   59        0.123256
   60        0.768884
   61        2.471782
   62        2.845931
   63        2.847240
   64        3.209059
   65        5.336910
   66        5.500945
   67        5.505673
   68        5.726083
   69        8.416636
   70        8.631214
   71        8.634666
   72        8.862350
   73        9.528644
   74        9.908073
   75       10.125302
   76       10.127472
   77       10.399260
   78       10.747453
   79       11.599307
   80       11.602895
   81       11.963782
   82       12.144433
   83       12.303181
   84       12.307008
 
  0.5000000E+00  0.1666667E+00  0.0000000E+00  0.1388889E-01
    1      -14.237022
    2      -14.150761
    3      -14.149122
    4      -14.059242
    5      -13.263532
    6      -13.182927
    7      -13.181392
    8      -13.097626
    9      -12.313136
   10      -12.238322
   11      -12.236580
   12      -12.158906
   13       -9.640720
   14       -9.585827
   15       -9.584300
   16       -9.528474
   17       -7.753758
   18       -7.717821
   19       -7.715371
   20       -7.678342
   21       -5.458566
   22       -5.430956
   23       -5.430043
   24       -5.400671
   25       -5.295638
   26       -5.265893
   27       -5.261742
   28       -5.231877
   29       -4.307477
   30       -4.274869
   31       -4.274054
   32       -4.240811
   33       -3.252256
   34       -3.231615
   35       -3.230273
   36       -3.208633
   37       -2.701917
   38       -2.216102
   39       -2.196312
   40       -2.196062
   41       -2.175296
   42       -2.065224
   43       -2.063210
   44       -1.722328
   45       -1.707011
   46       -1.702366
   47       -1.687029
   48       -1.550715
   49       -1.315647
   50       -0.949221
   51       -0.947008
   52       -0.834694
   53       -0.823497
   54       -0.819780
   55       -0.808659
   56       -0.442339
   57       -0.247115
   58        0.120115
   59        0.121465
   60        0.766882
   61        2.474443
   62        2.850845
   63        2.852133
   64        3.217775
   65        5.331908
   66        5.499461
   67        5.502587
   68        5.724378
   69        8.414077
   70        8.628694
   71        8.632822
   72        8.861396
   73        9.526877
   74        9.907229
   75       10.123305
   76       10.125354
   77       10.396193
   78       10.749915
   79       11.597857
   80       11.601386
   81       11.962454
   82       12.143382
   83       12.303002
   84       12.306812
 
 -0.3333333E+00  0.1666667E+00  0.0000000E+00  0.1388889E-01
    1      -14.892050
    2      -14.801944
    3      -14.800296
    4      -14.706187
    5      -11.999566
    6      -11.993795
    7      -11.926547
    8      -11.924810
    9      -11.920691
   10      -11.919140
   11      -11.849317
   12      -11.843519
   13       -9.657145
   14       -9.622340
   15       -9.620758
   16       -9.589837
   17       -8.628162
   18       -8.608576
   19       -8.606855
   20       -8.580712
   21       -6.448519
   22       -6.443164
   23       -6.405871
   24       -6.402458
   25       -6.399049
   26       -6.398836
   27       -6.359119
   28       -6.354010
   29       -4.028768
   30       -4.001392
   31       -3.999781
   32       -3.971809
   33       -3.488362
   34       -2.832724
   35       -2.830874
   36       -2.360052
   37       -2.347336
   38       -2.342741
   39       -2.338612
   40       -2.328588
   41       -2.327763
   42       -2.321112
   43       -2.308686
   44       -2.055526
   45       -0.497645
   46       -0.488963
   47       -0.487171
   48       -0.478627
   49       -0.113406
   50       -0.107034
   51        0.174886
   52        0.180550
   53        0.182233
   54        0.188464
   55        0.424051
   56        0.425267
   57        0.430268
   58        0.432818
   59        1.032307
   60        1.039801
   61        2.165899
   62        2.447103
   63        2.448995
   64        2.661469
   65        5.594633
   66        5.644457
   67        5.646521
   68        5.862278
   69        7.620108
   70        7.622818
   71        7.911563
   72        7.915659
   73        7.916043
   74        7.917574
   75        8.283574
   76        8.284798
   77        8.706267
   78       10.878272
   79       10.881185
   80       12.240584
   81       12.247431
   82       12.429988
   83       12.461931
   84       12.479223
 
 -0.1666667E+00  0.1666667E+00  0.0000000E+00  0.1388889E-01
    1      -15.221387
    2      -15.129343
    3      -15.127692
    4      -15.031437
    5      -11.383643
    6      -11.314823
    7      -11.313153
    8      -11.241982
    9      -10.501052
   10      -10.499103
   11      -10.441880
   12      -10.438171
   13      -10.438143
   14      -10.437938
   15      -10.377670
   16      -10.375697
   17       -8.391731
   18       -8.390053
   19       -8.344093
   20       -8.341712
   21       -8.341696
   22       -8.340669
   23       -8.291815
   24       -8.290070
   25       -7.553766
   26       -7.505921
   27       -7.502720
   28       -7.453217
   29       -3.886217
   30       -3.221519
   31       -3.219680
   32       -2.691181
   33       -2.688514
   34       -2.673023
   35       -2.668783
   36       -2.668160
   37       -2.668154
   38       -2.650148
   39       -2.648303
   40       -2.431962
   41       -2.023363
   42       -2.008015
   43       -2.007312
   44       -1.991752
   45        0.512834
   46        0.532227
   47        0.541019
   48        0.545866
   49        0.553488
   50        0.855320
   51        0.862639
   52        0.864863
   53        0.873546
   54        0.994537
   55        0.995730
   56        1.363388
   57        1.365388
   58        1.513445
   59        1.739338
   60        1.743820
   61        1.744305
   62        1.744790
   63        2.102794
   64        2.105208
   65        5.926440
   66        5.929160
   67        6.141679
   68        6.143698
   69        6.144006
   70        6.147406
   71        6.523634
   72        6.526094
   73        6.661275
   74        6.961371
   75        6.966008
   76        7.393729
   77        8.295812
   78       10.503334
   79       10.506387
   80       11.579636
   81       11.701734
   82       11.702541
   83       11.820828
   84       12.192525
 
  0.0000000E+00  0.3333333E+00  0.0000000E+00  0.1388889E-01
    1      -14.727290
    2      -14.638144
    3      -14.636499
    4      -14.543420
    5      -12.783676
    6      -12.705865
    7      -12.704211
    8      -12.623461
    9      -10.930015
   10      -10.925782
   11      -10.864741
   12      -10.861697
   13      -10.858535
   14      -10.858275
   15      -10.794158
   16      -10.789873
   17       -7.220565
   18       -7.212043
   19       -7.177883
   20       -7.173815
   21       -7.167393
   22       -7.166536
   23       -7.129660
   24       -7.121282
   25       -5.437130
   26       -5.397651
   27       -5.395984
   28       -5.355703
   29       -3.845053
   30       -3.832053
   31       -3.819973
   32       -3.816362
   33       -3.805345
   34       -3.805050
   35       -3.790476
   36       -3.777626
   37       -3.289842
   38       -2.638987
   39       -2.637148
   40       -1.868313
   41       -1.563917
   42       -1.549794
   43       -1.548128
   44       -1.533906
   45       -1.110612
   46       -1.092542
   47       -1.090630
   48       -1.072550
   49       -1.000126
   50       -0.421257
   51       -0.419480
   52        0.054130
   53        0.064643
   54        0.066288
   55        0.076877
   56        0.248084
   57        1.073648
   58        1.078049
   59        1.543175
   60        1.545343
   61        1.549655
   62        1.551121
   63        2.054816
   64        2.061654
   65        6.472764
   66        6.476205
   67        6.714487
   68        6.720038
   69        6.720355
   70        6.723043
   71        7.019266
   72        7.023311
   73        8.821651
   74        8.910869
   75        9.103399
   76        9.105656
   77        9.469138
   78       11.056671
   79       11.059490
   80       11.306716
   81       11.829803
   82       11.891086
   83       11.892862
   84       12.097371
 
  0.1666667E+00  0.3333333E+00  0.0000000E+00  0.1388889E-01
    1      -14.235873
    2      -14.149605
    3      -14.147990
    4      -14.058102
    5      -13.265219
    6      -13.184694
    7      -13.182992
    8      -13.099301
    9      -12.311885
   10      -12.236999
   11      -12.235401
   12      -12.157655
   13       -9.644042
   14       -9.589257
   15       -9.587945
   16       -9.532259
   17       -7.756109
   18       -7.720623
   19       -7.717456
   20       -7.680845
   21       -5.452234
   22       -5.424199
   23       -5.423869
   24       -5.394061
   25       -5.286473
   26       -5.255165
   27       -5.254797
   28       -5.223341
   29       -4.304223
   30       -4.272435
   31       -4.270124
   32       -4.237672
   33       -3.263308
   34       -3.243706
   35       -3.240519
   36       -3.219960
   37       -2.700459
   38       -2.221058
   39       -2.201275
   40       -2.201111
   41       -2.180321
   42       -2.063791
   43       -2.061765
   44       -1.724696
   45       -1.707965
   46       -1.707148
   47       -1.690083
   48       -1.552429
   49       -1.314156
   50       -0.950649
   51       -0.948932
   52       -0.828893
   53       -0.817668
   54       -0.814129
   55       -0.802977
   56       -0.441087
   57       -0.248725
   58        0.121176
   59        0.123157
   60        0.768458
   61        2.471355
   62        2.845538
   63        2.846737
   64        3.208636
   65        5.337285
   66        5.502238
   67        5.505700
   68        5.726976
   69        8.417745
   70        8.633268
   71        8.634824
   72        8.863490
   73        9.528642
   74        9.907052
   75       10.123817
   76       10.127116
   77       10.398305
   78       10.747489
   79       11.599472
   80       11.603050
   81       11.963753
   82       12.144121
   83       12.302734
   84       12.306624
 
  0.3333333E+00  0.3333333E+00  0.0000000E+00  0.1388889E-01
    1      -13.429177
    2      -13.426565
    3      -13.424108
    4      -13.349343
    5      -13.344783
    6      -13.344342
    7      -13.344309
    8      -13.341619
    9      -13.340992
   10      -13.261036
   11      -13.258578
   12      -13.256043
   13       -8.426184
   14       -8.373905
   15       -8.373458
   16       -8.366852
   17       -8.364115
   18       -8.359921
   19       -8.357051
   20       -8.307677
   21       -6.322802
   22       -6.321203
   23       -6.320909
   24       -6.319236
   25       -3.552275
   26       -3.550117
   27       -3.546078
   28       -3.536456
   29       -3.535263
   30       -3.533948
   31       -3.529349
   32       -3.529330
   33       -3.528356
   34       -3.518504
   35       -3.515503
   36       -3.512133
   37       -2.196496
   38       -2.190896
   39       -2.189464
   40       -2.184061
   41       -2.180261
   42       -2.180251
   43       -2.179322
   44       -2.176008
   45       -2.175184
   46       -2.169238
   47       -2.165223
   48       -2.162590
   49       -1.740717
   50       -1.738627
   51       -1.735867
   52       -1.133427
   53       -1.129764
   54       -1.129205
   55       -1.128609
   56       -1.126284
   57       -1.124866
   58       -0.419994
   59       -0.417632
   60       -0.414834
   61        3.748073
   62        4.191054
   63        4.196442
   64        4.198414
   65        4.200114
   66        4.212754
   67        4.215275
   68        4.706954
   69       10.410858
   70       10.414515
   71       10.416632
   72       10.539227
   73       10.551376
   74       10.554177
   75       10.576553
   76       10.577273
   77       10.577634
   78       10.579476
   79       10.579574
   80       10.591512
   81       10.744881
   82       10.748306
   83       10.751342
   84       12.520384
 
  0.5000000E+00  0.3333333E+00  0.0000000E+00  0.1388889E-01
    1      -14.237715
    2      -14.151483
    3      -14.149802
    4      -14.059933
    5      -13.267066
    6      -13.186526
    7      -13.184804
    8      -13.101129
    9      -12.308153
   10      -12.233240
   11      -12.231707
   12      -12.153934
   13       -9.633401
   14       -9.578627
   15       -9.576909
   16       -9.521250
   17       -7.762322
   18       -7.725959
   19       -7.724999
   20       -7.687584
   21       -5.456784
   22       -5.429936
   23       -5.427600
   24       -5.399172
   25       -5.294471
   26       -5.263532
   27       -5.262607
   28       -5.231509
   29       -4.313873
   30       -4.282721
   31       -4.278625
   32       -4.246906
   33       -3.257638
   34       -3.238542
   35       -3.233954
   36       -3.214073
   37       -2.702766
   38       -2.224868
   39       -2.206339
   40       -2.202862
   41       -2.183379
   42       -2.066075
   43       -2.064203
   44       -1.712293
   45       -1.695613
   46       -1.694237
   47       -1.677279
   48       -1.554823
   49       -1.316537
   50       -0.953050
   51       -0.951537
   52       -0.824834
   53       -0.812251
   54       -0.811796
   55       -0.799011
   56       -0.436860
   57       -0.251440
   58        0.125197
   59        0.127561
   60        0.772660
   61        2.480021
   62        2.855202
   63        2.857837
   64        3.221351
   65        5.333411
   66        5.496081
   67        5.497282
   68        5.714901
   69        8.416942
   70        8.629760
   71        8.631010
   72        8.856814
   73        9.525947
   74        9.902243
   75       10.118650
   76       10.122834
   77       10.395447
   78       10.745250
   79       11.595639
   80       11.599305
   81       11.969143
   82       12.139959
   83       12.302555
   84       12.307145
 
 -0.3333333E+00  0.3333333E+00  0.0000000E+00  0.1388889E-01
    1      -14.728205
    2      -14.639073
    3      -14.637395
    4      -14.544331
    5      -12.787399
    6      -12.709627
    7      -12.707896
    8      -12.627439
    9      -10.922424
   10      -10.920713
   11      -10.857019
   12      -10.853744
   13      -10.853702
   14      -10.853554
   15      -10.786574
   16      -10.784864
   17       -7.220509
   18       -7.218794
   19       -7.177014
   20       -7.174712
   21       -7.174704
   22       -7.173440
   23       -7.130213
   24       -7.128346
   25       -5.444987
   26       -5.406259
   27       -5.402786
   28       -5.363207
   29       -3.842256
   30       -3.840098
   31       -3.817668
   32       -3.814065
   33       -3.812868
   34       -3.812863
   35       -3.787603
   36       -3.786010
   37       -3.291010
   38       -2.640133
   39       -2.638365
   40       -1.869523
   41       -1.551002
   42       -1.536375
   43       -1.535468
   44       -1.520697
   45       -1.118768
   46       -1.101496
   47       -1.096405
   48       -1.079464
   49       -1.004863
   50       -0.426042
   51       -0.424656
   52        0.061656
   53        0.072372
   54        0.074304
   55        0.085494
   56        0.242656
   57        1.081286
   58        1.083235
   59        1.550462
   60        1.554722
   61        1.555240
   62        1.555776
   63        2.064271
   64        2.066579
   65        6.471404
   66        6.473859
   67        6.713378
   68        6.715352
   69        6.715609
   70        6.718853
   71        7.013779
   72        7.016301
   73        8.817450
   74        8.909501
   75        9.098122
   76        9.101887
   77        9.465843
   78       11.055068
   79       11.057896
   80       11.304425
   81       11.858825
   82       11.919670
   83       11.920441
   84       12.124490
 
 -0.1666667E+00  0.3333333E+00  0.0000000E+00  0.1388889E-01
    1      -14.892060
    2      -14.801964
    3      -14.800297
    4      -14.706197
    5      -11.999941
    6      -11.993557
    7      -11.927631
    8      -11.924812
    9      -11.919610
   10      -11.919127
   11      -11.849551
   12      -11.843155
   13       -9.657862
   14       -9.623714
   15       -9.620769
   16       -9.590496
   17       -8.626791
   18       -8.606842
   19       -8.605561
   20       -8.579113
   21       -6.449110
   22       -6.443564
   23       -6.407095
   24       -6.402457
   25       -6.399086
   26       -6.398986
   27       -6.359371
   28       -6.354255
   29       -4.029913
   30       -4.003414
   31       -3.999786
   32       -3.972727
   33       -3.488331
   34       -2.832661
   35       -2.830865
   36       -2.358864
   37       -2.347707
   38       -2.340731
   39       -2.338609
   40       -2.328589
   41       -2.327835
   42       -2.319950
   43       -2.308548
   44       -2.055482
   45       -0.501733
   46       -0.492274
   47       -0.487180
   48       -0.479842
   49       -0.113636