       N       E                     dE             d eps       ncg     rms          rms(c)
DAV:   1     0.617005456176E+03    0.61701E+03   -0.71094E+04 12768   0.159E+03
DAV:   2    -0.260300593491E+03   -0.87731E+03   -0.84578E+03 15864   0.313E+02
DAV:   3    -0.313113449051E+03   -0.52813E+02   -0.52320E+02 15432   0.774E+01
DAV:   4    -0.314161638149E+03   -0.10482E+01   -0.10466E+01 16452   0.118E+01
DAV:   5    -0.314192177542E+03   -0.30539E-01   -0.30528E-01 16584   0.187E+00    0.221E+01
DAV:   6    -0.299522815892E+03    0.14669E+02   -0.15065E+01 14580   0.107E+01    0.116E+01
DAV:   7    -0.294821680668E+03    0.47011E+01   -0.16471E+01 14484   0.111E+01    0.203E+00
DAV:   8    -0.294861691213E+03   -0.40011E-01   -0.60271E-01 15252   0.211E+00    0.111E+00
DAV:   9    -0.294873825545E+03   -0.12134E-01   -0.71824E-02 14484   0.868E-01    0.301E-01
DAV:  10    -0.294875775701E+03   -0.19502E-02   -0.52087E-02 15432   0.377E-01    0.367E-01
DAV:  11    -0.294874782851E+03    0.99285E-03   -0.16913E-02 14712   0.218E-01    0.185E-01
DAV:  12    -0.294879274434E+03   -0.44916E-02   -0.70892E-02 17652   0.390E-01    0.335E-01
DAV:  13    -0.294876509760E+03    0.27647E-02   -0.22356E-03 14808   0.184E-01    0.275E-01
DAV:  14    -0.294876745708E+03   -0.23595E-03   -0.39215E-02 22548   0.272E-01    0.276E-01
DAV:  15    -0.294875512937E+03    0.12328E-02   -0.30058E-03 14892   0.130E-01    0.133E-01
DAV:  16    -0.294875564151E+03   -0.51214E-04   -0.22385E-04 15072   0.415E-02    0.152E-01
DAV:  17    -0.294875411930E+03    0.15222E-03   -0.12541E-03 20772   0.386E-02    0.394E-02
DAV:  18    -0.294875423293E+03   -0.11362E-04   -0.18172E-04 16416   0.204E-02    0.347E-02
DAV:  19    -0.294875428510E+03   -0.52177E-05   -0.37286E-04 15768   0.220E-02    0.448E-02
DAV:  20    -0.294875429570E+03   -0.10593E-05   -0.21855E-05 15540   0.742E-03    0.491E-02
DAV:  21    -0.294875418340E+03    0.11230E-04   -0.33129E-04 23856   0.197E-02    0.236E-02
DAV:  22    -0.294875415281E+03    0.30586E-05   -0.10525E-04 15504   0.119E-02    0.166E-02
DAV:  23    -0.294875414480E+03    0.80097E-06   -0.37501E-05 15408   0.742E-03    0.758E-03
DAV:  24    -0.294875413675E+03    0.80476E-06   -0.89644E-06 15240   0.410E-03    0.519E-03
DAV:  25    -0.294875415457E+03   -0.17811E-05   -0.18118E-05 16536   0.475E-03    0.119E-02
DAV:  26    -0.294875414340E+03    0.11160E-05   -0.26114E-06 14556   0.227E-03    0.623E-03
DAV:  27    -0.294875414255E+03    0.85573E-07   -0.21371E-07 12168   0.786E-04    0.548E-03
DAV:  28    -0.294875413815E+03    0.44026E-06   -0.90902E-07  9276   0.108E-03    0.180E-03
DAV:  29    -0.294875413788E+03    0.26508E-07   -0.14780E-07 10560   0.654E-04    0.391E-04
DAV:  30    -0.294875413717E+03    0.71244E-07   -0.17119E-08  8916   0.323E-04    0.122E-04
DAV:  31    -0.294875413769E+03   -0.51597E-07   -0.19773E-09  8832   0.125E-04    0.152E-04
DAV:  32    -0.294875413728E+03    0.40694E-07   -0.11454E-08  8748   0.149E-04    0.377E-04
DAV:  33    -0.294875413743E+03   -0.14946E-07   -0.14262E-09  8616   0.864E-05    0.503E-04
DAV:  34    -0.294875413757E+03   -0.14146E-07   -0.31672E-09  8580   0.692E-05    0.287E-04
DAV:  35    -0.294875413764E+03   -0.75061E-08   -0.20473E-09  8568   0.568E-05
   1 F= -.29955278E+03 E0= -.29955278E+03  d E =0.000000E+00
