  32  32   0   0
  0.8880211E+01  0.4932875E-09  0.4932875E-09  0.1349080E-08  0.5000000E-15
  1.000000000000000E-004
  CAR 
 graphite                                
     15.54034190    -16.99610748  301      4.62445316      1.00000000
    -16.996  0.0000E+00  0.0000E+00
    -16.888  0.0000E+00  0.0000E+00
    -16.779  0.0000E+00  0.0000E+00
    -16.671  0.0000E+00  0.0000E+00
    -16.562  0.0000E+00  0.0000E+00
    -16.454  0.0000E+00  0.0000E+00
    -16.345  0.0000E+00  0.0000E+00
    -16.237  0.0000E+00  0.0000E+00
    -16.128  0.0000E+00  0.0000E+00
    -16.020  0.0000E+00  0.0000E+00
    -15.912  0.0000E+00  0.0000E+00
    -15.803  0.0000E+00  0.0000E+00
    -15.695  0.0000E+00  0.0000E+00
    -15.586  0.0000E+00  0.0000E+00
    -15.478  0.0000E+00  0.0000E+00
    -15.369  0.0000E+00  0.0000E+00
    -15.261  0.0000E+00  0.0000E+00
    -15.152  0.0000E+00  0.0000E+00
    -15.044  0.0000E+00  0.0000E+00
    -14.935  0.5834E+00  0.1367E-01
    -14.827  0.2749E+01  0.1915E+00
    -14.719  0.3517E+01  0.5110E+00
    -14.610  0.5063E+01  0.9875E+00
    -14.502  0.4853E+01  0.1526E+01
    -14.393  0.5035E+01  0.2066E+01
    -14.285  0.4991E+01  0.2610E+01
    -14.176  0.4869E+01  0.3146E+01
    -14.068  0.4855E+01  0.3671E+01
    -13.959  0.5104E+01  0.4211E+01
    -13.851  0.5357E+01  0.4778E+01
    -13.742  0.7279E+01  0.5495E+01
    -13.634  0.7495E+01  0.6299E+01
    -13.526  0.5897E+01  0.7114E+01
    -13.417  0.2375E+01  0.7520E+01
    -13.309  0.1854E+01  0.7741E+01
    -13.200  0.2090E+01  0.7949E+01
    -13.092  0.2484E+01  0.8197E+01
    -12.983  0.3064E+01  0.8491E+01
    -12.875  0.1294E+02  0.9184E+01
    -12.766  0.8374E+01  0.1013E+02
    -12.658  0.6826E+01  0.1100E+02
    -12.549  0.4033E+01  0.1150E+02
    -12.441  0.4142E+01  0.1194E+02
    -12.333  0.4263E+01  0.1240E+02
    -12.224  0.4413E+01  0.1287E+02
    -12.116  0.4556E+01  0.1335E+02
    -12.007  0.4685E+01  0.1386E+02
    -11.899  0.5012E+01  0.1437E+02
    -11.790  0.5525E+01  0.1495E+02
    -11.682  0.6416E+01  0.1557E+02
    -11.573  0.6007E+01  0.1625E+02
    -11.465  0.5617E+01  0.1688E+02
    -11.356  0.5493E+01  0.1748E+02
    -11.248  0.5659E+01  0.1809E+02
    -11.140  0.5824E+01  0.1871E+02
    -11.031  0.5990E+01  0.1935E+02
    -10.923  0.5764E+01  0.1999E+02
    -10.814  0.5580E+01  0.2061E+02
    -10.706  0.5454E+01  0.2120E+02
    -10.597  0.4938E+01  0.2178E+02
    -10.489  0.3865E+01  0.2225E+02
    -10.380  0.4589E+01  0.2270E+02
    -10.272  0.4996E+01  0.2322E+02
    -10.163  0.5181E+01  0.2378E+02
    -10.055  0.6535E+01  0.2438E+02
     -9.947  0.9361E+01  0.2521E+02
     -9.838  0.1027E+02  0.2638E+02
     -9.730  0.7946E+01  0.2736E+02
     -9.621  0.5687E+01  0.2810E+02
     -9.513  0.4638E+01  0.2864E+02
     -9.404  0.4161E+01  0.2912E+02
     -9.296  0.3684E+01  0.2955E+02
     -9.187  0.6009E+01  0.3016E+02
     -9.079  0.4896E+01  0.3077E+02
     -8.970  0.1919E+01  0.3103E+02
     -8.862  0.1713E+01  0.3122E+02
     -8.754  0.1508E+01  0.3140E+02
     -8.645  0.1302E+01  0.3155E+02
     -8.537  0.1367E+01  0.3169E+02
     -8.428  0.1862E+01  0.3186E+02
     -8.320  0.2361E+01  0.3209E+02
     -8.211  0.2861E+01  0.3238E+02
     -8.103  0.5992E+01  0.3281E+02
     -7.994  0.1113E+02  0.3374E+02
     -7.886  0.5074E+01  0.3456E+02
     -7.777  0.5264E+01  0.3510E+02
     -7.669  0.6431E+01  0.3574E+02
     -7.561  0.7598E+01  0.3650E+02
     -7.452  0.8765E+01  0.3739E+02
     -7.344  0.9916E+01  0.3840E+02
     -7.235  0.6559E+01  0.3927E+02
     -7.127  0.5580E+01  0.3989E+02
     -7.018  0.5579E+01  0.4049E+02
     -6.910  0.5529E+01  0.4110E+02
     -6.801  0.5376E+01  0.4169E+02
     -6.693  0.5191E+01  0.4226E+02
     -6.584  0.5064E+01  0.4282E+02
     -6.476  0.4945E+01  0.4336E+02
     -6.368  0.4827E+01  0.4389E+02
     -6.259  0.4708E+01  0.4441E+02
     -6.151  0.4590E+01  0.4491E+02
     -6.042  0.4471E+01  0.4540E+02
     -5.934  0.4358E+01  0.4588E+02
     -5.825  0.4774E+01  0.4637E+02
     -5.717  0.5365E+01  0.4692E+02
     -5.608  0.5956E+01  0.4753E+02
     -5.500  0.6547E+01  0.4821E+02
     -5.391  0.7138E+01  0.4895E+02
     -5.283  0.7729E+01  0.4976E+02
     -5.175  0.8320E+01  0.5063E+02
     -5.066  0.8912E+01  0.5156E+02
     -4.958  0.5057E+01  0.5235E+02
     -4.849  0.5588E+01  0.5283E+02
     -4.741  0.7070E+01  0.5356E+02
     -4.632  0.5602E+01  0.5424E+02
     -4.524  0.4135E+01  0.5477E+02
     -4.415  0.2667E+01  0.5514E+02
     -4.307  0.1200E+01  0.5535E+02
     -4.198  0.1975E+01  0.5550E+02
     -4.090  0.3475E+01  0.5579E+02
     -3.982  0.4976E+01  0.5625E+02
     -3.873  0.7626E+01  0.5689E+02
     -3.765  0.1177E+02  0.5795E+02
     -3.656  0.1155E+02  0.5921E+02
     -3.548  0.1272E+02  0.6063E+02
     -3.439  0.7903E+01  0.6179E+02
     -3.331  0.4588E+01  0.6236E+02
     -3.222  0.5974E+01  0.6294E+02
     -3.114  0.6823E+01  0.6363E+02
     -3.005  0.1061E+02  0.6452E+02
     -2.897  0.1627E+02  0.6598E+02
     -2.789  0.1935E+02  0.6817E+02
     -2.680  0.6817E+01  0.6930E+02
     -2.572  0.7055E+01  0.7005E+02
     -2.463  0.7366E+01  0.7083E+02
     -2.355  0.8208E+01  0.7167E+02
     -2.246  0.1025E+02  0.7267E+02
     -2.138  0.1563E+02  0.7424E+02
     -2.029  0.1219E+02  0.7575E+02
     -1.921  0.1008E+02  0.7694E+02
     -1.812  0.2048E+02  0.7848E+02
     -1.704  0.1464E+02  0.8154E+02
     -1.596  0.1954E+02  0.8355E+02
     -1.487  0.1380E+02  0.8519E+02
     -1.379  0.1562E+02  0.8675E+02
     -1.270  0.1411E+02  0.8860E+02
     -1.162  0.8272E+01  0.8975E+02
     -1.053  0.6465E+01  0.9049E+02
     -0.945  0.7552E+01  0.9125E+02
     -0.836  0.8373E+01  0.9211E+02
     -0.728  0.9543E+01  0.9308E+02
     -0.619  0.1111E+02  0.9421E+02
     -0.511  0.1078E+02  0.9539E+02
     -0.403  0.1170E+02  0.9658E+02
     -0.294  0.1154E+02  0.9834E+02
     -0.186  0.1275E+02  0.9967E+02
     -0.077  0.1135E+02  0.1009E+03
      0.031  0.9536E+01  0.1021E+03
      0.140  0.9946E+01  0.1032E+03
      0.248  0.9728E+01  0.1042E+03
      0.357  0.9676E+01  0.1053E+03
      0.465  0.9611E+01  0.1063E+03
      0.574  0.9640E+01  0.1074E+03
      0.682  0.9371E+01  0.1084E+03
      0.790  0.9195E+01  0.1094E+03
      0.899  0.9153E+01  0.1104E+03
      1.007  0.9771E+01  0.1114E+03
      1.116  0.9549E+01  0.1125E+03
      1.224  0.9756E+01  0.1135E+03
      1.333  0.1066E+02  0.1146E+03
      1.441  0.1040E+02  0.1158E+03
      1.550  0.8664E+01  0.1168E+03
      1.658  0.6604E+01  0.1176E+03
      1.767  0.6364E+01  0.1183E+03
      1.875  0.4995E+01  0.1190E+03
      1.983  0.3338E+01  0.1194E+03
      2.092  0.2890E+01  0.1197E+03
      2.200  0.3318E+01  0.1201E+03
      2.309  0.4687E+01  0.1205E+03
      2.417  0.7089E+01  0.1211E+03
      2.526  0.8532E+01  0.1220E+03
      2.634  0.8859E+01  0.1230E+03
      2.743  0.7788E+01  0.1239E+03
      2.851  0.5941E+01  0.1247E+03
      2.960  0.4615E+01  0.1252E+03
      3.068  0.3753E+01  0.1257E+03
      3.176  0.3270E+01  0.1260E+03
      3.285  0.2911E+01  0.1264E+03
      3.393  0.2539E+01  0.1267E+03
      3.502  0.2207E+01  0.1269E+03
      3.610  0.1913E+01  0.1272E+03
      3.719  0.1629E+01  0.1274E+03
      3.827  0.1359E+01  0.1275E+03
      3.936  0.1130E+01  0.1276E+03
      4.044  0.9024E+00  0.1278E+03
      4.153  0.7026E+00  0.1278E+03
      4.261  0.5207E+00  0.1279E+03
      4.369  0.3511E+00  0.1280E+03
      4.478  0.1927E+00  0.1280E+03
      4.586  0.4410E-01  0.1280E+03
      4.695  0.6205E-01  0.1280E+03
      4.803  0.1829E+00  0.1280E+03
      4.912  0.3149E+00  0.1280E+03
      5.020  0.4604E+00  0.1281E+03
      5.129  0.6204E+00  0.1281E+03
      5.237  0.8022E+00  0.1282E+03
      5.346  0.1022E+01  0.1283E+03
      5.454  0.1265E+01  0.1284E+03
      5.562  0.1509E+01  0.1286E+03
      5.671  0.1753E+01  0.1288E+03
      5.779  0.2737E+01  0.1290E+03
      5.888  0.3431E+01  0.1293E+03
      5.996  0.3836E+01  0.1297E+03
      6.105  0.4794E+01  0.1302E+03
      6.213  0.8832E+01  0.1309E+03
      6.322  0.1415E+02  0.1321E+03
      6.430  0.9021E+01  0.1333E+03
      6.539  0.7238E+01  0.1342E+03
      6.647  0.6169E+01  0.1349E+03
      6.756  0.5577E+01  0.1355E+03
      6.864  0.5289E+01  0.1361E+03
      6.972  0.4918E+01  0.1366E+03
      7.081  0.4093E+01  0.1371E+03
      7.189  0.3702E+01  0.1376E+03
      7.298  0.3675E+01  0.1380E+03
      7.406  0.3936E+01  0.1384E+03
      7.515  0.4378E+01  0.1388E+03
      7.623  0.4753E+01  0.1393E+03
      7.732  0.4896E+01  0.1398E+03
      7.840  0.4715E+01  0.1404E+03
      7.949  0.4552E+01  0.1409E+03
      8.057  0.4379E+01  0.1414E+03
      8.165  0.4243E+01  0.1418E+03
      8.274  0.4148E+01  0.1423E+03
      8.382  0.4078E+01  0.1427E+03
      8.491  0.4019E+01  0.1432E+03
      8.599  0.3968E+01  0.1436E+03
      8.708  0.3930E+01  0.1440E+03
      8.816  0.3640E+01  0.1444E+03
      8.925  0.3442E+01  0.1448E+03
      9.033  0.3555E+01  0.1452E+03
      9.142  0.3751E+01  0.1456E+03
      9.250  0.3722E+01  0.1460E+03
      9.358  0.3676E+01  0.1464E+03
      9.467  0.3705E+01  0.1468E+03
      9.575  0.3761E+01  0.1472E+03
      9.684  0.3793E+01  0.1476E+03
      9.792  0.3783E+01  0.1480E+03
      9.901  0.3769E+01  0.1484E+03
     10.009  0.3756E+01  0.1488E+03
     10.118  0.3769E+01  0.1493E+03
     10.226  0.3777E+01  0.1497E+03
     10.335  0.5323E+01  0.1502E+03
     10.443  0.6002E+01  0.1508E+03
     10.551  0.5928E+01  0.1514E+03
     10.660  0.5676E+01  0.1521E+03
     10.768  0.5416E+01  0.1527E+03
     10.877  0.4438E+01  0.1532E+03
     10.985  0.5593E+01  0.1538E+03
     11.094  0.3143E+01  0.1543E+03
     11.202  0.2449E+01  0.1546E+03
     11.311  0.2699E+01  0.1549E+03
     11.419  0.3038E+01  0.1552E+03
     11.528  0.3369E+01  0.1555E+03
     11.636  0.3413E+01  0.1559E+03
     11.744  0.2721E+01  0.1562E+03
     11.853  0.3656E+01  0.1565E+03
     11.961  0.7060E+01  0.1571E+03
     12.070  0.7356E+01  0.1579E+03
     12.178  0.8703E+01  0.1588E+03
     12.287  0.1154E+02  0.1599E+03
     12.395  0.1320E+02  0.1612E+03
     12.504  0.1325E+02  0.1627E+03
     12.612  0.1363E+02  0.1641E+03
     12.721  0.1197E+02  0.1655E+03
     12.829  0.1149E+02  0.1668E+03
     12.937  0.5226E+01  0.1678E+03
     13.046  0.2087E+00  0.1680E+03
     13.154  0.1272E+00  0.1680E+03
     13.263  0.6577E-01  0.1680E+03
     13.371  0.2441E-01  0.1680E+03
     13.480  0.3140E-02  0.1680E+03
     13.588  0.0000E+00  0.1680E+03
     13.697  0.0000E+00  0.1680E+03
     13.805  0.0000E+00  0.1680E+03
     13.914  0.0000E+00  0.1680E+03
     14.022  0.0000E+00  0.1680E+03
     14.130  0.0000E+00  0.1680E+03
     14.239  0.0000E+00  0.1680E+03
     14.347  0.0000E+00  0.1680E+03
     14.456  0.0000E+00  0.1680E+03
     14.564  0.0000E+00  0.1680E+03
     14.673  0.0000E+00  0.1680E+03
     14.781  0.0000E+00  0.1680E+03
     14.890  0.0000E+00  0.1680E+03
     14.998  0.0000E+00  0.1680E+03
     15.107  0.0000E+00  0.1680E+03
     15.215  0.0000E+00  0.1680E+03
     15.323  0.0000E+00  0.1680E+03
     15.432  0.0000E+00  0.1680E+03
     15.540  0.0000E+00  0.1680E+03
