   32   32    1    1
  0.8880211E+01  0.4932875E-09  0.4932875E-09  0.1349080E-08  0.5000000E-15
  1.000000000000000E-004
  CAR 
 graphite                                
    128     76     84
 
  0.0000000E+00  0.0000000E+00  0.0000000E+00  0.6944444E-02
    1      -14.996107
    2      -14.856976
    3      -14.856431
    4      -14.708027
    5       -9.678030
    6       -9.667710
    7       -9.664786
    8       -9.621093
    9       -9.619520
   10       -9.609308
   11       -9.607877
   12       -9.607867
   13       -9.603898
   14       -9.571969
   15       -9.559178
   16       -9.556637
   17       -8.601719
   18       -8.600476
   19       -8.599350
   20       -8.571314
   21       -8.570604
   22       -8.568418
   23       -8.567924
   24       -8.567914
   25       -8.565443
   26       -8.520532
   27       -8.519648
   28       -8.517213
   29       -3.849546
   30       -2.986366
   31       -2.984611
   32       -1.936701
   33       -1.775637
   34       -1.773375
   35       -1.757762
   36       -1.749829
   37       -1.749031
   38       -1.749026
   39       -1.745042
   40       -1.732302
   41       -1.730302
   42       -1.722949
   43       -1.720153
   44       -1.704844
   45        1.619960
   46        1.627116
   47        1.627617
   48        1.632773
   49        1.638943
   50        1.643809
   51        1.644587
   52        1.651241
   53        1.879945
   54        1.882987
   55        1.885016
   56        2.268101
   57        2.270693
   58        2.277920
   59        2.278265
   60        2.278343
   61        2.282284
   62        2.537076
   63        2.554701
   64        2.556436
   65        6.139740
   66        6.141913
   67        6.147682
   68        6.281895
   69        6.284822
   70        6.286937
   71        6.289240
   72        6.289604
   73        6.293046
   74        6.796543
   75        6.803008
   76        6.806296
   77        8.890588
   78       11.484486
   79       11.487505
   80       11.833396
   81       11.837303
   82       11.869030
   83       12.018257
   84       12.025274
 
  0.1666667E+00  0.1387779E-16  0.0000000E+00  0.1388889E-01
    1      -14.830512
    2      -14.692713
    3      -14.692176
    4      -14.545324
    5      -10.977026
    6      -10.871609
    7      -10.871132
    8      -10.760808
    9      -10.105436
   10      -10.098162
   11      -10.012871
   12      -10.012254
   13      -10.005218
   14      -10.004276
   15       -9.916717
   16       -9.908776
   17       -7.982274
   18       -7.976306
   19       -7.909175
   20       -7.907065
   21       -7.902121
   22       -7.901279
   23       -7.828684
   24       -7.822340
   25       -7.138413
   26       -7.062819
   27       -7.061437
   28       -6.982731
   29       -3.648509
   30       -2.790682
   31       -2.788932
   32       -2.267010
   33       -2.250323
   34       -2.234624
   35       -2.234409
   36       -2.218574
   37       -2.216705
   38       -2.201380
   39       -2.184614
   40       -1.748551
   41       -1.611190
   42       -1.586695
   43       -1.583777
   44       -1.559012
   45        0.797246
   46        0.968891
   47        0.983897
   48        0.987963
   49        1.002428
   50        1.281290
   51        1.292964
   52        1.297551
   53        1.310427
   54        1.430664
   55        1.432876
   56        1.655492
   57        1.660045
   58        2.117747
   59        2.160627
   60        2.163117
   61        2.169250
   62        2.170147
   63        2.622678
   64        2.635832
   65        6.322755
   66        6.325234
   67        6.563783
   68        6.567276
   69        6.569419
   70        6.573166
   71        7.005683
   72        7.075484
   73        7.082263
   74        7.387637
   75        7.391534
   76        7.968037
   77        9.091006
   78       11.658563
   79       11.661567
   80       11.926150
   81       12.104978
   82       12.106445
   83       12.285056
   84       12.566915
 
  0.3333333E+00  0.2775558E-16  0.0000000E+00  0.1388889E-01
    1      -14.335515
    2      -14.201738
    3      -14.201226
    4      -14.058968
    5      -12.387321
    6      -12.269353
    7      -12.268905
    8      -12.144540
    9      -10.527991
   10      -10.524318
   11      -10.426883
   12      -10.426344
   13      -10.423146
   14      -10.421929
   15      -10.320429
   16      -10.316596
   17       -6.808745
   18       -6.799701
   19       -6.740667
   20       -6.738512
   21       -6.730987
   22       -6.729847
   23       -6.667738
   24       -6.658831
   25       -5.022742
   26       -4.960534
   27       -4.958892
   28       -4.894834
   29       -3.424103
   30       -3.410051
   31       -3.381666
   32       -3.381318
   33       -3.368192
   34       -3.366256
   35       -3.337306
   36       -3.323117
   37       -3.049862
   38       -2.208948
   39       -2.207202
   40       -1.190660
   41       -1.137217
   42       -1.113819
   43       -1.110684
   44       -1.087056
   45       -0.746683
   46       -0.684166
   47       -0.654886
   48       -0.651824
   49       -0.622517
   50        0.007359
   51        0.009138
   52        0.482371
   53        0.499816
   54        0.504057
   55        0.521876
   56        0.895013
   57        1.352413
   58        1.355787
   59        1.972112
   60        1.974650
   61        1.977783
   62        1.978721
   63        2.648287
   64        2.654935
   65        6.825185
   66        6.828215
   67        7.140505
   68        7.142785
   69        7.145131
   70        7.148580
   71        7.549463
   72        7.552895
   73        9.151132
   74        9.527953
   75        9.531492
   76        9.693877
   77       10.022592
   78       11.977336
   79       12.156766
   80       12.160042
   81       12.248573
   82       12.335201
   83       12.337004
   84       12.625059
 
  0.5000000E+00  0.0000000E+00  0.0000000E+00  0.6944444E-02
    1      -13.518452
    2      -13.515679
    3      -13.392290
    4      -13.389777
    5      -13.389764
    6      -13.386678
    7      -13.256054
    8      -13.253215
    9      -10.676570
   10      -10.674861
   11      -10.573810
   12      -10.572474
   13      -10.572441
   14      -10.570312
   15      -10.464952
   16      -10.463194
   17       -5.897206
   18       -5.895460
   19       -5.859891
   20       -5.859889
   21       -5.859119
   22       -5.855089
   23       -5.823750
   24       -5.821292
   25       -4.309157
   26       -4.307487
   27       -4.286274
   28       -4.283682
   29       -4.282702
   30       -4.282700
   31       -4.254227
   32       -4.253079
   33       -2.802929
   34       -2.799516
   35       -2.758312
   36       -2.753087
   37       -2.753080
   38       -2.752372
   39       -2.707418
   40       -2.704745
   41       -2.070328
   42       -2.068060
   43       -1.261246
   44       -1.259038
   45       -1.258859
   46       -1.255525
   47       -0.403762
   48       -0.400269
   49       -0.381484
   50       -0.380342
   51       -0.380321
   52       -0.372769
   53       -0.358055
   54       -0.350813
   55       -0.288543
   56       -0.285951
   57        1.233403
   58        1.235460
   59        1.888040
   60        1.891277
   61        1.891558
   62        1.892949
   63        2.633266
   64        2.635599
   65        7.153954
   66        7.156476
   67        7.447076
   68        7.447258
   69        7.447297
   70        7.452208
   71        7.742123
   72        7.744666
   73       10.690881
   74       10.691833
   75       11.581701
   76       11.585038
   77       11.802633
   78       11.810166
   79       11.810986
   80       11.815147
   81       12.195080
   82       12.198698
   83       12.574184
   84       12.596449
 
 -0.1355253E-19  0.1666667E+00  0.0000000E+00  0.1388889E-01
    1      -14.830508
    2      -14.692711
    3      -14.692169
    4      -14.545319
    5      -10.977041
    6      -10.871614
    7      -10.871165
    8      -10.760834
    9      -10.105525
   10      -10.097925
   11      -10.013088
   12      -10.012265
   13      -10.005209
   14      -10.003657
   15       -9.916763
   16       -9.908476
   17       -7.982621
   18       -7.977186
   19       -7.909187
   20       -7.908392
   21       -7.902234
   22       -7.901993
   23       -7.828953
   24       -7.823025
   25       -7.137501
   26       -7.061478
   27       -7.061001
   28       -6.981862
   29       -3.648519
   30       -2.790692
   31       -2.788946
   32       -2.265860
   33       -2.250221
   34       -2.234608
   35       -2.232001
   36       -2.218601
   37       -2.216704
   38       -2.200104
   39       -2.184638
   40       -1.748566
   41       -1.612278
   42       -1.586701
   43       -1.586256
   44       -1.560474
   45        0.796617
   46        0.972263
   47        0.987966
   48        0.988364
   49        1.004191
   50        1.279674
   51        1.292959
   52        1.293224
   53        1.306464
   54        1.430448
   55        1.431588
   56        1.655655
   57        1.661003
   58        2.116800
   59        2.161020
   60        2.163108
   61        2.169291
   62        2.172178
   63        2.622773
   64        2.636957
   65        6.321001
   66        6.325014
   67        6.563148
   68        6.565715
   69        6.569112
   70        6.571521
   71        7.007341
   72        7.075049
   73        7.080547
   74        7.389766
   75        7.392451
   76        7.969536
   77        9.090996
   78       11.658506
   79       11.661510
   80       11.925526
   81       12.104834
   82       12.105299
   83       12.284387
   84       12.569083
 
  0.1666667E+00  0.1666667E+00  0.0000000E+00  0.1388889E-01
    1      -14.499977
    2      -14.364863
    3      -14.364342
    4      -14.220562
    5      -11.599049
    6      -11.596139
    7      -11.488760
    8      -11.486174
    9      -11.486157
   10      -11.482878
   11      -11.370243
   12      -11.367263
   13       -9.252573
   14       -9.197900
   15       -9.196774
   16       -9.151127
   17       -8.196715
   18       -8.171112
   19       -8.167522
   20       -8.125930
   21       -6.029046
   22       -6.025584
   23       -5.962219
   24       -5.958455
   25       -5.958437
   26       -5.955427
   27       -5.889412
   28       -5.886032
   29       -3.596388
   30       -3.552415
   31       -3.550650
   32       -3.505394
   33       -3.248341
   34       -2.401603
   35       -2.399861
   36       -1.938773
   37       -1.936163
   38       -1.908294
   39       -1.906874
   40       -1.906868
   41       -1.902640
   42       -1.875832
   43       -1.872641
   44       -1.375151
   45       -0.065304
   46       -0.050462
   47       -0.046399
   48       -0.033188
   49        0.153258
   50        0.155221
   51        0.605088
   52        0.614185
   53        0.618665
   54        0.630356
   55        0.855627
   56        0.857566
   57        0.857694
   58        0.860932
   59        1.663964
   60        1.666382
   61        2.478877
   62        2.865729
   63        2.867995
   64        3.122333
   65        6.065032
   66        6.069964
   67        6.075388
   68        6.358775
   69        7.955086
   70        7.957558
   71        8.339286
   72        8.343281
   73        8.343807
   74        8.345765
   75        8.838943
   76        8.841703
   77        9.494299
   78       12.009896
   79       12.012977
   80       12.714461
   81       12.718739
   82       12.914513
   83       12.918548
   84       12.922034
 
  0.3333333E+00  0.1666667E+00  0.0000000E+00  0.1388889E-01
    1      -13.843006
    2      -13.713213
    3      -13.712731
    4      -13.575028
    5      -12.870189
    6      -12.748299
    7      -12.747819
    8      -12.619032
    9      -11.914499
   10      -11.800540
   11      -11.799970
   12      -11.680052
   13       -9.236881
   14       -9.151922
   15       -9.151616
   16       -9.064456
   17       -7.340289
   18       -7.284474
   19       -7.281520
   20       -7.223429
   21       -5.030322
   22       -4.987567
   23       -4.985670
   24       -4.938771
   25       -4.867735
   26       -4.819080
   27       -4.817270
   28       -4.768162
   29       -3.886308
   30       -3.834993
   31       -3.833386
   32       -3.780871
   33       -2.838474
   34       -2.805752
   35       -2.804454
   36       -2.769624
   37       -2.457569
   38       -1.795166
   39       -1.765672
   40       -1.762126
   41       -1.729534
   42       -1.632896
   43       -1.631451
   44       -1.302637
   45       -1.298702
   46       -1.272099
   47       -1.269272
   48       -1.242010
   49       -0.642487
   50       -0.521589
   51       -0.519945
   52       -0.401227
   53       -0.382531
   54       -0.377891
   55       -0.357973
   56       -0.183040
   57        0.408642
   58        0.550037
   59        0.551398
   60        1.409300
   61        2.770212
   62        3.273992
   63        3.275981
   64        3.744764
   65        5.714754
   66        5.927775
   67        5.931377
   68        6.243040
   69        8.763954
   70        9.058288
   71        9.060257
   72        9.372635
   73       10.249297
   74       10.300752
   75       10.550763
   76       10.553363
   77       10.922145
   78       11.492657
   79       12.510739
   80       12.563337
   81       12.575143
   82       12.688054
   83       12.814345
   84       12.825411
 
  0.5000000E+00  0.1666667E+00  0.0000000E+00  0.1388889E-01
    1      -13.844203
    2      -13.714415
    3      -13.713914
    4      -13.576216
    5      -12.868504
    6      -12.746609
    7      -12.746148
    8      -12.617355
    9      -11.915718
   10      -11.801764
   11      -11.801185
   12      -11.681279
   13       -9.234046
   14       -9.148839
   15       -9.148493
   16       -9.061023
   17       -7.335716
   18       -7.278942
   19       -7.277717
   20       -7.218774
   21       -5.038463
   22       -4.995302
   23       -4.994853
   24       -4.947509
   25       -4.877098
   26       -4.828782
   27       -4.825591
   28       -4.776740
   29       -3.889990
   30       -3.839060
   31       -3.836748
   32       -3.784593
   33       -2.827443
   34       -2.795156
   35       -2.792268
   36       -2.757962
   37       -2.458861
   38       -1.793085
   39       -1.762892
   40       -1.761229
   41       -1.727767
   42       -1.634111
   43       -1.632730
   44       -1.300904
   45       -1.295215
   46       -1.268986
   47       -1.265333
   48       -1.238398
   49       -0.643759
   50       -0.519931
   51       -0.518211
   52       -0.403108
   53       -0.383704
   54       -0.381106
   55       -0.360797
   56       -0.184304
   57        0.410301
   58        0.548576
   59        0.549985
   60        1.407557
   61        2.771255
   62        3.278049
   63        3.278903
   64        3.753311
   65        5.711233
   66        5.928390
   67        5.930298
   68        6.242588
   69        8.760140
   70        9.054901
   71        9.057557
   72        9.371515
   73       10.249704
   74       10.299056
   75       10.549406
   76       10.552429
   77       10.919636
   78       11.495030
   79       12.508155
   80       12.564076
   81       12.575896
   82       12.686700
   83       12.811547
   84       12.822608
 
 -0.3333333E+00  0.1666667E+00  0.0000000E+00  0.1388889E-01
    1      -14.500692
    2      -14.365585
    3      -14.365050
    4      -14.221271
    5      -11.601196
    6      -11.595405
    7      -11.489951
    8      -11.489396
    9      -11.484079
   10      -11.483646
   11      -11.372515
   12      -11.366686
   13       -9.242079
   14       -9.185931
   15       -9.185548
   16       -9.138354
   17       -8.197383
   18       -8.169563
   19       -8.169174
   20       -8.125433
   21       -6.036890
   22       -6.031319
   23       -5.969377
   24       -5.967023
   25       -5.963552
   26       -5.961958
   27       -5.897255
   28       -5.891965
   29       -3.609833
   30       -3.565273
   31       -3.564843
   32       -3.518932
   33       -3.249135
   34       -2.402389
   35       -2.400660
   36       -1.934227
   37       -1.921319
   38       -1.904511
   39       -1.901453
   40       -1.891255
   41       -1.888928
   42       -1.871105
   43       -1.858302
   44       -1.375938
   45       -0.070031
   46       -0.054120
   47       -0.053821
   48       -0.038840
   49        0.150378
   50        0.156470
   51        0.611166
   52        0.621764
   53        0.622023
   54        0.633773
   55        0.852715
   56        0.854125
   57        0.859185
   58        0.861161
   59        1.659526
   60        1.667183
   61        2.480996
   62        2.874761
   63        2.875147
   64        3.139266
   65        6.058988
   66        6.071621
   67        6.073871
   68        6.361731
   69        7.951536
   70        7.954890
   71        8.335389
   72        8.338969
   73        8.339210
   74        8.342523
   75        8.836237
   76        8.836876
   77        9.493225
   78       12.008733
   79       12.011801
   80       12.715027
   81       12.742416
   82       12.916095
   83       12.918460
   84       12.950635
 
 -0.1666667E+00  0.1666667E+00  0.0000000E+00  0.1388889E-01
    1      -14.830748
    2      -14.692950
    3      -14.692403
    4      -14.545558
    5      -10.983332
    6      -10.877979
    7      -10.877526
    8      -10.767280
    9      -10.096874
   10      -10.094840
   11      -10.004392
   12      -10.002861
   13      -10.002840
   14      -10.000245
   15       -9.907577
   16       -9.905483
   17       -7.980624
   18       -7.978799
   19       -7.907406
   20       -7.904942
   21       -7.904925
   22       -7.903834
   23       -7.826737
   24       -7.824997
   25       -7.144736
   26       -7.069542
   27       -7.067353
   28       -6.989000
   29       -3.648794
   30       -2.790956
   31       -2.789214
   32       -2.266548
   33       -2.264476
   34       -2.234457
   35       -2.233769
   36       -2.233762
   37       -2.229860
   38       -2.201134
   39       -2.198516
   40       -1.748832
   41       -1.595223
   42       -1.570411
   43       -1.568249
   44       -1.543254
   45        0.791168
   46        0.961060
   47        0.975295
   48        0.980076
   49        0.995300
   50        1.288714
   51        1.301590
   52        1.305761
   53        1.317484
   54        1.423547
   55        1.425033
   56        1.660875
   57        1.662952
   58        2.107663
   59        2.169745
   60        2.170393
   61        2.170534
   62        2.174369
   63        2.635815
   64        2.637906
   65        6.320778
   66        6.323263
   67        6.563610
   68        6.568992
   69        6.569290
   70        6.571014
   71        7.004661
   72        7.077333
   73        7.080301
   74        7.383492
   75        7.387710
   76        7.963842
   77        9.090623
   78       11.658068
   79       11.661074
   80       11.958419
   81       12.137483
   82       12.138515
   83       12.317092
   84       12.565562
 
 -0.2710505E-19  0.3333333E+00  0.0000000E+00  0.1388889E-01
    1      -14.335499
    2      -14.201732
    3      -14.201199
    4      -14.058950
    5      -12.387286
    6      -12.269340
    7      -12.268846
    8      -12.144503
    9      -10.528315
   10      -10.524052
   11      -10.427664
   12      -10.426374
   13      -10.423139
   14      -10.421119
   15      -10.320694
   16      -10.316270
   17       -6.809259
   18       -6.800599
   19       -6.740680
   20       -6.740013
   21       -6.731047
   22       -6.730803
   23       -6.668162
   24       -6.659543
   25       -5.021707
   26       -4.958921
   27       -4.958489
   28       -4.893848
   29       -3.422932
   30       -3.409739
   31       -3.381334
   32       -3.379256
   33       -3.367600
   34       -3.366253
   35       -3.336004
   36       -3.322863
   37       -3.049907
   38       -2.208989
   39       -2.207265
   40       -1.190722
   41       -1.138418
   42       -1.113826
   43       -1.113450
   44       -1.088717
   45       -0.746929
   46       -0.682124
   47       -0.651824
   48       -0.651244
   49       -0.620870
   50        0.007179
   51        0.008660
   52        0.480819
   53        0.499810
   54        0.500181
   55        0.519131
   56        0.894595
   57        1.352482
   58        1.356650
   59        1.972413
   60        1.974599
   61        1.977801
   62        1.980576
   63        2.648515
   64        2.655948
   65        6.824023
   66        6.827144
   67        7.139101
   68        7.141116
   69        7.145151
   70        7.147378
   71        7.547938
   72        7.552394
   73        9.152302
   74        9.529362
   75        9.532100
   76        9.693859
   77       10.023575
   78       11.977097
   79       12.156499
   80       12.159783
   81       12.247895
   82       12.335181
   83       12.335448
   84       12.624456
 
  0.1666667E+00  0.3333333E+00  0.0000000E+00  0.1388889E-01
    1      -13.842992
    2      -13.713207
    3      -13.712707
    4      -13.575011
    5      -12.870154
    6      -12.748287
    7      -12.747756
    8      -12.618993
    9      -11.914544
   10      -11.800551
   11      -11.800051
   12      -11.680100
   13       -9.236817
   14       -9.151830
   15       -9.151570
   16       -9.064383
   17       -7.340652
   18       -7.284477
   19       -7.282370
   20       -7.223927
   21       -5.029883
   22       -4.986811
   23       -4.985667
   24       -4.938440
   25       -4.869093
   26       -4.820049
   27       -4.819074
   28       -4.769584
   29       -3.884949
   30       -3.833395
   31       -3.832300
   32       -3.779537
   33       -2.836861
   34       -2.804455
   35       -2.802517
   36       -2.767978
   37       -2.457606
   38       -1.793945
   39       -1.763847
   40       -1.762115
   41       -1.728774
   42       -1.632897
   43       -1.631505
   44       -1.302863
   45       -1.300174
   46       -1.272481
   47       -1.272095
   48       -1.243787
   49       -0.642527
   50       -0.521787
   51       -0.520272
   52       -0.401949
   53       -0.382533
   54       -0.379998
   55       -0.359717
   56       -0.182724
   57        0.408329
   58        0.550331
   59        0.551845
   60        1.409757
   61        2.770680
   62        3.274909
   63        3.276013
   64        3.745166
   65        5.714260
   66        5.927734
   67        5.930018
   68        6.242247
   69        8.762655
   70        9.057486
   71        9.058747
   72        9.371610
   73       10.250440
   74       10.300755
   75       10.551701
   76       10.554385
   77       10.923083
   78       11.492598
   79       12.511085
   80       12.562994
   81       12.574868
   82       12.688083
   83       12.814867
   84       12.825813
 
  0.3333333E+00  0.3333333E+00  0.0000000E+00  0.1388889E-01
    1      -13.034545
    2      -13.031891
    3      -13.029380
    4      -12.912734
    5      -12.909591
    6      -12.909574
    7      -12.907943
    8      -12.906692
    9      -12.904112
   10      -12.780515
   11      -12.777891
   12      -12.775308
   13       -8.021699
   14       -7.937318
   15       -7.935680
   16       -7.929050
   17       -7.926930
   18       -7.922707
   19       -7.920425
   20       -7.838827
   21       -5.885765
   22       -5.885382
   23       -5.881479
   24       -5.880626
   25       -3.125168
   26       -3.121817
   27       -3.120151
   28       -3.100231
   29       -3.095704
   30       -3.095695
   31       -3.095033
   32       -3.094788
   33       -3.089930
   34       -3.071773
   35       -3.069628
   36       -3.065868
   37       -1.764426
   38       -1.760338
   39       -1.757882
   40       -1.747198
   41       -1.744085
   42       -1.742264
   43       -1.741555
   44       -1.741539
   45       -1.736532
   46       -1.723510
   47       -1.722031
   48       -1.717208
   49       -1.492388
   50       -1.490178
   51       -1.487619
   52       -0.704000
   53       -0.700704
   54       -0.700513
   55       -0.699180
   56       -0.697971
   57       -0.694983
   58        0.240733
   59        0.243079
   60        0.245800
   61        4.015492
   62        4.607604
   63        4.615516
   64        4.623669
   65        4.624051
   66        4.643674
   67        4.644942
   68        5.322500
   69       10.771226
   70       10.774096
   71       10.778052
   72       10.996440
   73       11.000982
   74       11.001227
   75       11.002270
   76       11.002900
   77       11.004966
   78       11.234381
   79       11.239883
   80       11.242544
   81       11.304935
   82       11.307084
   83       11.313462
   84       13.540342
 
  0.5000000E+00  0.3333333E+00  0.0000000E+00  0.1388889E-01
    1      -13.844902
    2      -13.715127
    3      -13.714597
    4      -13.576911
    5      -12.872043
    6      -12.750205
    7      -12.749612
    8      -12.620877
    9      -11.910712
   10      -11.796690
   11      -11.796257
   12      -11.676278
   13       -9.226686
   14       -9.141625
   15       -9.141078
   16       -9.053812
   17       -7.344002
   18       -7.287422
   19       -7.286905
   20       -7.228149
   21       -5.036700
   22       -4.993990
   23       -4.992826
   24       -4.945947
   25       -4.875536
   26       -4.827287
   27       -4.824901
   28       -4.776248
   29       -3.896766
   30       -3.845961
   31       -3.842926
   32       -3.790869
   33       -2.832894
   34       -2.801293
   35       -2.797674
   36       -2.763905
   37       -2.459691
   38       -1.802084
   39       -1.771805
   40       -1.769459
   41       -1.736112
   42       -1.635059
   43       -1.633738
   44       -1.304905
   45       -1.285016
   46       -1.258351
   47       -1.255407
   48       -1.228240
   49       -0.644646
   50       -0.523919
   51       -0.522413
   52       -0.393208
   53       -0.373360
   54       -0.371439
   55       -0.350803
   56       -0.178985
   57        0.405980
   58        0.553880
   59        0.555643
   60        1.413324
   61        2.776715
   62        3.282683
   63        3.284044
   64        3.755998
   65        5.715067
   66        5.924451
   67        5.925969
   68        6.231744
   69        8.764439
   70        9.054942
   71        9.057429
   72        9.365614
   73       10.243736
   74       10.298044
   75       10.545507
   76       10.548832
   77       10.919896
   78       11.490404
   79       12.504322
   80       12.558234
   81       12.570136
   82       12.693415
   83       12.816386
   84       12.827466
 
 -0.3333333E+00  0.3333333E+00  0.0000000E+00  0.1388889E-01
    1      -14.336453
    2      -14.202686
    3      -14.202135
    4      -14.059895
    5      -12.391116
    6      -12.273210
    7      -12.272639
    8      -12.148336
    9      -10.520719
   10      -10.518943
   11      -10.419862
   12      -10.418410
   13      -10.418382
   14      -10.416238
   15      -10.313038
   16      -10.311215
   17       -6.807918
   18       -6.805993
   19       -6.740189
   20       -6.737446
   21       -6.737428
   22       -6.736443
   23       -6.667252
   24       -6.665438
   25       -5.031679
   26       -4.969726
   27       -4.967336
   28       -4.903512
   29       -3.421456
   30       -3.419718
   31       -3.378988
   32       -3.378915
   33       -3.378867
   34       -3.375066
   35       -3.334924
   36       -3.332747
   37       -3.050967
   38       -2.210040
   39       -2.208332
   40       -1.191797
   41       -1.122371
   42       -1.098670
   43       -1.096203
   44       -1.072418
   45       -0.750941
   46       -0.694092
   47       -0.665160
   48       -0.660996
   49       -0.631857
   50        0.002954
   51        0.004399
   52        0.492844
   53        0.510801
   54        0.514397
   55        0.531997
   56        0.889885
   57        1.358839
   58        1.360813
   59        1.980192
   60        1.981072
   61        1.981246
   62        1.984994
   63        2.657078
   64        2.659372
   65        6.825519
   66        6.828211
   67        7.137834
   68        7.142728
   69        7.142907
   70        7.144142
   71        7.543805
   72        7.546497
   73        9.145257
   74        9.522347
   75        9.525628
   76        9.692496
   77       10.018908
   78       11.980945
   79       12.155586
   80       12.158914
   81       12.275350
   82       12.364669
   83       12.365901
   84       12.650150
 
 -0.1666667E+00  0.3333333E+00  0.0000000E+00  0.1388889E-01
    1      -14.500680
    2      -14.365580
    3      -14.365030
    4      -14.221258
    5      -11.601605
    6      -11.595090
    7      -11.490743
    8      -11.489865
    9      -11.484014
   10      -11.482449
   11      -11.372845
   12      -11.366264
   13       -9.241354
   14       -9.185915
   15       -9.184076
   16       -9.137612
   17       -8.199120
   18       -8.172288
   19       -8.169558
   20       -8.126918
   21       -6.037432
   22       -6.030172
   23       -5.969386
   24       -5.968755
   25       -5.961972
   26       -5.960304
   27       -5.897710
   28       -5.890600
   29       -3.608855
   30       -3.565260
   31       -3.562752
   32       -3.517795
   33       -3.249167
   34       -2.402420
   35       -2.400702
   36       -1.935465
   37       -1.921259
   38       -1.904519
   39       -1.904101
   40       -1.890604
   41       -1.888927
   42       -1.872353
   43       -1.858012
   44       -1.375983
   45       -0.068417
   46       -0.054116
   47       -0.049684
   48       -0.035482
   49        0.150230