  32  32   0   0
  0.6204108E+01  0.4934311E-09  0.4934311E-09  0.9416039E-09  0.5000000E-15
  1.000000000000000E-004
  CAR 
 graphite                                
     20.29392523    -14.44197327  301      8.51044866      1.00000000
    -14.442  0.0000E+00  0.0000E+00
    -14.326  0.0000E+00  0.0000E+00
    -14.210  0.0000E+00  0.0000E+00
    -14.095  0.0000E+00  0.0000E+00
    -13.979  0.0000E+00  0.0000E+00
    -13.863  0.0000E+00  0.0000E+00
    -13.747  0.0000E+00  0.0000E+00
    -13.631  0.0000E+00  0.0000E+00
    -13.516  0.0000E+00  0.0000E+00
    -13.400  0.0000E+00  0.0000E+00
    -13.284  0.0000E+00  0.0000E+00
    -13.168  0.0000E+00  0.0000E+00
    -13.053  0.0000E+00  0.0000E+00
    -12.937  0.0000E+00  0.0000E+00
    -12.821  0.0000E+00  0.0000E+00
    -12.705  0.0000E+00  0.0000E+00
    -12.589  0.0000E+00  0.0000E+00
    -12.474  0.0000E+00  0.0000E+00
    -12.358  0.5599E+00  0.1726E-01
    -12.242  0.8780E+00  0.1005E+00
    -12.126  0.1197E+01  0.2240E+00
    -12.010  0.1387E+01  0.3720E+00
    -11.895  0.1617E+01  0.5462E+00
    -11.779  0.1788E+01  0.7432E+00
    -11.663  0.1937E+01  0.9584E+00
    -11.547  0.2108E+01  0.1192E+01
    -11.432  0.2261E+01  0.1446E+01
    -11.316  0.2397E+01  0.1716E+01
    -11.200  0.2588E+01  0.2002E+01
    -11.084  0.2824E+01  0.2319E+01
    -10.968  0.3144E+01  0.2655E+01
    -10.853  0.3192E+01  0.3036E+01
    -10.737  0.3548E+01  0.3424E+01
    -10.621  0.3248E+01  0.3823E+01
    -10.505  0.2499E+01  0.4143E+01
    -10.389  0.3764E+01  0.4453E+01
    -10.274  0.3476E+01  0.4872E+01
    -10.158  0.4430E+01  0.5344E+01
    -10.042  0.4434E+01  0.5865E+01
     -9.926  0.4016E+01  0.6355E+01
     -9.811  0.4045E+01  0.6815E+01
     -9.695  0.4019E+01  0.7279E+01
     -9.579  0.5044E+01  0.7806E+01
     -9.463  0.5241E+01  0.8406E+01
     -9.347  0.5657E+01  0.9062E+01
     -9.232  0.4550E+01  0.9639E+01
     -9.116  0.4617E+01  0.1017E+02
     -9.000  0.4446E+01  0.1069E+02
     -8.884  0.4534E+01  0.1120E+02
     -8.768  0.5772E+01  0.1176E+02
     -8.653  0.5436E+01  0.1245E+02
     -8.537  0.4710E+01  0.1302E+02
     -8.421  0.4696E+01  0.1356E+02
     -8.305  0.5157E+01  0.1413E+02
     -8.190  0.5587E+01  0.1476E+02
     -8.074  0.5159E+01  0.1538E+02
     -7.958  0.5236E+01  0.1597E+02
     -7.842  0.6322E+01  0.1666E+02
     -7.726  0.5244E+01  0.1733E+02
     -7.611  0.4869E+01  0.1791E+02
     -7.495  0.4956E+01  0.1847E+02
     -7.379  0.5503E+01  0.1908E+02
     -7.263  0.5602E+01  0.1972E+02
     -7.147  0.5764E+01  0.2038E+02
     -7.032  0.5808E+01  0.2105E+02
     -6.916  0.6089E+01  0.2174E+02
     -6.800  0.4853E+01  0.2236E+02
     -6.684  0.4189E+01  0.2289E+02
     -6.569  0.4895E+01  0.2340E+02
     -6.453  0.5376E+01  0.2400E+02
     -6.337  0.5996E+01  0.2467E+02
     -6.221  0.6087E+01  0.2538E+02
     -6.105  0.5466E+01  0.2606E+02
     -5.990  0.4781E+01  0.2664E+02
     -5.874  0.4153E+01  0.2718E+02
     -5.758  0.8778E+01  0.2785E+02
     -5.642  0.6914E+01  0.2880E+02
     -5.526  0.5450E+01  0.2950E+02
     -5.411  0.3929E+01  0.3003E+02
     -5.295  0.3261E+01  0.3044E+02
     -5.179  0.2537E+01  0.3077E+02
     -5.063  0.2028E+01  0.3103E+02
     -4.947  0.2107E+01  0.3126E+02
     -4.832  0.4101E+01  0.3161E+02
     -4.716  0.4488E+01  0.3210E+02
     -4.600  0.4702E+01  0.3267E+02
     -4.484  0.5622E+01  0.3329E+02
     -4.369  0.3826E+01  0.3380E+02
     -4.253  0.4478E+01  0.3430E+02
     -4.137  0.6172E+01  0.3493E+02
     -4.021  0.9277E+01  0.3574E+02
     -3.905  0.6203E+01  0.3660E+02
     -3.790  0.5673E+01  0.3729E+02
     -3.674  0.6141E+01  0.3797E+02
     -3.558  0.6175E+01  0.3869E+02
     -3.442  0.6335E+01  0.3942E+02
     -3.326  0.6273E+01  0.4016E+02
     -3.211  0.6541E+01  0.4088E+02
     -3.095  0.5441E+01  0.4156E+02
     -2.979  0.5359E+01  0.4219E+02
     -2.863  0.4765E+01  0.4279E+02
     -2.748  0.5381E+01  0.4335E+02
     -2.632  0.4385E+01  0.4392E+02
     -2.516  0.3752E+01  0.4438E+02
     -2.400  0.3681E+01  0.4481E+02
     -2.284  0.4119E+01  0.4526E+02
     -2.169  0.4823E+01  0.4577E+02
     -2.053  0.6053E+01  0.4639E+02
     -1.937  0.8165E+01  0.4720E+02
     -1.821  0.9787E+01  0.4826E+02
     -1.705  0.6060E+01  0.4909E+02
     -1.590  0.6141E+01  0.4979E+02
     -1.474  0.6399E+01  0.5052E+02
     -1.358  0.5587E+01  0.5121E+02
     -1.242  0.6344E+01  0.5188E+02
     -1.127  0.8667E+01  0.5272E+02
     -1.011  0.7488E+01  0.5370E+02
     -0.895  0.6979E+01  0.5453E+02
     -0.779  0.6430E+01  0.5531E+02
     -0.663  0.6309E+01  0.5605E+02
     -0.548  0.6223E+01  0.5678E+02
     -0.432  0.7205E+01  0.5757E+02
     -0.316  0.8036E+01  0.5845E+02
     -0.200  0.8216E+01  0.5938E+02
     -0.084  0.8784E+01  0.6039E+02
      0.031  0.8794E+01  0.6136E+02
      0.147  0.8108E+01  0.6234E+02
      0.263  0.9708E+01  0.6334E+02
      0.379  0.9654E+01  0.6451E+02
      0.494  0.7367E+01  0.6545E+02
      0.610  0.6728E+01  0.6626E+02
      0.726  0.7822E+01  0.6709E+02
      0.842  0.8799E+01  0.6809E+02
      0.958  0.1071E+02  0.6922E+02
      1.073  0.1203E+02  0.7054E+02
      1.189  0.1272E+02  0.7197E+02
      1.305  0.9832E+01  0.7325E+02
      1.421  0.8593E+01  0.7429E+02
      1.537  0.1135E+02  0.7539E+02
      1.652  0.1199E+02  0.7673E+02
      1.768  0.1264E+02  0.7812E+02
      1.884  0.1442E+02  0.7958E+02
      2.000  0.1466E+02  0.8127E+02
      2.115  0.1291E+02  0.8281E+02
      2.231  0.1221E+02  0.8427E+02
      2.347  0.1202E+02  0.8566E+02
      2.463  0.1198E+02  0.8710E+02
      2.579  0.9255E+01  0.8836E+02
      2.694  0.1008E+02  0.8944E+02
      2.810  0.1226E+02  0.9075E+02
      2.926  0.1132E+02  0.9215E+02
      3.042  0.1028E+02  0.9339E+02
      3.158  0.1048E+02  0.9461E+02
      3.273  0.9355E+01  0.9574E+02
      3.389  0.9107E+01  0.9682E+02
      3.505  0.8844E+01  0.9785E+02
      3.621  0.9440E+01  0.9891E+02
      3.736  0.9536E+01  0.1000E+03
      3.852  0.8841E+01  0.1011E+03
      3.968  0.8415E+01  0.1021E+03
      4.084  0.8276E+01  0.1030E+03
      4.200  0.7874E+01  0.1040E+03
      4.315  0.7852E+01  0.1049E+03
      4.431  0.7889E+01  0.1058E+03
      4.547  0.8107E+01  0.1067E+03
      4.663  0.8014E+01  0.1076E+03
      4.779  0.8059E+01  0.1086E+03
      4.894  0.7307E+01  0.1095E+03
      5.010  0.6875E+01  0.1103E+03
      5.126  0.7275E+01  0.1111E+03
      5.242  0.7220E+01  0.1120E+03
      5.357  0.6920E+01  0.1128E+03
      5.473  0.6002E+01  0.1135E+03
      5.589  0.5748E+01  0.1142E+03
      5.705  0.5273E+01  0.1149E+03
      5.821  0.4697E+01  0.1155E+03
      5.936  0.1896E+01  0.1158E+03
      6.052  0.7863E+00  0.1160E+03
      6.168  0.2375E+01  0.1161E+03
      6.284  0.4599E+01  0.1165E+03
      6.400  0.4945E+01  0.1170E+03
      6.515  0.6924E+01  0.1177E+03
      6.631  0.7579E+01  0.1186E+03
      6.747  0.7566E+01  0.1195E+03
      6.863  0.6916E+01  0.1203E+03
      6.978  0.6665E+01  0.1211E+03
      7.094  0.6595E+01  0.1219E+03
      7.210  0.5646E+01  0.1226E+03
      7.326  0.5514E+01  0.1232E+03
      7.442  0.5998E+01  0.1239E+03
      7.557  0.6617E+01  0.1246E+03
      7.673  0.5595E+01  0.1253E+03
      7.789  0.5983E+01  0.1260E+03
      7.905  0.3492E+01  0.1265E+03
      8.021  0.2960E+01  0.1269E+03
      8.136  0.3197E+01  0.1272E+03
      8.252  0.2211E+01  0.1276E+03
      8.368  0.1724E+01  0.1278E+03
      8.484  0.1271E+01  0.1280E+03
      8.600  0.7149E+00  0.1281E+03
      8.715  0.1066E+01  0.1282E+03
      8.831  0.9645E+00  0.1283E+03
      8.947  0.1043E+01  0.1284E+03
      9.063  0.1060E+01  0.1286E+03
      9.178  0.1181E+01  0.1287E+03
      9.294  0.1314E+01  0.1288E+03
      9.410  0.1457E+01  0.1290E+03
      9.526  0.1621E+01  0.1292E+03
      9.642  0.2351E+01  0.1294E+03
      9.757  0.2712E+01  0.1297E+03
      9.873  0.2700E+01  0.1300E+03
      9.989  0.2553E+01  0.1303E+03
     10.105  0.3046E+01  0.1306E+03
     10.221  0.6696E+01  0.1311E+03
     10.336  0.5681E+01  0.1318E+03
     10.452  0.5842E+01  0.1325E+03
     10.568  0.6606E+01  0.1332E+03
     10.684  0.6537E+01  0.1340E+03
     10.799  0.5930E+01  0.1347E+03
     10.915  0.5547E+01  0.1354E+03
     11.031  0.5031E+01  0.1360E+03
     11.147  0.3921E+01  0.1366E+03
     11.263  0.3625E+01  0.1370E+03
     11.378  0.4574E+01  0.1374E+03
     11.494  0.5009E+01  0.1380E+03
     11.610  0.6127E+01  0.1387E+03
     11.726  0.5790E+01  0.1394E+03
     11.842  0.4814E+01  0.1400E+03
     11.957  0.4324E+01  0.1405E+03
     12.073  0.4126E+01  0.1410E+03
     12.189  0.4075E+01  0.1415E+03
     12.305  0.4527E+01  0.1420E+03
     12.420  0.4901E+01  0.1425E+03
     12.536  0.4959E+01  0.1431E+03
     12.652  0.4849E+01  0.1436E+03
     12.768  0.4794E+01  0.1442E+03
     12.884  0.4663E+01  0.1448E+03
     12.999  0.4570E+01  0.1453E+03
     13.115  0.4047E+01  0.1458E+03
     13.231  0.3499E+01  0.1462E+03
     13.347  0.3461E+01  0.1466E+03
     13.463  0.3416E+01  0.1470E+03
     13.578  0.3432E+01  0.1474E+03
     13.694  0.3360E+01  0.1478E+03
     13.810  0.3819E+01  0.1482E+03
     13.926  0.3230E+01  0.1486E+03
     14.041  0.2887E+01  0.1490E+03
     14.157  0.2772E+01  0.1493E+03
     14.273  0.3160E+01  0.1497E+03
     14.389  0.3498E+01  0.1500E+03
     14.505  0.4484E+01  0.1505E+03
     14.620  0.5859E+01  0.1511E+03
     14.736  0.5658E+01  0.1518E+03
     14.852  0.4581E+01  0.1523E+03
     14.968  0.4213E+01  0.1528E+03
     15.084  0.4458E+01  0.1533E+03
     15.199  0.5526E+01  0.1539E+03
     15.315  0.7253E+01  0.1546E+03
     15.431  0.5494E+01  0.1554E+03
     15.547  0.5297E+01  0.1560E+03
     15.662  0.6724E+01  0.1566E+03
     15.778  0.9795E+01  0.1576E+03
     15.894  0.6956E+01  0.1586E+03
     16.010  0.5806E+01  0.1594E+03
     16.126  0.6727E+01  0.1601E+03
     16.241  0.9437E+01  0.1610E+03
     16.357  0.8401E+01  0.1621E+03
     16.473  0.1081E+02  0.1632E+03
     16.589  0.4711E+01  0.1639E+03
     16.705  0.4700E+01  0.1644E+03
     16.820  0.4761E+01  0.1650E+03
     16.936  0.5145E+01  0.1656E+03
     17.052  0.4914E+01  0.1661E+03
     17.168  0.4539E+01  0.1667E+03
     17.283  0.3393E+01  0.1672E+03
     17.399  0.2306E+01  0.1675E+03
     17.515  0.1452E+01  0.1677E+03
     17.631  0.7856E+00  0.1678E+03
     17.747  0.4750E+00  0.1679E+03
     17.862  0.3246E+00  0.1679E+03
     17.978  0.2080E+00  0.1680E+03
     18.094  0.1080E+00  0.1680E+03
     18.210  0.2300E-01  0.1680E+03
     18.326  0.0000E+00  0.1680E+03
     18.441  0.0000E+00  0.1680E+03
     18.557  0.0000E+00  0.1680E+03
     18.673  0.0000E+00  0.1680E+03
     18.789  0.0000E+00  0.1680E+03
     18.904  0.0000E+00  0.1680E+03
     19.020  0.0000E+00  0.1680E+03
     19.136  0.0000E+00  0.1680E+03
     19.252  0.0000E+00  0.1680E+03
     19.368  0.0000E+00  0.1680E+03
     19.483  0.0000E+00  0.1680E+03
     19.599  0.0000E+00  0.1680E+03
     19.715  0.0000E+00  0.1680E+03
     19.831  0.0000E+00  0.1680E+03
     19.947  0.0000E+00  0.1680E+03
     20.062  0.0000E+00  0.1680E+03
     20.178  0.0000E+00  0.1680E+03
     20.294  0.0000E+00  0.1680E+03
