   32   32    1    1
  0.6204108E+01  0.4934311E-09  0.4934311E-09  0.9416039E-09  0.5000000E-15
  1.000000000000000E-004
  CAR 
 graphite                                
    128    163     84
 
  0.0000000E+00  0.0000000E+00  0.0000000E+00  0.3086420E-02
    1      -12.441973
    2      -11.361175
    3      -11.357790
    4       -9.673847
    5       -6.811811
    6       -6.808621
    7       -6.805268
    8       -6.115136
    9       -6.113885
   10       -6.111916
   11       -6.003800
   12       -5.999063
   13       -5.998006
   14       -5.997720
   15       -5.996741
   16       -5.991891
   17       -4.964712
   18       -4.960418
   19       -4.959460
   20       -4.958834
   21       -4.958688
   22       -4.954123
   23       -4.311391
   24       -4.308999
   25       -4.306031
   26       -3.985259
   27       -3.982840
   28       -3.980049
   29       -2.449524
   30        1.441042
   31        1.445657
   32        1.607621
   33        1.610367
   34        1.611580
   35        2.052355
   36        2.055823
   37        2.056196
   38        2.057237
   39        2.059312
   40        2.061506
   41        2.546244
   42        2.549132
   43        2.550606
   44        3.575328
   45        3.577837
   46        3.580354
   47        5.259803
   48        5.264923
   49        5.454549
   50        5.458791
   51        5.463622
   52        5.467816
   53        5.653715
   54        5.658641
   55        5.897595
   56        5.898407
   57        5.900188
   58        6.011625
   59        6.362197
   60        6.365856
   61        6.366985
   62        6.367264
   63        6.368396
   64        6.372166
   65       10.141761
   66       10.151761
   67       10.153267
   68       10.153944
   69       10.154826
   70       10.164856
   71       12.256235
   72       12.259270
   73       12.261533
   74       12.311753
   75       12.312179
   76       12.313632
   77       14.201985
   78       14.206657
   79       14.209948
   80       15.712805
   81       15.718682
   82       15.720543
   83       15.721844
   84       15.725043
 
  0.1111111E+00  0.1387779E-16  0.0000000E+00  0.6172840E-02
    1      -12.365287
    2      -11.286630
    3      -11.283252
    4       -9.604975
    5       -7.698061
    6       -7.106226
    7       -7.103061
    8       -6.775311
    9       -6.772487
   10       -6.232117
   11       -6.228658
   12       -6.227550
   13       -6.224960
   14       -5.755590
   15       -5.753849
   16       -5.632707
   17       -4.688477
   18       -4.608436
   19       -4.607155
   20       -4.606039
   21       -4.603492
   22       -4.592331
   23       -4.590127
   24       -4.075565
   25       -4.072078
   26       -3.524802
   27       -3.522675
   28       -2.978347
   29       -2.358337
   30        1.353140
   31        1.356031
   32        1.522117
   33        1.526722
   34        1.684760
   35        1.817578
   36        1.820818
   37        1.823083
   38        1.824015
   39        2.128420
   40        2.132021
   41        2.347598
   42        2.350662
   43        2.619711
   44        2.930819
   45        3.442864
   46        3.445887
   47        4.907641
   48        5.070802
   49        5.151506
   50        5.158529
   51        5.301572
   52        5.308657
   53        5.402952
   54        5.540706
   55        5.976065
   56        5.979404
   57        6.080611
   58        6.159351
   59        6.161385
   60        6.316925
   61        6.321130
   62        6.322380
   63        6.324004
   64        6.560485
   65       10.270218
   66       10.274149
   67       10.276054
   68       10.284837
   69       10.628205
   70       10.636394
   71       11.469474
   72       11.759166
   73       11.761625
   74       12.694965
   75       12.697790
   76       13.283043
   77       14.261527
   78       14.576023
   79       14.582092
   80       15.784928
   81       15.788163
   82       16.047372
   83       16.051866
   84       16.054974
 
  0.2222222E+00  0.4163336E-16  0.0000000E+00  0.6172840E-02
    1      -12.135611
    2      -11.063209
    3      -11.059852
    4       -9.398745
    5       -8.765937
    6       -7.796294
    7       -7.793278
    8       -7.490073
    9       -7.487525
   10       -6.576830
   11       -6.574031
   12       -6.572752
   13       -6.570486
   14       -6.401192
   15       -5.450098
   16       -5.447779
   17       -4.503303
   18       -4.502139
   19       -3.902467
   20       -3.900854
   21       -3.899601
   22       -3.896608
   23       -3.474058
   24       -2.839753
   25       -2.837486
   26       -2.729994
   27       -2.726681
   28       -2.085492
   29       -1.710673
   30        0.687250
   31        0.689843
   32        1.190050
   33        1.193299
   34        1.195098
   35        1.196360
   36        1.763317
   37        1.767849
   38        1.804534
   39        1.807924
   40        1.824361
   41        1.905933
   42        2.343651
   43        2.347376
   44        2.828318
   45        3.178922
   46        3.181794
   47        3.972022
   48        4.320065
   49        4.326237
   50        4.586858
   51        4.685213
   52        4.881119
   53        4.887608
   54        5.153551
   55        5.156812
   56        5.194495
   57        6.210239
   58        6.214916
   59        6.216840
   60        6.218110
   61        6.284272
   62        6.800789
   63        6.802892
   64        7.522806
   65       10.574667
   66       10.578041
   67       10.579629
   68       10.587541
   69       11.111786
   70       11.130526
   71       11.132728
   72       11.707789
   73       11.713884
   74       12.967998
   75       12.970729
   76       14.367894
   77       14.427620
   78       15.597783
   79       15.603607
   80       15.988279
   81       15.991387
   82       16.253620
   83       16.466485
   84       16.473403
 
  0.3333333E+00  0.0000000E+00  0.0000000E+00  0.6172840E-02
    1      -11.754040
    2      -10.692102
    3      -10.688779
    4       -9.721973
    5       -9.056321
    6       -8.719878
    7       -8.716752
    8       -7.765284
    9       -7.762973
   10       -7.239484
   11       -6.835165
   12       -6.832647
   13       -6.831293
   14       -6.829113
   15       -5.550168
   16       -5.547791
   17       -3.777291
   18       -3.775259
   19       -3.079514
   20       -3.077867
   21       -3.076597
   22       -3.073451
   23       -2.138882
   24       -2.136350
   25       -1.977151
   26       -1.633067
   27       -1.281760
   28       -1.278314
   29       -0.369200
   30       -0.141667
   31       -0.139564
   32        0.347557
   33        0.350957
   34        0.352087
   35        0.353745
   36        0.745311
   37        1.048553
   38        1.051109
   39        2.147178
   40        2.151819
   41        2.265843
   42        2.665658
   43        2.693300
   44        2.697204
   45        2.947831
   46        2.950566
   47        3.143240
   48        3.148294
   49        3.165592
   50        3.623796
   51        3.968995
   52        4.265790
   53        4.269316
   54        4.316615
   55        4.322316
   56        4.693119
   57        6.101232
   58        6.106144
   59        6.108437
   60        6.109810
   61        6.612087
   62        7.627419
   63        7.629439
   64        7.820930
   65       10.399596
   66       10.401795
   67       10.919478
   68       10.921810
   69       10.922963
   70       10.929942
   71       11.708596
   72       12.971774
   73       12.976212
   74       13.107263
   75       13.109698
   76       14.696517
   77       15.497545
   78       15.902000
   79       15.999038
   80       16.004558
   81       16.238645
   82       16.333961
   83       16.337156
   84       17.065161
 
  0.4444444E+00  0.8326673E-16  0.0000000E+00  0.6172840E-02
    1      -11.222441
    2      -10.543460
    3      -10.175314
    4      -10.172040
    5       -9.516109
    6       -9.512900
    7       -8.579450
    8       -7.971704
    9       -7.906110
   10       -7.903888
   11       -6.968873
   12       -6.966454
   13       -6.965064
   14       -6.962931
   15       -5.648484
   16       -5.646179
   17       -2.941928
   18       -2.939382
   19       -2.325433
   20       -2.324226
   21       -2.323246
   22       -2.318891
   23       -1.880258
   24       -1.877766
   25       -1.004606
   26       -0.530739
   27       -0.528914
   28       -0.442181
   29       -0.438573
   30       -0.437350
   31       -0.435925
   32       -0.409014
   33       -0.207220
   34        0.210542
   35        0.214472
   36        0.256945
   37        0.259086
   38        1.005212
   39        1.164830
   40        1.678217
   41        1.682456
   42        2.360979
   43        2.749952
   44        2.770082
   45        2.773788
   46        2.820785
   47        2.823324
   48        3.160903
   49        3.165216
   50        3.332756
   51        3.449957
   52        3.453728
   53        3.612607
   54        3.717802
   55        3.723059
   56        4.139315
   57        6.035460
   58        6.040508
   59        6.042938
   60        6.044464
   61        7.039699
   62        7.505344
   63        8.481232
   64        8.483114
   65        9.616240
   66        9.619467
   67       11.148057
   68       11.149151
   69       11.149702
   70       11.155966
   71       13.091215
   72       13.154040
   73       13.156212
   74       14.201153
   75       14.204667
   76       14.703526
   77       15.054024
   78       15.239254
   79       15.243462
   80       15.472767
   81       16.647693
   82       16.831831
   83       16.835600
   84       17.472650
 
  0.1694066E-20  0.1111111E+00  0.0000000E+00  0.6172840E-02
    1      -12.365285
    2      -11.286628
    3      -11.283250
    4       -9.604971
    5       -7.698133
    6       -7.106299
    7       -7.102746
    8       -6.775445
    9       -6.772624
   10       -6.231812
   11       -6.228491
   12       -6.227639
   13       -6.224400
   14       -5.756082
   15       -5.753338
   16       -5.633319
   17       -4.686630
   18       -4.611474
   19       -4.607510
   20       -4.605988
   21       -4.603064
   22       -4.593639
   23       -4.590318
   24       -4.073820
   25       -4.071410
   26       -3.526458
   27       -3.522275
   28       -2.977227
   29       -2.358342
   30        1.354756
   31        1.355996
   32        1.522107
   33        1.526712
   34        1.683181
   35        1.819683
   36        1.820768
   37        1.823639
   38        1.824634
   39        2.127868
   40        2.129290
   41        2.349355
   42        2.350601
   43        2.617976
   44        2.929793
   45        3.443328
   46        3.446905
   47        4.911133
   48        5.067123
   49        5.158231
   50        5.158738
   51        5.301373
   52        5.301864
   53        5.406515
   54        5.537187
   55        5.975586
   56        5.977569
   57        6.080534
   58        6.158958
   59        6.161014
   60        6.317962
   61        6.321204
   62        6.322500
   63        6.325917
   64        6.560516
   65       10.266835
   66       10.273915
   67       10.276170
   68       10.282971
   69       10.631281
   70       10.637933
   71       11.471320
   72       11.757231
   73       11.762185
   74       12.692929
   75       12.698597
   76       13.283956
   77       14.260678
   78       14.577858
   79       14.581174
   80       15.784300
   81       15.787313
   82       16.048358
   83       16.051433
   84       16.053884
 
  0.1111111E+00  0.1111111E+00  0.0000000E+00  0.6172840E-02
    1      -12.212102
    2      -11.137616
    3      -11.134252
    4       -9.467424
    5       -8.191576
    6       -8.187702
    7       -7.245400
    8       -7.240958
    9       -7.240503
   10       -7.236434
   11       -6.610497
   12       -5.922691
   13       -5.919086
   14       -5.911973
   15       -5.809162
   16       -5.806444
   17       -4.771733
   18       -4.767384
   19       -4.132385
   20       -4.116032
   21       -4.112271
   22       -3.827500
   23       -3.382969
   24       -3.377287
   25       -3.377094
   26       -3.373765
   27       -2.325907
   28       -2.321468
   29       -2.176279
   30        0.607861
   31        1.117081
   32        1.120662
   33        1.504263
   34        1.507579
   35        1.683454
   36        1.688043
   37        1.735878
   38        1.964525
   39        1.966357
   40        1.966745
   41        1.971751
   42        2.447783
   43        2.450957
   44        2.488147
   45        2.491792
   46        3.825811
   47        4.331057
   48        4.605522
   49        4.614695
   50        4.619791
   51        4.982360
   52        4.989088
   53        5.033337
   54        5.250358
   55        5.645447
   56        5.647304
   57        5.648449
   58        5.653098
   59        6.136512
   60        6.216890
   61        6.613653
   62        6.617683
   63        7.141355
   64        7.143124
   65       10.093645
   66       10.102617
   67       11.113820
   68       11.122644
   69       11.124121
   70       11.126095
   71       11.141174
   72       11.143127
   73       11.567114
   74       12.383701
   75       13.703402
   76       13.706700
   77       14.686464
   78       14.691604
   79       15.546759
   80       16.177798
   81       16.181841
   82       16.182649
   83       16.187743
   84       16.488473
 
  0.2222222E+00  0.1111111E+00  0.0000000E+00  0.6172840E-02
    1      -11.906478
    2      -10.840341
    3      -10.837005
    4       -9.205412
    5       -9.192794
    6       -8.549310
    7       -8.219946
    8       -8.216881
    9       -7.587283
   10       -7.584304
   11       -6.782827
   12       -6.697748
   13       -6.210478
   14       -5.840111
   15       -5.837402
   16       -5.369204
   17       -4.254345
   18       -4.251674
   19       -4.245288
   20       -3.309661
   21       -3.246592
   22       -2.701584
   23       -2.584364
   24       -2.582067
   25       -1.982015
   26       -1.978644
   27       -1.813538
   28       -1.615209
   29       -1.027004
   30       -0.348400
   31        0.184428
   32        0.187980
   33        0.902232
   34        0.934727
   35        1.336523
   36        1.417720
   37        1.419344
   38        1.806068
   39        1.999368
   40        2.003955
   41        2.017552
   42        2.078458
   43        2.253234
   44        2.257017
   45        2.765699
   46        3.279013
   47        3.659011
   48        3.665788
   49        3.848456
   50        3.934856
   51        4.334512
   52        4.433731
   53        4.441120
   54        4.764622
   55        4.767935
   56        4.771475
   57        5.384681
   58        5.387344
   59        6.483251
   60        6.630934
   61        6.807188
   62        6.811043
   63        7.768591
   64        7.839323
   65       10.089634
   66       10.097507
   67       10.687980
   68       10.843488
   69       11.219981
   70       11.638747
   71       11.643388
   72       12.321617
   73       12.326559
   74       12.545791
   75       13.899219
   76       14.783225
   77       14.907470
   78       15.763307
   79       16.357002
   80       16.361295
   81       16.372483
   82       16.445648
   83       16.449054
   84       16.749871
 
  0.3333333E+00  0.1111111E+00  0.0000000E+00  0.6172840E-02
    1      -11.449874
    2      -10.396422
    3      -10.393128
    4      -10.094245
    5       -9.080608
    6       -9.077444
    7       -8.783385
    8       -8.767693
    9       -7.797747
   10       -7.794737
   11       -7.570720
   12       -6.867898
   13       -6.396363
   14       -5.980241
   15       -5.977507
   16       -4.898735
   17       -4.026289
   18       -3.463375
   19       -3.459594
   20       -2.656461
   21       -2.434427
   22       -1.776101
   23       -1.773779
   24       -1.273131
   25       -1.171469
   26       -1.164688
   27       -1.048726
   28       -0.783888
   29       -0.780158
   30       -0.518856
   31       -0.515473
   32       -0.009868
   33        0.313012
   34        0.316528
   35        0.326312
   36        0.688877
   37        0.691106
   38        1.346343
   39        1.847977
   40        1.908602
   41        2.246183
   42        2.251272
   43        2.255784
   44        2.633654
   45        2.636404
   46        2.669952
   47        2.673770
   48        2.864731
   49        3.162913
   50        3.519882
   51        3.807387
   52        3.813214
   53        3.899019
   54        3.904980
   55        3.908169
   56        4.216194
   57        5.217578
   58        5.220473
   59        6.863764
   60        6.898929
   61        6.902052
   62        7.494128
   63        7.754053
   64        8.291438
   65        9.639617
   66       10.175272
   67       10.180917
   68       10.610492
   69       12.045926
   70       12.049368
   71       12.288461
   72       12.688339
   73       13.594431
   74       13.597948
   75       13.916367
   76       15.220296
   77       15.377706
   78       15.724388
   79       15.729803
   80       15.898946
   81       16.018040
   82       16.838278
   83       16.841470
   84       17.276029
 
  0.4444444E+00  0.1111111E+00  0.0000000E+00  0.6172840E-02
    1      -10.846412
    2      -10.842806
    3       -9.811159
    4       -9.807127
    5       -9.806531
    6       -9.802387
    7       -8.840836
    8       -8.243031
    9       -8.239269
   10       -7.868183
   11       -7.865167
   12       -6.930799
   13       -6.459689
   14       -6.035702
   15       -6.032957
   16       -4.843743
   17       -3.536215
   18       -2.958526
   19       -2.955254
   20       -2.720141
   21       -1.828751
   22       -1.346689
   23       -1.343237
   24       -1.305102
   25       -1.301233
   26       -1.144509
   27       -1.118513
   28       -0.670917
   29       -0.561415
   30       -0.558084
   31        0.230848
   32        0.235360
   33        0.345422
   34        0.387716
   35        0.391399
   36        0.821889
   37        0.946708
   38        0.953928
   39        0.954429
   40        0.954770
   41        1.640223
   42        1.644210
   43        1.770038
   44        2.815661
   45        2.821679
   46        3.122528
   47        3.125957
   48        3.127038
   49        3.131708
   50        3.221778
   51        3.222594
   52        3.224196
   53        3.231604
   54        3.656186
   55        3.662718
   56        3.872599
   57        5.160244
   58        5.163293
   59        6.923452
   60        6.925903
   61        7.320200
   62        7.323278
   63        8.427018
   64        8.508232
   65        8.654216
   66       10.224673
   67       10.228080
   68       10.512435
   69       12.202370
   70       12.205561
   71       12.738342
   72       13.814216
   73       13.818403
   74       13.894742
   75       14.767065
   76       14.772558
   77       14.775682
   78       14.777461
   79       15.603133
   80       15.606990
   81       17.034727
   82       17.039734
   83       17.339920
   84       17.343452
 
 -0.4444444E+00  0.1111111E+00  0.0000000E+00  0.6172840E-02
    1      -11.449959
    2      -10.396505
    3      -10.393213
    4      -10.094109
    5       -9.080464
    6       -9.077300
    7       -8.783669
    8       -8.767706
    9       -7.797936
   10       -7.794928
   11       -7.570635
   12       -6.867555
   13       -6.396595
   14       -5.979812
   15       -5.977113
   16       -4.897589
   17       -4.026744
   18       -3.462180
   19       -3.459953
   20       -2.656179
   21       -2.435285
   22       -1.777654
   23       -1.773846
   24       -1.273243
   25       -1.172049
   26       -1.165012
   27       -1.049083
   28       -0.783922
   29       -0.781900
   30       -0.519414
   31       -0.515641
   32       -0.010748
   33        0.312807
   34        0.316543
   35        0.326970
   36        0.688949
   37        0.693266
   38        1.347412
   39        1.847684
   40        1.909048
   41        2.246528
   42        2.252068
   43        2.255647
   44        2.633909
   45        2.636294
   46        2.670148
   47        2.674580
   48        2.865236
   49        3.163265
   50        3.519235
   51        3.807820
   52        3.811676
   53        3.899139
   54        3.905014
   55        3.908751
   56        4.215731
   57        5.217135
   58        5.220275
   59        6.863759
   60        6.900159
   61        6.902007
   62        7.495570
   63        7.754144
   64        8.290178
   65        9.637866
   66       10.175722
   67       10.179675
   68       10.611532
   69       12.045471
   70       12.049912
   71       12.288313
   72       12.688493
   73       13.593921
   74       13.598069
   75       13.916466
   76       15.220022
   77       15.377815
   78       15.725014
   79       15.729188
   80       15.898897
   81       16.018147
   82       16.837845
   83       16.841414
   84       17.279144
 
 -0.3333333E+00  0.1111111E+00  0.0000000E+00  0.6172840E-02
    1      -11.906539
    2      -10.840401
    3      -10.837065
    4       -9.205220
    5       -9.192850
    6       -8.549692
    7       -8.219795
    8       -8.216728
    9       -7.587705
   10       -7.584726
   11       -6.782717
   12       -6.696936
   13       -6.210976
   14       -5.839019
   15       -5.836539
   16       -5.367848
   17       -4.253253
   18       -4.251174
   19       -4.247253
   20       -3.310371
   21       -3.246277
   22       -2.701803
   23       -2.585762
   24       -2.582311
   25       -1.982421
   26       -1.978884
   27       -1.813618
   28       -1.615915
   29       -1.027377
   30       -0.349519
   31        0.184138
   32        0.185954
   33        0.901142
   34        0.936132
   35        1.336716
   36        1.418043
   37        1.421804
   38        1.806425
   39        1.999256
   40        2.003887
   41        2.018788
   42        2.077940
   43        2.253386
   44        2.257418
   45        2.766004
   46        3.279478
   47        3.661298
   48        3.664401
   49        3.848480
   50        3.935859
   51        4.334408
   52        4.435162
   53        4.438556
   54        4.764817
   55        4.767896
   56        4.771139
   57        5.383771
   58        5.386970
   59        6.483182
   60        6.632086
   61        6.809460
   62        6.811099
   63        7.766920
   64        7.839272
   65       10.089893
   66       10.095834
   67       10.686172
   68       10.844752
   69       11.220003
   70       11.638266
   71       11.644211
   72       12.321172
   73       12.326582
   74       12.546034
   75       13.899454
   76       14.783089
   77       14.907256
   78       15.766882
   79       16.358046
   80       16.361745
   81       16.369736
   82       16.445338
   83       16.448797
   84       16.752355
 
 -0.2222222E+00  0.1111111E+00  0.0000000E+00  0.6172840E-02
    1      -12.212138
    2      -11.137651
    3      -11.134288
    4       -9.467458
    5       -8.190246
    6       -8.189459
    7       -7.243516
    8       -7.241541
    9       -7.240574
   10       -7.238627
   11       -6.609039
   12       -5.921923
   13       -5.920663
   14       -5.911278
   15       -5.807035
   16       -5.805146
   17       -4.770800
   18       -4.769428
   19       -4.131724
   20       -4.115149
   21       -4.113802
   22       -3.828017
   23       -3.380872
   24       -3.378964
   25       -3.377492
   26       -3.375532
   27       -2.324588
   28       -2.323656
   29       -2.176326
   30        0.606545
   31        1.116744
   32        1.118397
   33        1.506627
   34        1.506963
   35        1.683400
   36        1.687987
   37        1.734664
   38        1.965889
   39        1.966673
   40        1.969678
   41        1.970395
   42        2.448120
   43        2.449961
   44        2.490419
   45        2.490969
   46        3.827224
   47        4.331351
   48        4.605640
   49        4.616628
   50        4.617999
   51        4.985223
   52        4.985660
   53        5.033501
   54        5.249960
   55        5.644708
   56        5.648014
   57        5.648355
   58        5.651612
   59        6.137406
   60        6.216851
   61        6.616306
   62        6.617937
   63        7.140420
   64        7.142284
   65       10.093692
   66       10.100841
   67       11.114831
   68       11.121064
   69       11.123345
   70       11.126512
   71       11.141326
   72       11.145496
   73       11.565458
   74       12.383964
   75       13.704428
   76       13.705840
   77       14.689371
   78       14.692151
   79       15.542879
   80       16.180534
   81       16.184021
   82       16.185398
   83       16.187841
   84       16.475521
 
 -0.1111111E+00  0.1111111E+00  0.0000000E+00  0.6172840E-02
    1      -12.365297
    2      -11.286639
    3      -11.283262
    4       -9.604983
    5       -7.698993
    6       -7.105348
    7       -7.102309
    8       -6.776399
    9       -6.773554
   10       -6.230708
   11       -6.227976
   12       -6.226998
   13       -6.223671
   14       -5.754819
   15       -5.753602
   16       -5.634773
   17       -4.686360
   18       -4.611450
   19       -4.606681
   20       -4.605859
   21       -4.604545
   22       -4.592763
   23       -4.591242
   24       -4.074659
   25       -4.071171
   26       -3.525703
   27       -3.523290
   28       -2.977553
   29       -2.358358
   30        1.353255
   31        1.356136
   32        1.522093
   33        1.526698
   34        1.684687
   35        1.819042
   36        1.820489
   37        1.820907
   38        1.825658
   39        2.128123
   40        2.131884
   41        2.347711
   42        2.350991
   43        2.619313
   44        2.928629
   45        3.444362
   46        3.447414
   47        4.911064
   48        5.067282
   49        5.154986
   50        5.161979
   51        5.298010
   52        5.305149
   53        5.406493
   54        5.537120
   55        5.973532
   56        5.977094
   57        6.080571
   58        6.159583
   59        6.161331
   60        6.319777
   61        6.321354
   62        6.322532
   63        6.326873
   64        6.559213
   65       10.265634
   66       10.275147
   67       10.276619
   68       10.280734
   69       10.631136
   70       10.639241
   71       11.472150
   72       11.757988
   73       11.760823
   74       12.693958
   75       12.696836
   76       13.284497
   77       14.264368
   78       14.575179
   79       14.580021
   80       15.787374
   81       15.790919
   82       16.045858
   83       16.048797
   84       16.053062
 
  0.1694066E-20  0.2222222E+00  0.0000000E+00  0.6172840E-02
    1      -12.135603
    2      -11.063199
    3      -11.059843
    4       -9.398730
    5       -8.765909
    6       -7.796284
    7       -7.793274
    8       -7.490631
    9       -7.486901
   10       -6.577563
   11       -6.573863
   12       -6.572990
   13       -6.569430
   14       -6.401185
   15       -5.449881
   16       -5.447356
   17       -4.505036
   18       -4.502362
   19       -3.905249
   20       -3.901359
   21       -3.899716
   22       -3.895955
   23       -3.472772
   24       -2.841575
   25       -2.837112
   26       -2.728332
   27       -2.725980
   28       -2.085514
   29       -1.709481
   30        0.688405
   31        0.690456
   32        1.191520
   33        1.193258
   34        1.195885
   35        1.197484
   36        1.763307
   37        1.767883
   38        1.805884
   39        1.808112
   40        1.823841
   41        1.904314
   42        2.343092
   43        2.344493
   44        2.826490
   45        3.178973
   46        3.182977
   47        3.974977
   48        4.325611
   49        4.326527
   50        4.583870
   51        4.688150
   52        4.880881
   53        4.881719
   54        5.153106
   55        5.155878
   56        5.191250
   57        6.211053
   58        6.214854
   59        6.216632
   60        6.220281
   61        6.284265
   62        6.800178
   63        6.803158
   64        7.521837
   65       10.571228
   66       10.577822
   67       10.579659
   68       10.585997
   69       11.114489
   70       11.128764
   71       11.132989
   72       11.709972
   73       11.715004
   74       12.966018
   75       12.971483
   76       14.368558
   77       14.426722
   78       15.599238
   79       15.603275
   80       15.987845
   81       15.990486
   82       16.250586
   83       16.465157
   84       16.469041
 
  0.1111111E+00  0.2222222E+00  0.0000000E+00  0.6172840E-02
    1      -11.906472
    2      -10.840334
    3      -10.836998
    4       -9.205104
    5       -9.193046
    6       -8.549351
    7       -8.219900
    8       -8.216840
    9       -7.587314
   10       -7.584333
   11       -6.782848
   12       -6.697700
   13       -6.210435
   14       -5.840082
   15       -5.837387
   16       -5.369239
   17       -4.254363
   18       -4.251770
   19       -4.245336
   20       -3.311094
   21       -3.246826
   22       -2.700261
   23       -2.586087
   24       -2.582876
   25       -1.980189
   26       -1.977943
   27       -1.813554
   28       -1.616612
   29       -1.025605
   30       -0.348185
   31        0.184622
   32        0.187993
   33        0.902295
   34        0.936494
   35        1.336096
   36        1.418497
   37        1.422000
   38        1.804260
   39        1.999342
   40        2.003880
   41        2.019283
   42        2.079118
   43        2.252578
   44        2.254033
   45        2.763804
   46        3.280866
   47        3.661856
   48        3.665806
   49        3.847294