  32  32   0   0
  0.8817899E+01  0.4932875E-09  0.4932875E-09  0.1339614E-08  0.5000000E-15
  1.000000000000000E-004
  CAR 
 graphite                                
     15.69090091    -16.94139563  301      4.68510919      1.00000000
    -16.941  0.0000E+00  0.0000E+00
    -16.833  0.0000E+00  0.0000E+00
    -16.724  0.0000E+00  0.0000E+00
    -16.615  0.0000E+00  0.0000E+00
    -16.506  0.0000E+00  0.0000E+00
    -16.398  0.0000E+00  0.0000E+00
    -16.289  0.0000E+00  0.0000E+00
    -16.180  0.0000E+00  0.0000E+00
    -16.071  0.0000E+00  0.0000E+00
    -15.962  0.0000E+00  0.0000E+00
    -15.854  0.0000E+00  0.0000E+00
    -15.745  0.0000E+00  0.0000E+00
    -15.636  0.0000E+00  0.0000E+00
    -15.527  0.0000E+00  0.0000E+00
    -15.419  0.0000E+00  0.0000E+00
    -15.310  0.0000E+00  0.0000E+00
    -15.201  0.0000E+00  0.0000E+00
    -15.092  0.0000E+00  0.0000E+00
    -14.983  0.0000E+00  0.0000E+00
    -14.875  0.6570E+00  0.1696E-01
    -14.766  0.2522E+01  0.2022E+00
    -14.657  0.3426E+01  0.5154E+00
    -14.548  0.5003E+01  0.9814E+00
    -14.440  0.4849E+01  0.1526E+01
    -14.331  0.5013E+01  0.2065E+01
    -14.222  0.4984E+01  0.2609E+01
    -14.113  0.4886E+01  0.3147E+01
    -14.004  0.4862E+01  0.3675E+01
    -13.896  0.5111E+01  0.4217E+01
    -13.787  0.5495E+01  0.4787E+01
    -13.678  0.7279E+01  0.5519E+01
    -13.569  0.7384E+01  0.6319E+01
    -13.461  0.5853E+01  0.7125E+01
    -13.352  0.2360E+01  0.7528E+01
    -13.243  0.1849E+01  0.7749E+01
    -13.134  0.2075E+01  0.7957E+01
    -13.026  0.2477E+01  0.8204E+01
    -12.917  0.3220E+01  0.8501E+01
    -12.808  0.1044E+02  0.9281E+01
    -12.699  0.8181E+01  0.1016E+02
    -12.590  0.6785E+01  0.1101E+02
    -12.482  0.4042E+01  0.1152E+02
    -12.373  0.4153E+01  0.1196E+02
    -12.264  0.4281E+01  0.1242E+02
    -12.155  0.4436E+01  0.1289E+02
    -12.047  0.4581E+01  0.1339E+02
    -11.938  0.4712E+01  0.1389E+02
    -11.829  0.5081E+01  0.1441E+02
    -11.720  0.5523E+01  0.1499E+02
    -11.611  0.6409E+01  0.1562E+02
    -11.503  0.5986E+01  0.1630E+02
    -11.394  0.5619E+01  0.1693E+02
    -11.285  0.5514E+01  0.1753E+02
    -11.176  0.5681E+01  0.1814E+02
    -11.068  0.5848E+01  0.1877E+02
    -10.959  0.6014E+01  0.1941E+02
    -10.850  0.5744E+01  0.2005E+02
    -10.741  0.5588E+01  0.2067E+02
    -10.632  0.5485E+01  0.2127E+02
    -10.524  0.4779E+01  0.2184E+02
    -10.415  0.3833E+01  0.2229E+02
    -10.306  0.4621E+01  0.2275E+02
    -10.197  0.4995E+01  0.2328E+02
    -10.089  0.5182E+01  0.2383E+02
     -9.980  0.6731E+01  0.2446E+02
     -9.871  0.9419E+01  0.2532E+02
     -9.762  0.1005E+02  0.2649E+02
     -9.654  0.7712E+01  0.2745E+02
     -9.545  0.5500E+01  0.2817E+02
     -9.436  0.4598E+01  0.2870E+02
     -9.327  0.4116E+01  0.2918E+02
     -9.218  0.3633E+01  0.2960E+02
     -9.110  0.5293E+01  0.3025E+02
     -9.001  0.3863E+01  0.3083E+02
     -8.892  0.1893E+01  0.3106E+02
     -8.783  0.1686E+01  0.3125E+02
     -8.675  0.1479E+01  0.3142E+02
     -8.566  0.1272E+01  0.3157E+02
     -8.457  0.1443E+01  0.3171E+02
     -8.348  0.1943E+01  0.3190E+02
     -8.239  0.2443E+01  0.3214E+02
     -8.131  0.2978E+01  0.3243E+02
     -8.022  0.6914E+01  0.3293E+02
     -7.913  0.9718E+01  0.3396E+02
     -7.804  0.5061E+01  0.3465E+02
     -7.696  0.5464E+01  0.3521E+02
     -7.587  0.6639E+01  0.3586E+02
     -7.478  0.7815E+01  0.3665E+02
     -7.369  0.8990E+01  0.3756E+02
     -7.260  0.8755E+01  0.3859E+02
     -7.152  0.5628E+01  0.3940E+02
     -7.043  0.5583E+01  0.4000E+02
     -6.934  0.5581E+01  0.4061E+02
     -6.825  0.5497E+01  0.4122E+02
     -6.717  0.5339E+01  0.4181E+02
     -6.608  0.5155E+01  0.4238E+02
     -6.499  0.5034E+01  0.4293E+02
     -6.390  0.4916E+01  0.4347E+02
     -6.282  0.4797E+01  0.4400E+02
     -6.173  0.4678E+01  0.4452E+02
     -6.064  0.4560E+01  0.4502E+02
     -5.955  0.4441E+01  0.4551E+02
     -5.846  0.4348E+01  0.4598E+02
     -5.738  0.4907E+01  0.4648E+02
     -5.629  0.5502E+01  0.4705E+02
     -5.520  0.6096E+01  0.4768E+02
     -5.411  0.6690E+01  0.4838E+02
     -5.303  0.7284E+01  0.4914E+02
     -5.194  0.7878E+01  0.4996E+02
     -5.085  0.8472E+01  0.5085E+02
     -4.976  0.9008E+01  0.5180E+02
     -4.867  0.3895E+01  0.5247E+02
     -4.759  0.6189E+01  0.5300E+02
     -4.650  0.6708E+01  0.5375E+02
     -4.541  0.5230E+01  0.5440E+02
     -4.432  0.3751E+01  0.5489E+02
     -4.324  0.2272E+01  0.5521E+02
     -4.215  0.1068E+01  0.5538E+02
     -4.106  0.2376E+01  0.5556E+02
     -3.997  0.3892E+01  0.5590E+02
     -3.888  0.5408E+01  0.5641E+02
     -3.780  0.8889E+01  0.5714E+02
     -3.671  0.1186E+02  0.5833E+02
     -3.562  0.1317E+02  0.5965E+02
     -3.453  0.1174E+02  0.6106E+02
     -3.345  0.5228E+01  0.6202E+02
     -3.236  0.5067E+01  0.6253E+02
     -3.127  0.6267E+01  0.6316E+02
     -3.018  0.7187E+01  0.6388E+02
     -2.910  0.1234E+02  0.6493E+02
     -2.801  0.1816E+02  0.6658E+02
     -2.692  0.7760E+01  0.6882E+02
     -2.583  0.6962E+01  0.6956E+02
     -2.474  0.7190E+01  0.7033E+02
     -2.366  0.7751E+01  0.7114E+02
     -2.257  0.8471E+01  0.7202E+02
     -2.148  0.1318E+02  0.7309E+02
     -2.039  0.1431E+02  0.7479E+02
     -1.931  0.1119E+02  0.7617E+02
     -1.822  0.1080E+02  0.7730E+02
     -1.713  0.3938E+02  0.7941E+02
     -1.604  0.1742E+02  0.8210E+02
     -1.495  0.1476E+02  0.8415E+02
     -1.387  0.1429E+02  0.8568E+02
     -1.278  0.1739E+02  0.8736E+02
     -1.169  0.1089E+02  0.8910E+02
     -1.060  0.6965E+01  0.9006E+02
     -0.952  0.6773E+01  0.9076E+02
     -0.843  0.7773E+01  0.9156E+02
     -0.734  0.8715E+01  0.9245E+02
     -0.625  0.1001E+02  0.9346E+02
     -0.516  0.1111E+02  0.9463E+02
     -0.408  0.1107E+02  0.9583E+02
     -0.299  0.3010E+02  0.9744E+02
     -0.190  0.1240E+02  0.9882E+02
     -0.081  0.1163E+02  0.1002E+03
      0.027  0.1122E+02  0.1014E+03
      0.136  0.9528E+01  0.1025E+03
      0.245  0.9692E+01  0.1036E+03
      0.354  0.9663E+01  0.1046E+03
      0.462  0.9722E+01  0.1057E+03
      0.571  0.9602E+01  0.1067E+03
      0.680  0.9635E+01  0.1078E+03
      0.789  0.9336E+01  0.1088E+03
      0.898  0.9203E+01  0.1098E+03
      1.006  0.9214E+01  0.1108E+03
      1.115  0.9714E+01  0.1119E+03
      1.224  0.9522E+01  0.1129E+03
      1.333  0.9789E+01  0.1140E+03
      1.441  0.1035E+02  0.1151E+03
      1.550  0.9995E+01  0.1162E+03
      1.659  0.7743E+01  0.1172E+03
      1.768  0.6562E+01  0.1179E+03
      1.877  0.5964E+01  0.1186E+03
      1.985  0.4092E+01  0.1192E+03
      2.094  0.2975E+01  0.1196E+03
      2.203  0.3069E+01  0.1199E+03
      2.312  0.3914E+01  0.1202E+03
      2.420  0.5425E+01  0.1207E+03
      2.529  0.7795E+01  0.1215E+03
      2.638  0.8917E+01  0.1224E+03
      2.747  0.8856E+01  0.1234E+03
      2.856  0.6945E+01  0.1242E+03
      2.964  0.5290E+01  0.1249E+03
      3.073  0.4227E+01  0.1254E+03
      3.182  0.3497E+01  0.1258E+03
      3.291  0.3116E+01  0.1262E+03
      3.399  0.2740E+01  0.1265E+03
      3.508  0.2379E+01  0.1268E+03
      3.617  0.2069E+01  0.1270E+03
      3.726  0.1785E+01  0.1272E+03
      3.834  0.1491E+01  0.1274E+03
      3.943  0.1257E+01  0.1276E+03
      4.052  0.1022E+01  0.1277E+03
      4.161  0.8093E+00  0.1278E+03
      4.270  0.6179E+00  0.1279E+03
      4.378  0.4396E+00  0.1279E+03
      4.487  0.2725E+00  0.1280E+03
      4.596  0.1153E+00  0.1280E+03
      4.705  0.8633E-02  0.1280E+03
      4.813  0.1254E+00  0.1280E+03
      4.922  0.2529E+00  0.1280E+03
      5.031  0.3919E+00  0.1281E+03
      5.140  0.5448E+00  0.1281E+03
      5.249  0.7133E+00  0.1282E+03
      5.357  0.9057E+00  0.1283E+03
      5.466  0.1143E+01  0.1284E+03
      5.575  0.1391E+01  0.1285E+03
      5.684  0.1639E+01  0.1287E+03
      5.792  0.2306E+01  0.1289E+03
      5.901  0.3129E+01  0.1292E+03
      6.010  0.3673E+01  0.1296E+03
      6.119  0.4063E+01  0.1300E+03
      6.228  0.6520E+01  0.1305E+03
      6.336  0.1242E+02  0.1315E+03
      6.445  0.1020E+02  0.1328E+03
      6.554  0.8042E+01  0.1338E+03
      6.663  0.6447E+01  0.1346E+03
      6.771  0.5762E+01  0.1353E+03
      6.880  0.5314E+01  0.1359E+03
      6.989  0.5132E+01  0.1364E+03
      7.098  0.4514E+01  0.1369E+03
      7.207  0.3786E+01  0.1374E+03
      7.315  0.3628E+01  0.1378E+03
      7.424  0.3786E+01  0.1382E+03
      7.533  0.4192E+01  0.1386E+03
      7.642  0.4597E+01  0.1391E+03
      7.750  0.4877E+01  0.1396E+03
      7.859  0.4801E+01  0.1401E+03
      7.968  0.4615E+01  0.1407E+03
      8.077  0.4463E+01  0.1412E+03
      8.185  0.4307E+01  0.1416E+03
      8.294  0.4197E+01  0.1421E+03
      8.403  0.4115E+01  0.1425E+03
      8.512  0.4049E+01  0.1430E+03
      8.621  0.3991E+01  0.1434E+03
      8.729  0.3943E+01  0.1439E+03
      8.838  0.3722E+01  0.1443E+03
      8.947  0.3467E+01  0.1447E+03
      9.056  0.3370E+01  0.1450E+03
      9.164  0.3512E+01  0.1454E+03
      9.273  0.3697E+01  0.1458E+03
      9.382  0.3674E+01  0.1462E+03
      9.491  0.3641E+01  0.1466E+03
      9.600  0.3697E+01  0.1470E+03
      9.708  0.3750E+01  0.1474E+03
      9.817  0.3774E+01  0.1478E+03
      9.926  0.3753E+01  0.1482E+03
     10.035  0.3724E+01  0.1486E+03
     10.143  0.3715E+01  0.1490E+03
     10.252  0.3722E+01  0.1494E+03
     10.361  0.4820E+01  0.1499E+03
     10.470  0.6002E+01  0.1505E+03
     10.579  0.5370E+01  0.1511E+03
     10.687  0.5800E+01  0.1517E+03
     10.796  0.5568E+01  0.1523E+03
     10.905  0.4997E+01  0.1529E+03
     11.014  0.6344E+01  0.1535E+03
     11.122  0.4088E+01  0.1540E+03
     11.231  0.2596E+01  0.1544E+03
     11.340  0.2509E+01  0.1547E+03
     11.449  0.2745E+01  0.1549E+03
     11.557  0.3040E+01  0.1553E+03
     11.666  0.3427E+01  0.1556E+03
     11.775  0.3169E+01  0.1560E+03
     11.884  0.3083E+01  0.1563E+03
     11.993  0.6546E+01  0.1568E+03
     12.101  0.6817E+01  0.1575E+03
     12.210  0.8429E+01  0.1584E+03
     12.319  0.1083E+02  0.1594E+03
     12.428  0.1308E+02  0.1607E+03
     12.536  0.1335E+02  0.1621E+03
     12.645  0.1354E+02  0.1636E+03
     12.754  0.1204E+02  0.1650E+03
     12.863  0.1001E+02  0.1662E+03
     12.972  0.1165E+02  0.1674E+03
     13.080  0.4417E+00  0.1679E+03
     13.189  0.1962E+00  0.1680E+03
     13.298  0.1203E+00  0.1680E+03
     13.407  0.6294E-01  0.1680E+03
     13.515  0.2399E-01  0.1680E+03
     13.624  0.3467E-02  0.1680E+03
     13.733  0.0000E+00  0.1680E+03
     13.842  0.0000E+00  0.1680E+03
     13.951  0.0000E+00  0.1680E+03
     14.059  0.0000E+00  0.1680E+03
     14.168  0.0000E+00  0.1680E+03
     14.277  0.0000E+00  0.1680E+03
     14.386  0.0000E+00  0.1680E+03
     14.494  0.0000E+00  0.1680E+03
     14.603  0.0000E+00  0.1680E+03
     14.712  0.0000E+00  0.1680E+03
     14.821  0.0000E+00  0.1680E+03
     14.929  0.0000E+00  0.1680E+03
     15.038  0.0000E+00  0.1680E+03
     15.147  0.0000E+00  0.1680E+03
     15.256  0.0000E+00  0.1680E+03
     15.365  0.0000E+00  0.1680E+03
     15.473  0.0000E+00  0.1680E+03
     15.582  0.0000E+00  0.1680E+03
     15.691  0.0000E+00  0.1680E+03
