 running on    6 total cores
 distrk:  each k-point on    6 cores,    1 groups
 distr:  one band on    3 cores,    2 groups
 using from now: INCAR     
 vasp.5.3.5 31Mar14 (build Nov 02 2014 15:17:37) complex                        
  
 POSCAR found type information on POSCAR  C 
 POSCAR found :  1 types and       4 ions
 scaLAPACK will be used
 LDA part: xc-table for Pade appr. of Perdew
 POSCAR, INCAR and KPOINTS ok, starting setup
 WARNING: small aliasing (wrap around) errors must be expected
 FFT: planning ...
 WAVECAR not read
 WARNING: random wavefunctions but no delay for mixing, default for NELMDL
 entering main loop
       N       E                     dE             d eps       ncg     rms          rms(c)
DAV:   1     0.382877527332E+02    0.38288E+02   -0.96293E+03 10920   0.146E+03
DAV:   2    -0.311062949661E+02   -0.69394E+02   -0.63385E+02 14920   0.234E+02
DAV:   3    -0.336184542789E+02   -0.25122E+01   -0.24826E+01 13804   0.421E+01
DAV:   4    -0.336388102993E+02   -0.20356E-01   -0.20460E-01 13076   0.414E+00
DAV:   5    -0.336391397387E+02   -0.32944E-03   -0.33475E-03 13896   0.437E-01    0.773E+00
DAV:   6    -0.323356118210E+02    0.13035E+01   -0.98841E-01 11664   0.825E+00    0.408E+00
DAV:   7    -0.319092104113E+02    0.42640E+00   -0.95389E-01 12160   0.830E+00    0.520E-01
DAV:   8    -0.319110506354E+02   -0.18402E-02   -0.11982E-02 13760   0.102E+00    0.229E-01
DAV:   9    -0.319112960665E+02   -0.24543E-03   -0.76828E-04 12424   0.305E-01    0.206E-02
DAV:  10    -0.319112956409E+02    0.42558E-06   -0.12759E-05 13760   0.365E-02    0.892E-03
DAV:  11    -0.319113019869E+02   -0.63459E-05   -0.47376E-06 12192   0.248E-02    0.963E-04
DAV:  12    -0.319113013566E+02    0.63026E-06   -0.57332E-08  7428   0.231E-03
   1 F= -.32742919E+02 E0= -.32742919E+02  d E =-.327429E+02
 curvature:   0.00 expect dE= 0.000E+00 dE for cont linesearch  0.000E+00
 trial: gam= 0.00000 g(F)=  0.139E-03 g(S)=  0.000E+00 ort = 0.000E+00 (trialstep = 0.100E+01)
 search vector abs. value=  0.139E-03
 bond charge predicted
       N       E                     dE             d eps       ncg     rms          rms(c)
DAV:   1    -0.319110990150E+02    0.20297E-03   -0.18239E-02 12984   0.129E+00    0.306E-02
DAV:   2    -0.319110989210E+02    0.93989E-07   -0.25001E-04 13260   0.154E-01    0.203E-02
DAV:   3    -0.319110877243E+02    0.11197E-04   -0.38017E-05 13404   0.674E-02    0.398E-03
DAV:   4    -0.319110873773E+02    0.34700E-06   -0.49420E-06 12216   0.227E-02
   2 F= -.32742705E+02 E0= -.32742705E+02  d E =0.213632E-03
 trial-energy change:    0.000214  1 .order    0.000203   -0.000139    0.000545
 step:   0.1890(harm=  0.2034)  dis= 0.00022  next Energy=   -32.742932 (dE=-0.131E-04)
 bond charge predicted
       N       E                     dE             d eps       ncg     rms          rms(c)
DAV:   1    -0.319113227097E+02   -0.23499E-03   -0.12002E-02 12964   0.104E+00    0.248E-02
DAV:   2    -0.319113220940E+02    0.61573E-06   -0.16337E-04 13244   0.125E-01    0.164E-02
DAV:   3    -0.319113141696E+02    0.79244E-05   -0.24907E-05 13424   0.545E-02    0.318E-03
DAV:   4    -0.319113139188E+02    0.25087E-06   -0.32123E-06 11560   0.183E-02
   3 F= -.32742931E+02 E0= -.32742931E+02  d E =-.126502E-04
 curvature:  -0.10 expect dE=-0.117E-06 dE for cont linesearch -0.610E-07
 trial: gam=-0.05740 g(F)=  0.115E-05 g(S)=  0.000E+00 ort = 0.913E-05 (trialstep = 0.838E+00)
 search vector abs. value=  0.557E-06
 reached required accuracy - stopping structural energy minimisation
