   32   32    1    1
  0.6647258E+01  0.4934311E-09  0.4934311E-09  0.1008861E-08  0.5000000E-15
  1.000000000000000E-004
  CAR 
 graphite                                
    128    163     84
 
  0.0000000E+00  0.0000000E+00  0.0000000E+00  0.3086420E-02
    1      -12.850774
    2      -12.043244
    3      -12.040645
    4      -10.913704
    5       -7.276232
    6       -7.274871
    7       -7.273875
    8       -6.733675
    9       -6.728740
   10       -6.728027
   11       -6.727283
   12       -6.726562
   13       -6.722971
   14       -6.697403
   15       -6.695416
   16       -6.691559
   17       -5.690931
   18       -5.687680
   19       -5.686905
   20       -5.686172
   21       -5.685051
   22       -5.682285
   23       -5.423537
   24       -5.421702
   25       -5.419378
   26       -5.085666
   27       -5.084160
   28       -5.083632
   29       -2.698328
   30        0.292469
   31        0.297261
   32        0.959029
   33        0.961783
   34        0.962974
   35        1.242878
   36        1.246068
   37        1.246254
   38        1.247545
   39        1.249386
   40        1.251501
   41        1.550665
   42        1.553505
   43        1.554898
   44        3.344228
   45        3.345150
   46        3.346009
   47        3.972359
   48        4.516765
   49        4.521249
   50        4.632510
   51        4.636340
   52        4.641184
   53        4.644924
   54        4.755196
   55        4.760130
   56        5.317622
   57        5.321187
   58        5.322837
   59        5.344715
   60        5.352664
   61        5.353100
   62        5.353869
   63        5.354559
   64        5.363504
   65        9.247548
   66        9.255783
   67        9.257199
   68        9.258002
   69        9.258128
   70        9.266695
   71       10.496865
   72       10.499378
   73       10.501916
   74       11.047446
   75       11.049553
   76       11.050541
   77       13.828859
   78       13.833319
   79       13.836537
   80       14.900961
   81       14.905832
   82       14.907623
   83       14.908878
   84       14.913386
 
  0.1111111E+00  0.6938894E-17  0.0000000E+00  0.6172840E-02
    1      -12.774946
    2      -11.969246
    3      -11.966653
    4      -10.843803
    5       -8.159742
    6       -7.574608
    7       -7.572440
    8       -7.495522
    9       -7.493355
   10       -6.958005
   11       -6.954556
   12       -6.953556
   13       -6.951720
   14       -6.688378
   15       -6.458161
   16       -6.453376
   17       -5.566166
   18       -5.563179
   19       -5.340366
   20       -5.338908
   21       -5.337889
   22       -5.335064
   23       -5.312802
   24       -4.812185
   25       -4.809219
   26       -4.643745
   27       -4.641843
   28       -4.098686
   29       -2.607372
   30        0.376036
   31        0.380825
   32        0.713090
   33        0.716028
   34        1.013543
   35        1.016405
   36        1.018713
   37        1.019545
   38        1.035647
   39        1.318606
   40        1.321902
   41        1.345375
   42        1.348361
   43        1.624641
   44        2.677402
   45        3.202680
   46        3.204250
   47        4.046234
   48        4.182851
   49        4.330991
   50        4.338528
   51        4.340829
   52        4.480146
   53        4.484737
   54        4.490443
   55        4.628209
   56        4.946126
   57        4.952464
   58        5.297449
   59        5.305153
   60        5.306431
   61        5.310077
   62        5.564595
   63        5.568146
   64        5.891599
   65        9.376470
   66        9.380396
   67        9.381981
   68        9.389391
   69        9.760216
   70        9.767497
   71        9.998100
   72       10.255299
   73       10.257944
   74       11.245895
   75       11.248669
   76       11.852620
   77       13.884370
   78       14.187999
   79       14.193900
   80       14.960054
   81       14.963609
   82       15.234627
   83       15.240289
   84       15.243039
 
  0.2222222E+00  0.0000000E+00  0.0000000E+00  0.6172840E-02
    1      -12.547581
    2      -11.747633
    3      -11.745058
    4      -10.634447
    5       -9.214254
    6       -8.507712
    7       -8.505418
    8       -7.954510
    9       -7.952387
   10       -7.581131
   11       -7.298832
   12       -7.296068
   13       -7.295125
   14       -7.293181
   15       -6.504564
   16       -6.501144
   17       -5.131176
   18       -5.129192
   19       -4.641618
   20       -4.640181
   21       -4.639143
   22       -4.636400
   23       -4.005475
   24       -3.950202
   25       -3.948014
   26       -3.477696
   27       -3.474887
   28       -2.814645
   29       -2.334965
   30        0.063391
   31        0.066060
   32        0.398709
   33        0.401567
   34        0.403510
   35        0.404562
   36        0.625442
   37        0.630211
   38        0.786700
   39        0.789527
   40        1.254131
   41        1.533583
   42        1.537164
   43        1.565846
   44        1.835073
   45        2.929130
   46        2.931115
   47        3.286114
   48        3.505741
   49        3.511527
   50        3.736849
   51        3.879435
   52        4.062132
   53        4.068377
   54        4.096110
   55        4.101672
   56        4.256549
   57        4.265979
   58        5.185274
   59        5.192859
   60        5.194006
   61        5.197852
   62        6.134989
   63        6.138614
   64        6.418211
   65        9.688817
   66        9.692998
   67        9.694681
   68        9.702136
   69        9.844024
   70        9.846255
   71       10.042025
   72       10.907746
   73       10.914170
   74       11.500119
   75       11.503803
   76       13.001256
   77       14.038537
   78       15.123060
   79       15.125991
   80       15.170668
   81       15.176260
   82       15.623564
   83       15.822193
   84       15.828938
 
  0.3333333E+00  0.0000000E+00  0.0000000E+00  0.6172840E-02
    1      -12.169835
    2      -11.379583
    3      -11.377039
    4      -10.286662
    5      -10.159228
    6       -9.423592
    7       -9.421210
    8       -8.439661
    9       -8.226324
   10       -8.224285
   11       -7.554765
   12       -7.552249
   13       -7.551342
   14       -7.549367
   15       -6.697856
   16       -6.695187
   17       -4.327935
   18       -4.325940
   19       -3.827645
   20       -3.826279
   21       -3.825152
   22       -3.822116
   23       -3.206424
   24       -3.203968
   25       -2.524765
   26       -2.039991
   27       -2.036940
   28       -1.883068
   29       -1.449514
   30       -0.775054
   31       -0.772782
   32       -0.429053
   33       -0.425913
   34       -0.424784
   35       -0.423281
   36        0.014613
   37        0.017165
   38        0.489740
   39        1.033568
   40        1.038216
   41        1.609972
   42        1.882348
   43        1.886112
   44        2.021669
   45        2.175925
   46        2.324728
   47        2.329464
   48        2.638712
   49        2.694668
   50        2.696774
   51        3.181490
   52        3.186726
   53        3.281933
   54        3.500192
   55        3.505700
   56        3.734016
   57        4.623702
   58        5.070120
   59        5.077573
   60        5.078623
   61        5.082631
   62        6.206406
   63        6.796635
   64        6.800308
   65        9.413948
   66        9.415986
   67       10.048796
   68       10.053180
   69       10.054855
   70       10.062855
   71       11.092094
   72       11.645967
   73       11.650289
   74       12.272451
   75       12.278717
   76       14.217052
   77       14.286368
   78       15.346629
   79       15.398128
   80       15.401575
   81       15.479287
   82       15.484925
   83       15.836786
   84       16.324240
 
  0.4444444E+00  0.0000000E+00  0.0000000E+00  0.6172840E-02
    1      -11.643572
    2      -10.971780
    3      -10.867011
    4      -10.864502
    5      -10.213258
    6      -10.210806
    7       -9.802379
    8       -9.184815
    9       -8.365401
   10       -8.363410
   11       -7.687279
   12       -7.684858
   13       -7.683966
   14       -7.681977
   15       -6.812402
   16       -6.809953
   17       -3.502299
   18       -3.500017
   19       -3.084331
   20       -3.083308
   21       -3.082473
   22       -3.078144
   23       -2.723654
   24       -2.720848
   25       -1.364571
   26       -1.362589
   27       -1.256064
   28       -1.204508
   29       -1.200966
   30       -1.200188
   31       -1.198697
   32       -0.983496
   33       -0.774627
   34       -0.772520
   35       -0.557398
   36       -0.554152
   37       -0.460555
   38       -0.046866
   39        0.558535
   40        0.902454
   41        0.906196
   42        1.340825
   43        1.638754
   44        1.643937
   45        2.087395
   46        2.341379
   47        2.346493
   48        2.348567
   49        2.352560
   50        2.566455
   51        2.568485
   52        2.629109
   53        2.660406
   54        2.903595
   55        2.908605
   56        3.165553
   57        5.000590
   58        5.008025
   59        5.009026
   60        5.013077
   61        5.102681
   62        5.664527
   63        7.317023
   64        7.320857
   65        9.057115
   66        9.059923
   67       10.290488
   68       10.295040
   69       10.296662
   70       10.304876
   71       11.691754
   72       11.696513
   73       12.643849
   74       13.629586
   75       13.636067
   76       14.298793
   77       14.611078
   78       14.762560
   79       14.768873
   80       14.982307
   81       15.447847
   82       15.801961
   83       15.805838
   84       16.384871
 
 -0.8470329E-21  0.1111111E+00  0.0000000E+00  0.6172840E-02
    1      -12.774944
    2      -11.969244
    3      -11.966651
    4      -10.843800
    5       -8.159787
    6       -7.575128
    7       -7.571781
    8       -7.495630
    9       -7.493490
   10       -6.957694
   11       -6.954660
   12       -6.953856
   13       -6.950707
   14       -6.688864
   15       -6.456678
   16       -6.454068
   17       -5.566831
   18       -5.564372
   19       -5.342893
   20       -5.339523
   21       -5.338066
   22       -5.334982
   23       -5.311033
   24       -4.810445
   25       -4.808633
   26       -4.645349
   27       -4.641481
   28       -4.097557
   29       -2.607376
   30        0.376030
   31        0.380819
   32        0.714742
   33        0.715895
   34        1.015507
   35        1.016432
   36        1.019194
   37        1.019956
   38        1.034344
   39        1.318154
   40        1.319132
   41        1.347106
   42        1.348313
   43        1.622988
   44        2.676809
   45        3.202545
   46        3.205191
   47        4.046219
   48        4.186138
   49        4.331924
   50        4.338496
   51        4.343168
   52        4.478038
   53        4.480228
   54        4.493888
   55        4.624663
   56        4.945216
   57        4.950957
   58        5.298903
   59        5.305113
   60        5.306006
   61        5.312177
   62        5.564896
   63        5.569044
   64        5.890004
   65        9.373567
   66        9.379758
   67        9.381827
   68        9.387794
   69        9.763329
   70        9.768968
   71       10.000708
   72       10.253479
   73       10.258087
   74       11.243620
   75       11.248337
   76       11.854327
   77       13.883574
   78       14.189679
   79       14.193086
   80       14.959107
   81       14.962747
   82       15.237710
   83       15.241053
   84       15.242167
 
  0.1111111E+00  0.1111111E+00  0.0000000E+00  0.6172840E-02
    1      -12.623331
    2      -11.821423
    3      -11.818842
    4      -10.704139
    5       -8.646973
    6       -8.643234
    7       -7.961525
    8       -7.957287
    9       -7.957206
   10       -7.953074
   11       -7.080276
   12       -7.077231
   13       -7.073734
   14       -6.540051
   15       -6.537784
   16       -6.500620
   17       -5.501756
   18       -5.497582
   19       -5.240336
   20       -4.919749
   21       -4.656235
   22       -4.652221
   23       -4.125786
   24       -4.120398
   25       -4.120318
   26       -4.117002
   27       -3.436761
   28       -3.432378
   29       -2.425560
   30       -0.013493
   31        0.325998
   32        0.329120
   33        0.542574
   34        0.547351
   35        0.716271
   36        0.862004
   37        0.865186
   38        1.160029
   39        1.161732
   40        1.161926
   41        1.166896
   42        1.486858
   43        1.490358
   44        2.191310
   45        2.194098
   46        3.600041
   47        3.627855
   48        3.796362
   49        3.803031
   50        3.854695
   51        4.135467
   52        4.163278
   53        4.170469
   54        4.193020
   55        4.323113
   56        4.602119
   57        4.607275
   58        4.607538
   59        4.614242
   60        5.557341
   61        5.605505
   62        5.612397
   63        6.301927
   64        6.305626
   65        9.183178
   66        9.191076
   67        9.857268
   68        9.861740
   69       10.269623
   70       10.277201
   71       10.277909
   72       10.281973
   73       10.516168
   74       10.562703
   75       12.310170
   76       12.313148
   77       14.290911
   78       14.295779
   79       15.122766
   80       15.342117
   81       15.346725
   82       15.348835
   83       15.353582
   84       15.816939
 
  0.2222222E+00  0.1111111E+00  0.0000000E+00  0.6172840E-02
    1      -12.320782
    2      -11.526572
    3      -11.524015
    4      -10.425597
    5       -9.648316
    6       -9.000419
    7       -8.927835
    8       -8.925513
    9       -8.300486
   10       -8.298216
   11       -7.973675
   12       -7.386611
   13       -7.172434
   14       -6.569025
   15       -6.566934
   16       -6.081189
   17       -5.207929
   18       -4.991470
   19       -4.987734
   20       -4.341559
   21       -3.847238
   22       -3.334756
   23       -3.332986
   24       -3.240348
   25       -2.735824
   26       -2.732825
   27       -2.701725
   28       -2.115479
   29       -2.063415
   30       -0.960513
   31       -0.591575
   32       -0.588494
   33       -0.135850
   34        0.301273
   35        0.625452
   36        0.626655
   37        0.872252
   38        0.876969
   39        1.002486
   40        1.079993
   41        1.158389
   42        1.447926
   43        1.451403
   44        1.767858
   45        1.821634
   46        2.609668
   47        2.844721
   48        2.851115
   49        3.022965
   50        3.501337
   51        3.618406
   52        3.625319
   53        3.694024
   54        3.699292
   55        3.706179
   56        3.823188
   57        4.332064
   58        4.337398
   59        4.482189
   60        5.802791
   61        5.809555
   62        6.041924
   63        6.443604
   64        6.657959
   65        9.179569
   66        9.187204
   67        9.706723
   68        9.889858
   69       10.434662
   70       10.810405
   71       10.812629
   72       10.818730
   73       11.555351
   74       11.561455
   75       12.569824
   76       13.478670
   77       14.495784
   78       15.325103
   79       15.561063
   80       15.564200
   81       15.757456
   82       15.810191
   83       15.818902
   84       16.338463
 
  0.3333333E+00  0.1111111E+00  0.0000000E+00  0.6172840E-02
    1      -11.868765
    2      -11.086286
    3      -11.083767
    4      -10.527441
    5      -10.009595
    6       -9.781304
    7       -9.778890
    8       -9.216216
    9       -8.777076
   10       -8.509113
   11       -8.506815
   12       -7.579799
   13       -7.341143
   14       -6.707192
   15       -6.705119
   16       -5.949935
   17       -4.653470
   18       -4.211546
   19       -4.208005
   20       -3.655739
   21       -2.989798
   22       -2.535714
   23       -2.533713
   24       -2.033869
   25       -1.856810
   26       -1.733944
   27       -1.544819
   28       -1.541520
   29       -1.523890
   30       -1.282952
   31       -1.280080
   32       -1.056919
   33       -0.744220
   34       -0.373859
   35       -0.089269
   36       -0.087396
   37        0.062163
   38        0.322174
   39        1.279285
   40        1.318062
   41        1.321541
   42        1.586935
   43        1.593073
   44        1.647536
   45        1.652300
   46        1.863637
   47        1.867315
   48        1.919207
   49        2.170973
   50        2.790456
   51        2.808531
   52        2.813647
   53        2.995212
   54        3.001157
   55        3.247720
   56        3.661162
   57        4.158114
   58        4.163385
   59        4.902164
   60        5.893811
   61        5.900065
   62        6.001521
   63        6.856197
   64        6.872492
   65        8.804442
   66        9.276265
   67        9.283243
   68       10.041692
   69       10.983144
   70       11.235104
   71       11.241015
   72       11.796311
   73       12.629889
   74       12.934521
   75       12.940677
   76       14.681801
   77       14.782267
   78       14.982297
   79       15.249940
   80       15.256813
   81       15.481435
   82       15.878409
   83       15.881859
   84       16.586059
 
  0.4444444E+00  0.1111111E+00  0.0000000E+00  0.6172840E-02
    1      -11.271487
    2      -11.267945
    3      -10.505997
    4      -10.502129
    5      -10.501911
    6      -10.497794
    7       -9.460527
    8       -9.456714
    9       -9.288565
   10       -8.578986
   11       -8.576680
   12       -7.645126
   13       -7.403064
   14       -6.762253
   15       -6.760170
   16       -5.966752
   17       -4.095690
   18       -3.716485
   19       -3.713311
   20       -3.492868
   21       -2.410580
   22       -2.096741
   23       -2.093423
   24       -2.079547
   25       -2.072483
   26       -2.068585
   27       -1.880472
   28       -1.696609
   29       -0.813709
   30       -0.810588
   31       -0.563238
   32       -0.537104
   33       -0.533377
   34       -0.205531
   35       -0.201631
   36       -0.187413
   37        0.173629
   38        0.180307
   39        0.180802
   40        0.181538
   41        0.624051
   42        0.627866
   43        1.513534
   44        2.024103
   45        2.028483
   46        2.029110
   47        2.035252
   48        2.137531
   49        2.143358
   50        2.391395
   51        2.393270
   52        2.393361
   53        2.403858
   54        2.673459
   55        2.680073
   56        3.631869
   57        4.098435
   58        4.103721
   59        5.426541
   60        5.430333
   61        5.917419
   62        5.923269
   63        6.939143
   64        7.650320
   65        7.997004
   66        9.331835
   67        9.338051
   68       10.134844
   69       11.041456
   70       11.398945
   71       11.405172
   72       12.616093
   73       13.403478
   74       13.408294
   75       14.227587
   76       14.235288
   77       14.237173
   78       14.239922
   79       15.125017
   80       15.128802
   81       15.886556
   82       15.890333
   83       16.302557
   84       16.307448
 
 -0.4444444E+00  0.1111111E+00  0.0000000E+00  0.6172840E-02
    1      -11.868849
    2      -11.086370
    3      -11.083851
    4      -10.527306
    5      -10.009680
    6       -9.781165
    7       -9.778752
    8       -9.216410
    9       -8.776933
   10       -8.509329
   11       -8.507031
   12       -7.580025
   13       -7.340828
   14       -6.706781
   15       -6.704734
   16       -5.949163
   17       -4.653393
   18       -4.210106
   19       -4.208286
   20       -3.655339
   21       -2.990721
   22       -2.537361
   23       -2.533763
   24       -2.034443
   25       -1.857581
   26       -1.734284
   27       -1.544862
   28       -1.543340
   29       -1.523991
   30       -1.283510
   31       -1.280243
   32       -1.057869
   33       -0.744634
   34       -0.372877
   35       -0.089169
   36       -0.085170
   37        0.062320
   38        0.323331
   39        1.279673
   40        1.318077
   41        1.321465
   42        1.587178
   43        1.593009
   44        1.648483
   45        1.652012
   46        1.863749
   47        1.867912
   48        1.919796
   49        2.171327
   50        2.789937
   51        2.808613
   52        2.813812
   53        2.995688
   54        2.999671
   55        3.247240
   56        3.661390
   57        4.157746
   58        4.163124
   59        4.902055
   60        5.894639
   61        5.900426
   62        6.001700
   63        6.858663
   64        6.871364
   65        8.802285
   66        9.276576
   67        9.282374
   68       10.042250
   69       10.982885
   70       11.234711
   71       11.241239
   72       11.796396
   73       12.630220
   74       12.934144
   75       12.940614
   76       14.681284
   77       14.782026
   78       14.982064
   79       15.250429
   80       15.256445
   81       15.481467
   82       15.877958
   83       15.881918
   84       16.584872
 
 -0.3333333E+00  0.1111111E+00  0.0000000E+00  0.6172840E-02
    1      -12.320842
    2      -11.526631
    3      -11.524075
    4      -10.425656
    5       -9.648152
    6       -9.000719
    7       -8.927726
    8       -8.925390
    9       -8.300897
   10       -8.298625
   11       -7.973552
   12       -7.387090
   13       -7.171745
   14       -6.567974
   15       -6.566107
   16       -6.079449
   17       -5.208585
   18       -4.990214
   19       -4.988664
   20       -4.341221
   21       -3.848047
   22       -3.336231
   23       -3.333078
   24       -3.240725
   25       -2.736012
   26       -2.733031
   27       -2.702746
   28       -2.115844
   29       -2.063489
   30       -0.961714
   31       -0.591899
   32       -0.590613
   33       -0.137032
   34        0.302744
   35        0.625739
   36        0.629280
   37        0.872175
   38        0.876892
   39        1.003891
   40        1.080171
   41        1.158676
   42        1.448063
   43        1.451797
   44        1.768081
   45        1.821209
   46        2.609989
   47        2.846817
   48        2.849710
   49        3.023212
   50        3.501161
   51        3.619868
   52        3.622992
   53        3.694103
   54        3.699149
   55        3.706965
   56        3.822663
   57        4.331303
   58        4.336878
   59        4.482137
   60        5.804338
   61        5.810307
   62        6.044396
   63        6.443677
   64        6.655996
   65        9.179989
   66        9.185789
   67        9.704824
   68        9.890908
   69       10.434818
   70       10.809354
   71       10.812028
   72       10.819746
   73       11.554974
   74       11.561385
   75       12.570326
   76       13.478144
   77       14.495592
   78       15.328803
   79       15.560792
   80       15.564070
   81       15.757356
   82       15.811210
   83       15.815727
   84       16.361990
 
 -0.2222222E+00  0.1111111E+00  0.0000000E+00  0.6172840E-02
    1      -12.623366
    2      -11.821458
    3      -11.818877
    4      -10.704174
    5       -8.645678
    6       -8.644931
    7       -7.959541
    8       -7.957704
    9       -7.957306
   10       -7.955486
   11       -7.080154
   12       -7.076244
   13       -7.074264
   14       -6.537962
   15       -6.536576
   16       -6.499314
   17       -5.500550
   18       -5.499634
   19       -5.240382
   20       -4.920010
   21       -4.655099
   22       -4.654109
   23       -4.123552
   24       -4.122071
   25       -4.120662
   26       -4.119050
   27       -3.435463
   28       -3.434601
   29       -2.425605
   30       -0.014879
   31        0.325601
   32        0.326765
   33        0.542529
   34        0.547307
   35        0.714933
   36        0.864399
   37        0.864594
   38        1.161527
   39        1.162010
   40        1.164937
   41        1.165503
   42        1.489214
   43        1.489576
   44        2.191848
   45        2.193136
   46        3.600606
   47        3.627884
   48        3.799364
   49        3.800146
   50        3.854672
   51        4.135799
   52        4.166342
   53        4.167146
   54        4.192959
   55        4.322706
   56        4.601707
   57        4.607213
   58        4.607612
   59        4.613113
   60        5.559967
   61        5.607237
   62        5.613345
   63        6.300467
   64        6.304596
   65        9.183583
   66        9.189468
   67        9.858444
   68        9.862131
   69       10.270316
   70       10.276037
   71       10.277221
   72       10.282890
   73       10.515180
   74       10.561477
   75       12.310236
   76       12.313199
   77       14.293674
   78       14.296561
   79       15.118770
   80       15.346285
   81       15.348757
   82       15.349319
   83       15.352465
   84       15.829609
 
 -0.1111111E+00  0.1111111E+00  0.0000000E+00  0.6172840E-02
    1      -12.774956
    2      -11.969256
    3      -11.966663
    4      -10.843812
    5       -8.160604
    6       -7.573782
    7       -7.571817
    8       -7.496562
    9       -7.494412
   10       -6.956156
   11       -6.954320
   12       -6.953554
   13       -6.949999
   14       -6.690119
   15       -6.456782
   16       -6.452261
   17       -5.567618
   18       -5.564028
   19       -5.342061
   20       -5.338816
   21       -5.337983
   22       -5.336870
   23       -5.311274
   24       -4.811433
   25       -4.808321
   26       -4.644667
   27       -4.642417
   28       -4.097926
   29       -2.607391
   30        0.376014
   31        0.380803
   32        0.713185
   33        0.716018
   34        1.014718
   35        1.016232
   36        1.016455
   37        1.021110
   38        1.035685
   39        1.318474
   40        1.321919
   41        1.345448
   42        1.348524
   43        1.624444
   44        2.676081
   45        3.203530
   46        3.205053
   47        4.046201
   48        4.185764
   49        4.334944
   50        4.335603
   51        4.343042
   52        4.476463
   53        4.483730
   54        4.492194
   55        4.624734
   56        4.943763
   57        4.950039
   58        5.300914
   59        5.304803
   60        5.305834
   61        5.313571
   62        5.566765
   63        5.569515
   64        5.887529
   65        9.372720
   66        9.380984
   67        9.382033
   68        9.386056
   69        9.762810
   70        9.769972
   71       10.001940
   72       10.253888
   73       10.257149
   74       11.243620
   75       11.246728
   76       11.855161
   77       13.887331
   78       14.187141
   79       14.191730
   80       14.963825
   81       14.970289
   82       15.236000
   83       15.238239
   84       15.244978
 
  0.1694066E-20  0.2222222E+00  0.0000000E+00  0.6172840E-02
    1      -12.547572
    2      -11.747624
    3      -11.745049
    4      -10.634435
    5       -9.214214
    6       -8.507694
    7       -8.505404
    8       -7.955208
    9       -7.951677
   10       -7.581176
   11       -7.299470
   12       -7.296113
   13       -7.295428
   14       -7.291887
   15       -6.504205
   16       -6.500987
   17       -5.132654
   18       -5.129398
   19       -4.644293
   20       -4.640841
   21       -4.639221
   22       -4.635679
   23       -4.004354
   24       -3.951867
   25       -3.947657
   26       -3.476047
   27       -3.474272
   28       -2.813477
   29       -2.334982
   30        0.064610
   31        0.066501
   32        0.400157
   33        0.401617
   34        0.404143
   35        0.405661
   36        0.625413
   37        0.630181
   38        0.787900
   39        0.789950
   40        1.252557
   41        1.533230
   42        1.534207
   43        1.565473
   44        1.833329
   45        2.928761
   46        2.932261
   47        3.288932
   48        3.510975
   49        3.511906
   50        3.739607
   51        3.876748
   52        4.061890
   53        4.062699
   54        4.095558
   55        4.100881
   56        4.253329
   57        4.265879
   58        5.186428
   59        5.192806
   60        5.193611
   61        5.199953
   62        6.135288
   63        6.139672
   64        6.416366
   65        9.685744
   66        9.692524
   67        9.694392
   68        9.700738
   69        9.842157
   70        9.846875
   71       10.044965
   72       10.909876
   73       10.915391
   74       11.497933
   75       11.502687
   76       13.002677
   77       14.037689
   78       15.122271
   79       15.125053
   80       15.172111
   81       15.176225
   82       15.622132
   83       15.825856
   84       15.862357
 
  0.1111111E+00  0.2222222E+00  0.0000000E+00  0.6172840E-02
    1      -12.320775
    2      -11.526565
    3      -11.524008
    4      -10.425587
    5       -9.648262
    6       -9.000470
    7       -8.927791
    8       -8.925468
    9       -8.300518
   10       -8.298249
   11       -7.973657
   12       -7.386591
   13       -7.172421
   14       -6.569000
   15       -6.566922
   16       -6.081200
   17       -5.207888
   18       -4.991476
   19       -4.987943
   20       -4.341813
   21       -3.848500
   22       -3.336517
   23       -3.333706
   24       -3.239110
   25       -2.733946
   26       -2.732259
   27       -2.703051
   28       -2.114136
   29       -2.063426
   30       -0.960344
   31       -0.591382
   32       -0.588485
   33       -0.135786
   34        0.302951
   35        0.626161
   36        0.629275
   37        0.872232
   38        0.876954
   39        1.004182
   40        1.079659
   41        1.156671
   42        1.447396
   43        1.448426
   44        1.766046
   45        1.822046
   46        2.611400
   47        2.847433
   48        2.851141
   49        3.023001