  80  80   0   0
  0.9220190E+01  0.1146890E-08  0.8022124E-09  0.8017129E-09  0.5000000E-15
  1.000000000000000E-004
  CAR 
 diamond                                 
      8.94014720    -16.66581786  301     -5.95398914      1.00000000
    -16.666  0.0000E+00  0.0000E+00
    -16.580  0.0000E+00  0.0000E+00
    -16.495  0.0000E+00  0.0000E+00
    -16.410  0.0000E+00  0.0000E+00
    -16.324  0.0000E+00  0.0000E+00
    -16.239  0.0000E+00  0.0000E+00
    -16.154  0.0000E+00  0.0000E+00
    -16.068  0.0000E+00  0.0000E+00
    -15.983  0.0000E+00  0.0000E+00
    -15.898  0.0000E+00  0.0000E+00
    -15.812  0.0000E+00  0.0000E+00
    -15.727  0.0000E+00  0.0000E+00
    -15.642  0.0000E+00  0.0000E+00
    -15.556  0.0000E+00  0.0000E+00
    -15.471  0.0000E+00  0.0000E+00
    -15.386  0.0000E+00  0.0000E+00
    -15.300  0.0000E+00  0.0000E+00
    -15.215  0.0000E+00  0.0000E+00
    -15.129  0.0000E+00  0.0000E+00
    -15.044  0.0000E+00  0.0000E+00
    -14.959  0.0000E+00  0.0000E+00
    -14.873  0.0000E+00  0.0000E+00
    -14.788  0.0000E+00  0.0000E+00
    -14.703  0.0000E+00  0.0000E+00
    -14.617  0.3340E-01  0.6172E-03
    -14.532  0.6949E-01  0.4978E-02
    -14.447  0.1301E+00  0.1444E-01
    -14.361  0.1698E+00  0.2365E-01
    -14.276  0.1807E+00  0.4131E-01
    -14.191  0.5232E+00  0.7466E-01
    -14.105  0.3000E+00  0.1171E+00
    -14.020  0.1021E-01  0.1600E+00
    -13.935  0.0000E+00  0.1600E+00
    -13.849  0.0000E+00  0.1600E+00
    -13.764  0.0000E+00  0.1600E+00
    -13.678  0.0000E+00  0.1600E+00
    -13.593  0.0000E+00  0.1600E+00
    -13.508  0.0000E+00  0.1600E+00
    -13.422  0.0000E+00  0.1600E+00
    -13.337  0.0000E+00  0.1600E+00
    -13.252  0.0000E+00  0.1600E+00
    -13.166  0.0000E+00  0.1600E+00
    -13.081  0.0000E+00  0.1600E+00
    -12.996  0.0000E+00  0.1600E+00
    -12.910  0.0000E+00  0.1600E+00
    -12.825  0.0000E+00  0.1600E+00
    -12.740  0.0000E+00  0.1600E+00
    -12.654  0.0000E+00  0.1600E+00
    -12.569  0.0000E+00  0.1600E+00
    -12.484  0.0000E+00  0.1600E+00
    -12.398  0.0000E+00  0.1600E+00
    -12.313  0.0000E+00  0.1600E+00
    -12.227  0.0000E+00  0.1600E+00
    -12.142  0.0000E+00  0.1600E+00
    -12.057  0.0000E+00  0.1600E+00
    -11.971  0.0000E+00  0.1600E+00
    -11.886  0.0000E+00  0.1600E+00
    -11.801  0.0000E+00  0.1600E+00
    -11.715  0.0000E+00  0.1600E+00
    -11.630  0.0000E+00  0.1600E+00
    -11.545  0.0000E+00  0.1600E+00
    -11.459  0.0000E+00  0.1600E+00
    -11.374  0.0000E+00  0.1600E+00
    -11.289  0.0000E+00  0.1600E+00
    -11.203  0.0000E+00  0.1600E+00
    -11.118  0.0000E+00  0.1600E+00
    -11.033  0.0000E+00  0.1600E+00
    -10.947  0.0000E+00  0.1600E+00
    -10.862  0.0000E+00  0.1600E+00
    -10.776  0.0000E+00  0.1600E+00
    -10.691  0.0000E+00  0.1600E+00
    -10.606  0.0000E+00  0.1600E+00
    -10.520  0.0000E+00  0.1600E+00
    -10.435  0.0000E+00  0.1600E+00
    -10.350  0.0000E+00  0.1600E+00
    -10.264  0.0000E+00  0.1600E+00
    -10.179  0.0000E+00  0.1600E+00
    -10.094  0.0000E+00  0.1600E+00
    -10.008  0.0000E+00  0.1600E+00
     -9.923  0.0000E+00  0.1600E+00
     -9.838  0.0000E+00  0.1600E+00
     -9.752  0.0000E+00  0.1600E+00
     -9.667  0.0000E+00  0.1600E+00
     -9.582  0.0000E+00  0.1600E+00
     -9.496  0.0000E+00  0.1600E+00
     -9.411  0.0000E+00  0.1600E+00
     -9.325  0.0000E+00  0.1600E+00
     -9.240  0.0000E+00  0.1600E+00
     -9.155  0.0000E+00  0.1600E+00
     -9.069  0.0000E+00  0.1600E+00
     -8.984  0.0000E+00  0.1600E+00
     -8.899  0.0000E+00  0.1600E+00
     -8.813  0.0000E+00  0.1600E+00
     -8.728  0.0000E+00  0.1600E+00
     -8.643  0.0000E+00  0.1600E+00
     -8.557  0.0000E+00  0.1600E+00
     -8.472  0.0000E+00  0.1600E+00
     -8.387  0.0000E+00  0.1600E+00
     -8.301  0.0000E+00  0.1600E+00
     -8.216  0.0000E+00  0.1600E+00
     -8.130  0.0000E+00  0.1600E+00
     -8.045  0.0000E+00  0.1600E+00
     -7.960  0.0000E+00  0.1600E+00
     -7.874  0.0000E+00  0.1600E+00
     -7.789  0.0000E+00  0.1600E+00
     -7.704  0.0000E+00  0.1600E+00
     -7.618  0.0000E+00  0.1600E+00
     -7.533  0.0000E+00  0.1600E+00
     -7.448  0.2001E-01  0.1605E+00
     -7.362  0.1170E+00  0.1649E+00
     -7.277  0.2393E+00  0.1796E+00
     -7.192  0.4292E+00  0.2070E+00
     -7.106  0.2579E+00  0.2385E+00
     -7.021  0.2508E+00  0.2597E+00
     -6.936  0.1947E+00  0.2843E+00
     -6.850  0.1842E+00  0.3012E+00
     -6.765  0.2912E+00  0.3207E+00
     -6.679  0.2857E+00  0.3438E+00
     -6.594  0.3301E+00  0.3692E+00
     -6.509  0.3364E+00  0.3948E+00
     -6.423  0.4950E+00  0.4377E+00
     -6.338  0.3736E+00  0.4753E+00
     -6.253  0.1224E+01  0.5294E+00
     -6.167  0.7156E+00  0.5884E+00
     -6.082  0.2896E+00  0.6263E+00
     -5.997  0.8382E-02  0.6399E+00
     -5.911  0.0000E+00  0.6400E+00
     -5.826  0.0000E+00  0.6400E+00
     -5.741  0.0000E+00  0.6400E+00
     -5.655  0.0000E+00  0.6400E+00
     -5.570  0.0000E+00  0.6400E+00
     -5.485  0.0000E+00  0.6400E+00
     -5.399  0.0000E+00  0.6400E+00
     -5.314  0.0000E+00  0.6400E+00
     -5.228  0.0000E+00  0.6400E+00
     -5.143  0.0000E+00  0.6400E+00
     -5.058  0.0000E+00  0.6400E+00
     -4.972  0.0000E+00  0.6400E+00
     -4.887  0.0000E+00  0.6400E+00
     -4.802  0.0000E+00  0.6400E+00
     -4.716  0.0000E+00  0.6400E+00
     -4.631  0.0000E+00  0.6400E+00
     -4.546  0.0000E+00  0.6400E+00
     -4.460  0.0000E+00  0.6400E+00
     -4.375  0.0000E+00  0.6400E+00
     -4.290  0.0000E+00  0.6400E+00
     -4.204  0.0000E+00  0.6400E+00
     -4.119  0.0000E+00  0.6400E+00
     -4.034  0.0000E+00  0.6400E+00
     -3.948  0.0000E+00  0.6400E+00
     -3.863  0.0000E+00  0.6400E+00
     -3.777  0.0000E+00  0.6400E+00
     -3.692  0.0000E+00  0.6400E+00
     -3.607  0.0000E+00  0.6400E+00
     -3.521  0.0000E+00  0.6400E+00
     -3.436  0.0000E+00  0.6400E+00
     -3.351  0.0000E+00  0.6400E+00
     -3.265  0.0000E+00  0.6400E+00
     -3.180  0.0000E+00  0.6400E+00
     -3.095  0.0000E+00  0.6400E+00
     -3.009  0.0000E+00  0.6400E+00
     -2.924  0.0000E+00  0.6400E+00
     -2.839  0.0000E+00  0.6400E+00
     -2.753  0.0000E+00  0.6400E+00
     -2.668  0.0000E+00  0.6400E+00
     -2.583  0.0000E+00  0.6400E+00
     -2.497  0.0000E+00  0.6400E+00
     -2.412  0.0000E+00  0.6400E+00
     -2.326  0.0000E+00  0.6400E+00
     -2.241  0.0000E+00  0.6400E+00
     -2.156  0.0000E+00  0.6400E+00
     -2.070  0.0000E+00  0.6400E+00
     -1.985  0.0000E+00  0.6400E+00
     -1.900  0.0000E+00  0.6400E+00
     -1.814  0.0000E+00  0.6400E+00
     -1.729  0.0000E+00  0.6400E+00
     -1.644  0.0000E+00  0.6400E+00
     -1.558  0.0000E+00  0.6400E+00
     -1.473  0.0000E+00  0.6400E+00
     -1.388  0.0000E+00  0.6400E+00
     -1.302  0.0000E+00  0.6400E+00
     -1.217  0.0000E+00  0.6400E+00
     -1.132  0.0000E+00  0.6400E+00
     -1.046  0.0000E+00  0.6400E+00
     -0.961  0.0000E+00  0.6400E+00
     -0.875  0.0000E+00  0.6400E+00
     -0.790  0.0000E+00  0.6400E+00
     -0.705  0.0000E+00  0.6400E+00
     -0.619  0.0000E+00  0.6400E+00
     -0.534  0.0000E+00  0.6400E+00
     -0.449  0.0000E+00  0.6400E+00
     -0.363  0.0000E+00  0.6400E+00
     -0.278  0.0000E+00  0.6400E+00
     -0.193  0.0000E+00  0.6400E+00
     -0.107  0.0000E+00  0.6400E+00
     -0.022  0.0000E+00  0.6400E+00
      0.063  0.0000E+00  0.6400E+00
      0.149  0.0000E+00  0.6400E+00
      0.234  0.0000E+00  0.6400E+00
      0.319  0.0000E+00  0.6400E+00
      0.405  0.0000E+00  0.6400E+00
      0.490  0.0000E+00  0.6400E+00
      0.576  0.0000E+00  0.6400E+00
      0.661  0.0000E+00  0.6400E+00
      0.746  0.0000E+00  0.6400E+00
      0.832  0.0000E+00  0.6400E+00
      0.917  0.0000E+00  0.6400E+00
      1.002  0.0000E+00  0.6400E+00
      1.088  0.0000E+00  0.6400E+00
      1.173  0.0000E+00  0.6400E+00
      1.258  0.0000E+00  0.6400E+00
      1.344  0.0000E+00  0.6400E+00
      1.429  0.0000E+00  0.6400E+00
      1.514  0.0000E+00  0.6400E+00
      1.600  0.0000E+00  0.6400E+00
      1.685  0.0000E+00  0.6400E+00
      1.770  0.0000E+00  0.6400E+00
      1.856  0.8411E-03  0.6400E+00
      1.941  0.3199E-02  0.6402E+00
      2.027  0.6251E-02  0.6406E+00
      2.112  0.8095E-02  0.6412E+00
      2.197  0.9245E-02  0.6420E+00
      2.283  0.1052E-01  0.6428E+00
      2.368  0.1204E-01  0.6438E+00
      2.453  0.1384E-01  0.6449E+00
      2.539  0.1659E-01  0.6461E+00
      2.624  0.2043E-01  0.6477E+00
      2.709  0.2587E-01  0.6497E+00
      2.795  0.3125E-01  0.6521E+00
      2.880  0.2777E-01  0.6547E+00
      2.965  0.2133E-01  0.6568E+00
      3.051  0.2095E-01  0.6586E+00
      3.136  0.2301E-01  0.6604E+00
      3.221  0.3295E-01  0.6627E+00
      3.307  0.5648E-01  0.6664E+00
      3.392  0.1004E+00  0.6730E+00
      3.478  0.6153E-01  0.6805E+00
      3.563  0.6864E-01  0.6853E+00
      3.648  0.1217E+00  0.6938E+00
      3.734  0.9956E-01  0.7028E+00
      3.819  0.1132E+00  0.7124E+00
      3.904  0.5218E-01  0.7188E+00
      3.990  0.6347E-01  0.7243E+00
      4.075  0.1239E+00  0.7319E+00
      4.160  0.7107E-01  0.7403E+00
      4.246  0.9659E-01  0.7472E+00
      4.331  0.1104E+00  0.7560E+00
      4.416  0.1230E+00  0.7665E+00
      4.502  0.1323E+00  0.7774E+00
      4.587  0.1665E+00  0.7896E+00
      4.672  0.1338E+00  0.8026E+00
      4.758  0.1320E+00  0.8133E+00
      4.843  0.1590E+00  0.8276E+00
      4.929  0.6458E-01  0.8369E+00
      5.014  0.1171E+00  0.8429E+00
      5.099  0.1644E+00  0.8570E+00
      5.185  0.1253E+00  0.8671E+00
      5.270  0.1538E+00  0.8807E+00
      5.355  0.1646E+00  0.8941E+00
      5.441  0.1631E+00  0.9081E+00
      5.526  0.1130E+00  0.9180E+00
      5.611  0.1127E+00  0.9283E+00
      5.697  0.1009E+00  0.9378E+00
      5.782  0.8378E-01  0.9451E+00
      5.867  0.1119E+00  0.9534E+00
      5.953  0.1966E+00  0.9658E+00
      6.038  0.1513E+00  0.9821E+00
      6.123  0.1383E+00  0.9935E+00
      6.209  0.1796E+00  0.1007E+01
      6.294  0.1427E+00  0.1021E+01
      6.380  0.9659E-01  0.1032E+01
      6.465  0.7703E-01  0.1039E+01
      6.550  0.7099E-01  0.1045E+01
      6.636  0.5801E-01  0.1051E+01
      6.721  0.4414E-01  0.1056E+01
      6.806  0.2120E-01  0.1058E+01
      6.892  0.1187E-01  0.1060E+01
      6.977  0.0000E+00  0.1060E+01
      7.062  0.0000E+00  0.1060E+01
      7.148  0.0000E+00  0.1060E+01
      7.233  0.0000E+00  0.1060E+01
      7.318  0.0000E+00  0.1060E+01
      7.404  0.0000E+00  0.1060E+01
      7.489  0.0000E+00  0.1060E+01
      7.574  0.0000E+00  0.1060E+01
      7.660  0.0000E+00  0.1060E+01
      7.745  0.0000E+00  0.1060E+01
      7.831  0.0000E+00  0.1060E+01
      7.916  0.0000E+00  0.1060E+01
      8.001  0.0000E+00  0.1060E+01
      8.087  0.0000E+00  0.1060E+01
      8.172  0.0000E+00  0.1060E+01
      8.257  0.0000E+00  0.1060E+01
      8.343  0.0000E+00  0.1060E+01
      8.428  0.0000E+00  0.1060E+01
      8.513  0.0000E+00  0.1060E+01
      8.599  0.0000E+00  0.1060E+01
      8.684  0.0000E+00  0.1060E+01
      8.769  0.0000E+00  0.1060E+01
      8.855  0.0000E+00  0.1060E+01
      8.940  0.0000E+00  0.1060E+01
