  72  72   0   0
  0.1024466E+02  0.1146890E-08  0.8022124E-09  0.8017129E-09  0.5000000E-15
  1.000000000000000E-004
  CAR 
 diamond                                 
      8.40489977    -16.60863954  301     -1.86107366      1.00000000
    -16.609  0.0000E+00  0.0000E+00
    -16.525  0.0000E+00  0.0000E+00
    -16.442  0.0000E+00  0.0000E+00
    -16.359  0.0000E+00  0.0000E+00
    -16.275  0.0000E+00  0.0000E+00
    -16.192  0.0000E+00  0.0000E+00
    -16.108  0.0000E+00  0.0000E+00
    -16.025  0.0000E+00  0.0000E+00
    -15.942  0.0000E+00  0.0000E+00
    -15.858  0.0000E+00  0.0000E+00
    -15.775  0.0000E+00  0.0000E+00
    -15.691  0.0000E+00  0.0000E+00
    -15.608  0.0000E+00  0.0000E+00
    -15.525  0.0000E+00  0.0000E+00
    -15.441  0.0000E+00  0.0000E+00
    -15.358  0.0000E+00  0.0000E+00
    -15.275  0.0000E+00  0.0000E+00
    -15.191  0.0000E+00  0.0000E+00
    -15.108  0.0000E+00  0.0000E+00
    -15.024  0.0000E+00  0.0000E+00
    -14.941  0.0000E+00  0.0000E+00
    -14.858  0.0000E+00  0.0000E+00
    -14.774  0.0000E+00  0.0000E+00
    -14.691  0.0000E+00  0.0000E+00
    -14.608  0.3055E-04  0.1103E-07
    -14.524  0.6179E-01  0.2719E-02
    -14.441  0.2152E+00  0.1210E-01
    -14.357  0.2719E+00  0.2418E-01
    -14.274  0.5813E+00  0.4696E-01
    -14.191  0.2064E+00  0.7118E-01
    -14.107  0.0000E+00  0.8000E-01
    -14.024  0.1237E+00  0.8417E-01
    -13.941  0.4465E+00  0.1132E+00
    -13.857  0.3065E+00  0.1558E+00
    -13.774  0.0000E+00  0.1600E+00
    -13.690  0.0000E+00  0.1600E+00
    -13.607  0.0000E+00  0.1600E+00
    -13.524  0.0000E+00  0.1600E+00
    -13.440  0.0000E+00  0.1600E+00
    -13.357  0.0000E+00  0.1600E+00
    -13.274  0.0000E+00  0.1600E+00
    -13.190  0.0000E+00  0.1600E+00
    -13.107  0.0000E+00  0.1600E+00
    -13.023  0.0000E+00  0.1600E+00
    -12.940  0.0000E+00  0.1600E+00
    -12.857  0.0000E+00  0.1600E+00
    -12.773  0.0000E+00  0.1600E+00
    -12.690  0.0000E+00  0.1600E+00
    -12.606  0.0000E+00  0.1600E+00
    -12.523  0.0000E+00  0.1600E+00
    -12.440  0.0000E+00  0.1600E+00
    -12.356  0.0000E+00  0.1600E+00
    -12.273  0.0000E+00  0.1600E+00
    -12.190  0.0000E+00  0.1600E+00
    -12.106  0.0000E+00  0.1600E+00
    -12.023  0.0000E+00  0.1600E+00
    -11.939  0.0000E+00  0.1600E+00
    -11.856  0.0000E+00  0.1600E+00
    -11.773  0.0000E+00  0.1600E+00
    -11.689  0.0000E+00  0.1600E+00
    -11.606  0.0000E+00  0.1600E+00
    -11.523  0.0000E+00  0.1600E+00
    -11.439  0.0000E+00  0.1600E+00
    -11.356  0.0000E+00  0.1600E+00
    -11.272  0.0000E+00  0.1600E+00
    -11.189  0.0000E+00  0.1600E+00
    -11.106  0.0000E+00  0.1600E+00
    -11.022  0.0000E+00  0.1600E+00
    -10.939  0.0000E+00  0.1600E+00
    -10.856  0.0000E+00  0.1600E+00
    -10.772  0.0000E+00  0.1600E+00
    -10.689  0.0000E+00  0.1600E+00
    -10.605  0.0000E+00  0.1600E+00
    -10.522  0.0000E+00  0.1600E+00
    -10.439  0.0000E+00  0.1600E+00
    -10.355  0.0000E+00  0.1600E+00
    -10.272  0.0000E+00  0.1600E+00
    -10.188  0.0000E+00  0.1600E+00
    -10.105  0.0000E+00  0.1600E+00
    -10.022  0.0000E+00  0.1600E+00
     -9.938  0.0000E+00  0.1600E+00
     -9.855  0.0000E+00  0.1600E+00
     -9.772  0.0000E+00  0.1600E+00
     -9.688  0.0000E+00  0.1600E+00
     -9.605  0.0000E+00  0.1600E+00
     -9.521  0.0000E+00  0.1600E+00
     -9.438  0.0000E+00  0.1600E+00
     -9.355  0.0000E+00  0.1600E+00
     -9.271  0.0000E+00  0.1600E+00
     -9.188  0.0000E+00  0.1600E+00
     -9.105  0.0000E+00  0.1600E+00
     -9.021  0.0000E+00  0.1600E+00
     -8.938  0.0000E+00  0.1600E+00
     -8.854  0.0000E+00  0.1600E+00
     -8.771  0.0000E+00  0.1600E+00
     -8.688  0.0000E+00  0.1600E+00
     -8.604  0.0000E+00  0.1600E+00
     -8.521  0.0000E+00  0.1600E+00
     -8.438  0.0000E+00  0.1600E+00
     -8.354  0.0000E+00  0.1600E+00
     -8.271  0.0000E+00  0.1600E+00
     -8.187  0.0000E+00  0.1600E+00
     -8.104  0.0000E+00  0.1600E+00
     -8.021  0.2672E-01  0.1608E+00
     -7.937  0.1283E+00  0.1660E+00
     -7.854  0.2848E+00  0.1856E+00
     -7.771  0.3406E+00  0.2158E+00
     -7.687  0.3168E+00  0.2449E+00
     -7.604  0.2601E+00  0.2675E+00
     -7.520  0.1426E+00  0.2849E+00
     -7.437  0.9556E-01  0.2931E+00
     -7.354  0.1455E+00  0.3018E+00
     -7.270  0.1718E+00  0.3158E+00
     -7.187  0.0000E+00  0.3200E+00
     -7.103  0.0000E+00  0.3200E+00
     -7.020  0.2394E-01  0.3206E+00
     -6.937  0.1719E+00  0.3282E+00
     -6.853  0.3191E+00  0.3505E+00
     -6.770  0.2847E+00  0.3753E+00
     -6.687  0.3158E+00  0.4074E+00
     -6.603  0.2716E+00  0.4438E+00
     -6.520  0.3436E+00  0.4839E+00
     -6.436  0.2981E+00  0.5118E+00
     -6.353  0.3435E+00  0.5402E+00
     -6.270  0.8564E-01  0.5579E+00
     -6.186  0.0000E+00  0.5600E+00
     -6.103  0.0000E+00  0.5600E+00
     -6.020  0.0000E+00  0.5600E+00
     -5.936  0.0000E+00  0.5600E+00
     -5.853  0.0000E+00  0.5600E+00
     -5.769  0.0000E+00  0.5600E+00
     -5.686  0.0000E+00  0.5600E+00
     -5.603  0.0000E+00  0.5600E+00
     -5.519  0.0000E+00  0.5600E+00
     -5.436  0.0000E+00  0.5600E+00
     -5.353  0.0000E+00  0.5600E+00
     -5.269  0.0000E+00  0.5600E+00
     -5.186  0.0000E+00  0.5600E+00
     -5.102  0.0000E+00  0.5600E+00
     -5.019  0.0000E+00  0.5600E+00
     -4.936  0.0000E+00  0.5600E+00
     -4.852  0.0000E+00  0.5600E+00
     -4.769  0.0000E+00  0.5600E+00
     -4.686  0.0000E+00  0.5600E+00
     -4.602  0.0000E+00  0.5600E+00
     -4.519  0.0000E+00  0.5600E+00
     -4.435  0.0000E+00  0.5600E+00
     -4.352  0.0000E+00  0.5600E+00
     -4.269  0.0000E+00  0.5600E+00
     -4.185  0.0000E+00  0.5600E+00
     -4.102  0.0000E+00  0.5600E+00
     -4.018  0.0000E+00  0.5600E+00
     -3.935  0.0000E+00  0.5600E+00
     -3.852  0.0000E+00  0.5600E+00
     -3.768  0.0000E+00  0.5600E+00
     -3.685  0.0000E+00  0.5600E+00
     -3.602  0.0000E+00  0.5600E+00
     -3.518  0.0000E+00  0.5600E+00
     -3.435  0.0000E+00  0.5600E+00
     -3.351  0.0000E+00  0.5600E+00
     -3.268  0.0000E+00  0.5600E+00
     -3.185  0.0000E+00  0.5600E+00
     -3.101  0.0000E+00  0.5600E+00
     -3.018  0.0000E+00  0.5600E+00
     -2.935  0.0000E+00  0.5600E+00
     -2.851  0.0000E+00  0.5600E+00
     -2.768  0.0000E+00  0.5600E+00
     -2.684  0.0000E+00  0.5600E+00
     -2.601  0.0000E+00  0.5600E+00
     -2.518  0.0000E+00  0.5600E+00
     -2.434  0.9714E-02  0.5602E+00
     -2.351  0.3213E-01  0.5619E+00
     -2.268  0.7295E-01  0.5662E+00
     -2.184  0.1180E+00  0.5744E+00
     -2.101  0.9739E-01  0.5839E+00
     -2.017  0.8392E-01  0.5912E+00
     -1.934  0.6552E-01  0.5978E+00
     -1.851  0.0000E+00  0.6000E+00
     -1.767  0.6595E-01  0.6026E+00
     -1.684  0.6743E-01  0.6082E+00
     -1.601  0.6745E-01  0.6139E+00
     -1.517  0.8268E-01  0.6197E+00
     -1.434  0.1233E+00  0.6287E+00
     -1.350  0.1023E+00  0.6389E+00
     -1.267  0.0000E+00  0.6400E+00
     -1.184  0.0000E+00  0.6400E+00
     -1.100  0.0000E+00  0.6400E+00
     -1.017  0.0000E+00  0.6400E+00
     -0.933  0.0000E+00  0.6400E+00
     -0.850  0.0000E+00  0.6400E+00
     -0.767  0.0000E+00  0.6400E+00
     -0.683  0.0000E+00  0.6400E+00
     -0.600  0.0000E+00  0.6400E+00
     -0.517  0.0000E+00  0.6400E+00
     -0.433  0.0000E+00  0.6400E+00
     -0.350  0.0000E+00  0.6400E+00
     -0.266  0.0000E+00  0.6400E+00
     -0.183  0.0000E+00  0.6400E+00
     -0.100  0.0000E+00  0.6400E+00
     -0.016  0.0000E+00  0.6400E+00
      0.067  0.0000E+00  0.6400E+00
      0.150  0.0000E+00  0.6400E+00
      0.234  0.0000E+00  0.6400E+00
      0.317  0.0000E+00  0.6400E+00
      0.401  0.0000E+00  0.6400E+00
      0.484  0.0000E+00  0.6400E+00
      0.567  0.0000E+00  0.6400E+00
      0.651  0.0000E+00  0.6400E+00
      0.734  0.0000E+00  0.6400E+00
      0.817  0.0000E+00  0.6400E+00
      0.901  0.0000E+00  0.6400E+00
      0.984  0.0000E+00  0.6400E+00
      1.068  0.0000E+00  0.6400E+00
      1.151  0.0000E+00  0.6400E+00
      1.234  0.0000E+00  0.6400E+00
      1.318  0.0000E+00  0.6400E+00
      1.401  0.0000E+00  0.6400E+00
      1.484  0.0000E+00  0.6400E+00
      1.568  0.0000E+00  0.6400E+00
      1.651  0.0000E+00  0.6400E+00
      1.735  0.4275E-03  0.6400E+00
      1.818  0.2322E-02  0.6401E+00
      1.901  0.5038E-02  0.6404E+00
      1.985  0.7583E-02  0.6410E+00
      2.068  0.8878E-02  0.6416E+00
      2.152  0.1003E-01  0.6424E+00
      2.235  0.1152E-01  0.6433E+00
      2.318  0.1308E-01  0.6444E+00
      2.402  0.1542E-01  0.6455E+00
      2.485  0.1863E-01  0.6469E+00
      2.568  0.2379E-01  0.6487E+00
      2.652  0.2969E-01  0.6509E+00
      2.735  0.3321E-01  0.6537E+00
      2.819  0.2629E-01  0.6561E+00
      2.902  0.2161E-01  0.6581E+00
      2.985  0.2411E-01  0.6600E+00
      3.069  0.3623E-01  0.6623E+00
      3.152  0.6551E-01  0.6666E+00
      3.235  0.1001E+00  0.6735E+00
      3.319  0.4702E-01  0.6810E+00
      3.402  0.1061E+00  0.6857E+00
      3.486  0.8078E-01  0.6953E+00
      3.569  0.6657E-01  0.7008E+00
      3.652  0.7822E-01  0.7072E+00
      3.736  0.7045E-01  0.7136E+00
      3.819  0.5260E-01  0.7186E+00
      3.902  0.3741E-01  0.7222E+00
      3.986  0.6714E-01  0.7262E+00
      4.069  0.1054E+00  0.7334E+00
      4.153  0.8482E-01  0.7413E+00
      4.236  0.8634E-01  0.7482E+00
      4.319  0.1032E+00  0.7560E+00
      4.403  0.8019E-01  0.7642E+00
      4.486  0.1101E+00  0.7720E+00
      4.569  0.1605E+00  0.7838E+00
      4.653  0.8886E-01  0.7968E+00
      4.736  0.6302E-01  0.8009E+00
      4.820  0.1577E+00  0.8109E+00
      4.903  0.1223E+00  0.8242E+00
      4.986  0.1051E+00  0.8340E+00
      5.070  0.6919E-01  0.8399E+00
      5.153  0.2013E+00  0.8512E+00
      5.237  0.1490E+00  0.8668E+00
      5.320  0.9340E-01  0.8755E+00
      5.403  0.1347E+00  0.8863E+00
      5.487  0.1212E+00  0.8974E+00
      5.570  0.7931E-01  0.9053E+00
      5.653  0.1061E+00  0.9141E+00
      5.737  0.1102E+00  0.9211E+00
      5.820  0.1843E+00  0.9396E+00
      5.904  0.9882E-01  0.9497E+00
      5.987  0.1145E+00  0.9595E+00
      6.070  0.9328E-01  0.9679E+00
      6.154  0.5962E-01  0.9744E+00
      6.237  0.3600E-01  0.9783E+00
      6.320  0.5037E-02  0.9799E+00
      6.404  0.7084E-06  0.9800E+00
      6.487  0.0000E+00  0.9800E+00
      6.571  0.0000E+00  0.9800E+00
      6.654  0.0000E+00  0.9800E+00
      6.737  0.0000E+00  0.9800E+00
      6.821  0.0000E+00  0.9800E+00
      6.904  0.0000E+00  0.9800E+00
      6.987  0.0000E+00  0.9800E+00
      7.071  0.0000E+00  0.9800E+00
      7.154  0.0000E+00  0.9800E+00
      7.238  0.0000E+00  0.9800E+00
      7.321  0.0000E+00  0.9800E+00
      7.404  0.0000E+00  0.9800E+00
      7.488  0.0000E+00  0.9800E+00
      7.571  0.0000E+00  0.9800E+00
      7.654  0.0000E+00  0.9800E+00
      7.738  0.0000E+00  0.9800E+00
      7.821  0.0000E+00  0.9800E+00
      7.905  0.0000E+00  0.9800E+00
      7.988  0.0000E+00  0.9800E+00
      8.071  0.0000E+00  0.9800E+00
      8.155  0.0000E+00  0.9800E+00
      8.238  0.0000E+00  0.9800E+00
      8.322  0.0000E+00  0.9800E+00
      8.405  0.0000E+00  0.9800E+00
