   80   80  200    1
  0.9220190E+01  0.1146890E-08  0.8022124E-09  0.8017129E-09  0.5000000E-15
  1.000000000000000E-004
  CAR 
 diamond                                 
    128     27    106
 
  0.0000000E+00  0.0000000E+00  0.0000000E+00  0.1562500E-01
    1      -14.665818
    2      -14.381565
    3      -14.360154
    4      -14.261821
    5      -14.238673
    6      -14.230111
    7      -14.201958
    8      -14.199297
    9      -14.191646
   10      -14.188372
   11      -14.181949
   12      -14.076369
   13      -14.056335
   14      -14.051787
   15      -14.037942
   16      -14.016362
   17       -7.511125
   18       -7.447609
   19       -7.381638
   20       -7.363853
   21       -7.356401
   22       -7.326523
   23       -7.192582
   24       -7.166363
   25       -7.107059
   26       -6.969079
   27       -6.953730
   28       -6.949870
   29       -6.848134
   30       -6.828161
   31       -6.810753
   32       -6.796576
   33       -6.737084
   34       -6.706289
   35       -6.696840
   36       -6.648858
   37       -6.637337
   38       -6.535312
   39       -6.525598
   40       -6.477325
   41       -6.449778
   42       -6.441717
   43       -6.432294
   44       -6.430756
   45       -6.403552
   46       -6.350007
   47       -6.334676
   48       -6.325273
   49       -6.298673
   50       -6.232243
   51       -6.220318
   52       -6.209976
   53       -6.205722
   54       -6.204061
   55       -6.187966
   56       -6.183213
   57       -6.176062
   58       -6.171862
   59       -6.116295
   60       -6.113868
   61       -6.107261
   62       -6.087465
   63       -6.044127
   64       -5.975997
   65        1.772624
   66        3.075205
   67        3.134091
   68        3.242527
   69        3.406836
   70        3.442328
   71        3.666760
   72        3.885633
   73        3.926191
   74        4.070302
   75        4.110384
   76        4.119415
   77        4.137601
   78        4.310356
   79        4.331251
   80        4.396916
   81        4.551579
   82        4.678608
   83        4.928914
   84        5.054892
   85        5.179604
   86        5.179642
   87        5.306054
   88        5.346349
   89        5.347735
   90        5.615994
   91        5.676417
   92        5.770205
   93        5.834363
   94        5.853019
   95        6.058117
   96        6.059612
   97        6.082007
   98        6.115587
   99        6.173956
  100        6.186646
  101        6.190835
  102        6.234415
  103        6.308899
  104        6.371145
  105        6.720412
  106        6.836745
 
  0.2500000E+00  0.0000000E+00  0.0000000E+00  0.3125000E-01
    1      -14.644512
    2      -14.487987
    3      -14.254890
    4      -14.248241
    5      -14.237429
    6      -14.231383
    7      -14.212981
    8      -14.199058
    9      -14.192935
   10      -14.187471
   11      -14.182880
   12      -14.065281
   13      -14.064457
   14      -14.055603
   15      -14.052134
   16      -14.023190
   17       -7.473306
   18       -7.409063
   19       -7.371329
   20       -7.344120
   21       -7.308751
   22       -7.256874
   23       -7.239497
   24       -7.206407
   25       -7.206314
   26       -7.061817
   27       -7.036932
   28       -6.973898
   29       -6.965994
   30       -6.936838
   31       -6.815559
   32       -6.718738
   33       -6.684206
   34       -6.682606
   35       -6.587921
   36       -6.564562
   37       -6.535853
   38       -6.512689
   39       -6.507134
   40       -6.464123
   41       -6.459494
   42       -6.431829
   43       -6.418252
   44       -6.408087
   45       -6.381992
   46       -6.379643
   47       -6.371437
   48       -6.294003
   49       -6.279917
   50       -6.236001
   51       -6.210010
   52       -6.209907
   53       -6.205506
   54       -6.191500
   55       -6.177637
   56       -6.176594
   57       -6.171431
   58       -6.168120
   59       -6.162758
   60       -6.151866
   61       -6.136048
   62       -6.101513
   63       -6.059815
   64       -6.031174
   65        1.880945
   66        2.625908
   67        3.318470
   68        3.473972
   69        3.483905
   70        3.518396
   71        3.673221
   72        3.788591
   73        3.941645
   74        3.964416
   75        3.994054
   76        4.074901
   77        4.227839
   78        4.323089
   79        4.377411
   80        4.393698
   81        4.606641
   82        4.636782
   83        4.778975
   84        5.008582
   85        5.201327
   86        5.207330
   87        5.264301
   88        5.293471
   89        5.504072
   90        5.560751
   91        5.612906
   92        5.695079
   93        5.702744
   94        5.988116
   95        5.994940
   96        6.006278
   97        6.092066
   98        6.126616
   99        6.213501
  100        6.236907
  101        6.255869
  102        6.291646
  103        6.384038
  104        6.497689
  105        6.650547
  106        6.930442
 
  0.5000000E+00  0.0000000E+00  0.0000000E+00  0.1562500E-01
    1      -14.582846
    2      -14.582845
    3      -14.236156
    4      -14.236154
    5      -14.234420
    6      -14.234419
    7      -14.196043
    8      -14.196040
    9      -14.185191
   10      -14.185191
   11      -14.140159
   12      -14.140157
   13      -14.053937
   14      -14.053934
   15      -14.041588
   16      -14.041587
   17       -7.369110
   18       -7.369109
   19       -7.329891
   20       -7.329891
   21       -7.305882
   22       -7.305880
   23       -7.218694
   24       -7.218693
   25       -7.172418
   26       -7.172416
   27       -7.123450
   28       -7.123449
   29       -7.029211
   30       -7.029209
   31       -6.656001
   32       -6.656000
   33       -6.616973
   34       -6.616971
   35       -6.608205
   36       -6.608204
   37       -6.583898
   38       -6.583897
   39       -6.453209
   40       -6.453208
   41       -6.425941
   42       -6.425940
   43       -6.352128
   44       -6.352128
   45       -6.324428
   46       -6.324427
   47       -6.291173
   48       -6.291173
   49       -6.264911
   50       -6.264910
   51       -6.231068
   52       -6.231068
   53       -6.208904
   54       -6.208901
   55       -6.205785
   56       -6.205785
   57       -6.183048
   58       -6.183045
   59       -6.140262
   60       -6.140262
   61       -6.139697
   62       -6.139696
   63       -6.106397
   64       -6.106396
   65        2.185188
   66        2.185190
   67        3.525924
   68        3.525927
   69        3.643553
   70        3.643554
   71        3.694733
   72        3.694734
   73        3.727125
   74        3.727126
   75        4.046957
   76        4.046957
   77        4.336948
   78        4.336949
   79        4.462002
   80        4.462003
   81        4.562297
   82        4.562299
   83        4.767349
   84        4.767350
   85        5.221547
   86        5.221548
   87        5.372534
   88        5.372536
   89        5.433462
   90        5.433463
   91        5.578666
   92        5.578666
   93        5.809482
   94        5.809483
   95        5.960654
   96        5.960655
   97        6.260911
   98        6.260911
   99        6.268740
  100        6.268741
  101        6.292056
  102        6.292058
  103        6.591746
  104        6.591747
  105        6.648258
  106        6.648259
 
  0.0000000E+00  0.2500000E+00  0.0000000E+00  0.3125000E-01
    1      -14.625657
    2      -14.367474
    3      -14.360350
    4      -14.336563
    5      -14.253316
    6      -14.243219
    7      -14.217496
    8      -14.181195
    9      -14.178536
   10      -14.172610
   11      -14.114609
   12      -14.091301
   13      -14.074296
   14      -14.064198
   15      -14.040480
   16      -14.030341
   17       -7.491647
   18       -7.348153
   19       -7.309197
   20       -7.299503
   21       -7.292852
   22       -7.277255
   23       -7.254756
   24       -7.131906
   25       -7.112189
   26       -6.950625
   27       -6.944872
   28       -6.900566
   29       -6.886001
   30       -6.863366
   31       -6.836349
   32       -6.816117
   33       -6.803406
   34       -6.755889
   35       -6.719120
   36       -6.654071
   37       -6.554657
   38       -6.532329
   39       -6.523430
   40       -6.516172
   41       -6.492540
   42       -6.463387
   43       -6.433109
   44       -6.394434
   45       -6.337497
   46       -6.329056
   47       -6.310537
   48       -6.305480
   49       -6.285053
   50       -6.279130
   51       -6.265400
   52       -6.251099
   53       -6.231754
   54       -6.223085
   55       -6.213713
   56       -6.210953
   57       -6.199906
   58       -6.194551
   59       -6.148166
   60       -6.138822
   61       -6.129634
   62       -6.095983
   63       -6.029171
   64       -6.013139
   65        1.997465
   66        3.183870
   67        3.286103
   68        3.385602
   69        3.419367
   70        3.451092
   71        3.607041
   72        3.809990
   73        3.908512
   74        4.063528
   75        4.110851
   76        4.121014
   77        4.223550
   78        4.285976
   79        4.409670
   80        4.678763
   81        4.722499
   82        4.770079
   83        4.773041
   84        4.834435
   85        4.993266
   86        5.048802
   87        5.290676
   88        5.415085
   89        5.448905
   90        5.475696
   91        5.558262
   92        5.576609
   93        5.588914
   94        5.728257
   95        5.896668
   96        5.928150
   97        6.134903
   98        6.147375
   99        6.156085
  100        6.169563
  101        6.187162
  102        6.192187
  103        6.283005
  104        6.298958
  105        6.344672
  106        6.914495
 
  0.2500000E+00  0.2500000E+00  0.0000000E+00  0.6250000E-01
    1      -14.605512
    2      -14.458283
    3      -14.357418
    4      -14.287882
    5      -14.236403
    6      -14.234205
    7      -14.192889
    8      -14.184148
    9      -14.180006
   10      -14.173934
   11      -14.121400
   12      -14.079159
   13      -14.073154
   14      -14.065588
   15      -14.064738
   16      -14.037085
   17       -7.456258
   18       -7.349072
   19       -7.325799
   20       -7.276556
   21       -7.264819
   22       -7.222663
   23       -7.212393
   24       -7.210805
   25       -7.165830
   26       -7.041390
   27       -7.015531
   28       -6.971534
   29       -6.959039
   30       -6.892095
   31       -6.830357
   32       -6.716376
   33       -6.713718
   34       -6.649336
   35       -6.627544
   36       -6.619605
   37       -6.616457
   38       -6.584873
   39       -6.506310
   40       -6.478388
   41       -6.456884
   42       -6.434624
   43       -6.433179
   44       -6.417573
   45       -6.357395
   46       -6.341782
   47       -6.321391
   48       -6.308824
   49       -6.298872
   50       -6.283414
   51       -6.276517
   52       -6.250989
   53       -6.249611
   54       -6.237866
   55       -6.227734
   56       -6.226917
   57       -6.192695
   58       -6.167939
   59       -6.153556
   60       -6.147648
   61       -6.104866
   62       -6.094006
   63       -6.046486
   64       -6.013365
   65        2.095694
   66        2.783771
   67        3.388923
   68        3.419554
   69        3.477621
   70        3.521547
   71        3.755953
   72        3.792853
   73        3.900038
   74        4.044515
   75        4.065413
   76        4.120369
   77        4.285566
   78        4.341968
   79        4.483398
   80        4.578174
   81        4.665054
   82        4.706088
   83        4.766148
   84        4.786398
   85        5.056445
   86        5.064248
   87        5.237326
   88        5.363084
   89        5.434307
   90        5.492952
   91        5.506073
   92        5.509729
   93        5.625021
   94        5.877422
   95        5.880422
   96        5.983995
   97        6.009706
   98        6.080545
   99        6.097773
  100        6.131009
  101        6.236840
  102        6.264484
  103        6.333056
  104        6.350966
  105        6.362874
  106        6.768322
 
  0.5000000E+00  0.2500000E+00  0.0000000E+00  0.3125000E-01
    1      -14.547384
    2      -14.547383
    3      -14.329050
    4      -14.329049
    5      -14.217614
    6      -14.217612
    7      -14.177058
    8      -14.177057
    9      -14.146038
   10      -14.146036
   11      -14.134316
   12      -14.134314
   13      -14.069009
   14      -14.069007
   15      -14.055524
   16      -14.055523
   17       -7.361876
   18       -7.361875
   19       -7.311590
   20       -7.311589
   21       -7.275933
   22       -7.275933
   23       -7.170649
   24       -7.170648
   25       -7.089902
   26       -7.089901
   27       -7.084196
   28       -7.084196
   29       -6.999333
   30       -6.999331
   31       -6.743944
   32       -6.743944
   33       -6.649912
   34       -6.649912
   35       -6.566247
   36       -6.566247
   37       -6.527093
   38       -6.527092
   39       -6.463363
   40       -6.463362
   41       -6.439193
   42       -6.439192
   43       -6.428529
   44       -6.428529
   45       -6.416845
   46       -6.416844
   47       -6.347958
   48       -6.347958
   49       -6.310941
   50       -6.310941
   51       -6.259853
   52       -6.259852
   53       -6.256166
   54       -6.256165
   55       -6.245888
   56       -6.245887
   57       -6.147499
   58       -6.147499
   59       -6.133472
   60       -6.133471
   61       -6.099160
   62       -6.099159
   63       -6.046287
   64       -6.046287
   65        2.374180
   66        2.374182
   67        3.389429
   68        3.389429
   69        3.662795
   70        3.662798
   71        3.685149
   72        3.685149
   73        3.935806
   74        3.935807
   75        4.211206
   76        4.211207
   77        4.371046
   78        4.371047
   79        4.460130
   80        4.460130
   81        4.649432
   82        4.649433
   83        4.715528
   84        4.715529
   85        5.135953
   86        5.135954
   87        5.288615
   88        5.288615
   89        5.375203
   90        5.375204
   91        5.423666
   92        5.423667
   93        5.806105
   94        5.806106
   95        5.953611
   96        5.953612
   97        6.074597
   98        6.074598
   99        6.126954
  100        6.126955
  101        6.197397
  102        6.197398
  103        6.434515
  104        6.434515
  105        6.592438
  106        6.592438
 
  0.0000000E+00  0.5000000E+00  0.0000000E+00  0.1562500E-01
    1      -14.515934
    2      -14.515934
    3      -14.307821
    4      -14.307821
    5      -14.278176
    6      -14.278176
    7      -14.202844
    8      -14.202844
    9      -14.134028
   10      -14.134028
   11      -14.127275
   12      -14.127275
   13      -14.057921
   14      -14.057921
   15      -14.057582
   16      -14.057582
   17       -7.402120
   18       -7.402120
   19       -7.204291
   20       -7.204291
   21       -7.159166
   22       -7.159166
   23       -7.138065
   24       -7.138065
   25       -7.068741
   26       -7.068741
   27       -7.068442
   28       -7.068442
   29       -6.964645
   30       -6.964645
   31       -6.803964
   32       -6.803964
   33       -6.670970
   34       -6.670970
   35       -6.659953
   36       -6.659953
   37       -6.560809
   38       -6.560809
   39       -6.523935
   40       -6.523935
   41       -6.447430
   42       -6.447430
   43       -6.447140
   44       -6.447140
   45       -6.404137
   46       -6.404137
   47       -6.391662
   48       -6.391662
   49       -6.260286
   50       -6.260286
   51       -6.255450
   52       -6.255450
   53       -6.231627
   54       -6.231627
   55       -6.214707
   56       -6.214707
   57       -6.193091
   58       -6.193091
   59       -6.170285
   60       -6.170285
   61       -6.129344
   62       -6.129344
   63       -6.041249
   64       -6.041249
   65        2.595701
   66        2.595701
   67        3.415778
   68        3.415778
   69        3.628380
   70        3.628380
   71        3.781081
   72        3.781081
   73        3.955655
   74        3.955655
   75        4.267528
   76        4.267528
   77        4.389688
   78        4.389688
   79        4.435797
   80        4.435797
   81        4.496727
   82        4.496727
   83        4.949479
   84        4.949479
   85        5.104850
   86        5.104850
   87        5.170558
   88        5.170558
   89        5.285896
   90        5.285896
   91        5.396139
   92        5.396139
   93        5.698600
   94        5.698600
   95        5.841999
   96        5.841999
   97        5.935624
   98        5.935624
   99        5.990311
  100        5.990311
  101        6.327324
  102        6.327324
  103        6.427667
  104        6.427667
  105        6.505928
  106        6.505928
 
  0.2500000E+00  0.5000000E+00  0.0000000E+00  0.3125000E-01
    1      -14.499461
    2      -14.499461
    3      -14.380796
    4      -14.380796
    5      -14.203724
    6      -14.203724
    7      -14.196975
    8      -14.196975
    9      -14.158449
   10      -14.158449
   11      -14.102796
   12      -14.102796
   13      -14.075844
   14      -14.075844
   15      -14.063504
   16      -14.063504
   17       -7.379103
   18       -7.379103
   19       -7.245419
   20       -7.245419
   21       -7.184778
   22       -7.184778
   23       -7.171849
   24       -7.171849
   25       -7.092621
   26       -7.092621
   27       -6.981657
   28       -6.981657
   29       -6.932745
   30       -6.932745
   31       -6.740328
   32       -6.740328
   33       -6.678684
   34       -6.678684
   35       -6.678646
   36       -6.678646
   37       -6.588216
   38       -6.588216
   39       -6.532047
   40       -6.532047
   41       -6.467210
   42       -6.467210
   43       -6.406093
   44       -6.406093
   45       -6.406067
   46       -6.406067
   47       -6.392934
   48       -6.392934
   49       -6.320188
   50       -6.320188
   51       -6.289851
   52       -6.289851
   53       -6.263676
   54       -6.263676
   55       -6.254749
   56       -6.254749
   57       -6.165046
   58       -6.165046
   59       -6.112759
   60       -6.112759
   61       -6.084249
   62       -6.084249
   63       -6.042122
   64       -6.042122
   65        2.660681
   66        2.660681
   67        3.141943
   68        3.141943
   69        3.799211
   70        3.799211
   71        3.830034
   72        3.830034
   73        4.006042
   74        4.006042
   75        4.261602
   76        4.261602
   77        4.421862
   78        4.421862
   79        4.444103
   80        4.444103
   81        4.512291
   82        4.512291
   83        4.797548
   84        4.797548
   85        5.067827
   86        5.067827
   87        5.215564
   88        5.215564
   89        5.376970
   90        5.376970
   91        5.412619
   92        5.412619
   93        5.652527
   94        5.652527
   95        5.883587
   96        5.883587
   97        5.909037
   98        5.909037
   99        6.006644
  100        6.006644
  101        6.268808
  102        6.268809
  103        6.381032
  104        6.381032
  105        6.411445
  106        6.501478
 
  0.5000000E+00  0.5000000E+00  0.0000000E+00  0.1562500E-01
    1      -14.452229
    2      -14.452229
    3      -14.452227
    4      -14.452227
    5      -14.181786
    6      -14.181786
    7      -14.181785
    8      -14.181785
    9      -14.127488
   10      -14.127488
   11      -14.127486
   12      -14.127486
   13      -14.079323
   14      -14.079323
   15      -14.079321
   16      -14.079321
   17       -7.318569
   18       -7.318569
   19       -7.318568
   20       -7.318568
   21       -7.203168
   22       -7.203168
   23       -7.203167
   24       -7.203167
   25       -7.037513
   26       -7.037513
   27       -7.037511
   28       -7.037511
   29       -6.766503
   30       -6.766503
   31       -6.766502
   32       -6.766502
   33       -6.688005
   34       -6.688005
   35       -6.688005
   36       -6.688005
   37       -6.573408
   38       -6.573408
   39       -6.573408
   40       -6.573407
   41       -6.468867
   42       -6.468867
   43       -6.468866
   44       -6.468866
   45       -6.375958
   46       -6.375958
   47       -6.375957
   48       -6.375957
   49       -6.313470
   50       -6.313470
   51       -6.313470
   52       -6.313470
   53       -6.296027
   54       -6.296027
   55       -6.296027
   56       -6.296027
   57       -6.120215
   58       -6.120215
   59       -6.120213
   60       -6.120213
   61       -6.043768
   62       -6.043768
   63       -6.043767
   64       -6.043767
   65        2.849987
   66        2.849987
   67        2.849988
   68        2.849988
   69        3.835027
   70        3.835027
   71        3.835028
   72        3.835028
   73        4.203122
   74        4.203122
   75        4.203124
   76        4.203124
   77        4.432794
   78        4.432794
   79        4.432795
   80        4.432795
   81        4.622279
   82        4.622279
   83        4.622280
   84        4.622280
   85        5.124308
   86        5.124308
   87        5.124308
   88        5.124308
   89        5.409319
   90        5.409319
   91        5.409320
   92        5.409320
   93        5.756536
   94        5.756536
   95        5.756537
   96        5.756537
   97        6.012010
   98        6.012010
   99        6.012011
  100        6.012011
  101        6.283074
  102        6.283074
  103        6.283074
  104        6.283075
  105        6.376621
  106        6.376621
 
  0.0000000E+00  0.0000000E+00  0.2500000E+00  0.3125000E-01
    1      -14.624848
    2      -14.367863
    3      -14.354188
    4      -14.337578
    5      -14.223911
    6      -14.216065
    7      -14.213354
    8      -14.209104
    9      -14.182152
   10      -14.171914
   11      -14.144698
   12      -14.099866
   13      -14.077964
   14      -14.073085
   15      -14.034054
   16      -14.025055
   17       -7.403687
   18       -7.395789
   19       -7.336015
   20       -7.304090
   21       -7.288307
   22       -7.233438
   23       -7.163429
   24       -7.105866
   25       -7.063355
   26       -6.991132
   27       -6.963980
   28       -6.953166
   29       -6.948291
   30       -6.946046
   31       -6.840794
   32       -6.783907
   33       -6.743617
   34       -6.740632
   35       -6.640730
   36       -6.636735
   37       -6.621715
   38       -6.539474
   39       -6.463939
   40       -6.457420
   41       -6.456726
   42       -6.443990
   43       -6.439701
   44       -6.429921
   45       -6.333115
   46       -6.325331
   47       -6.321107
   48       -6.318309
   49       -6.307081
   50       -6.306288
   51       -6.258581
   52       -6.250997
   53       -6.247894
   54       -6.240852
   55       -6.236948
   56       -6.225490
   57       -6.216518
   58       -6.210357
   59       -6.169714
   60       -6.163324
   61       -6.146805
   62       -6.097648
   63       -6.066077
   64       -6.014524
   65        1.994319
   66        3.228440
   67        3.271662
   68        3.366338
   69        3.407694
   70        3.486283
   71        3.598351
   72        3.808307
   73        3.904418
   74        4.099672
   75        4.113712
   76        4.256818
   77        4.264003
   78        4.432661
   79        4.466894
   80        4.630696
   81        4.705206
   82        4.857443
   83        4.972081
   84        5.075054
   85        5.089244
   86        5.141818
   87        5.251558
   88        5.261367
   89        5.320178
   90        5.427382
   91        5.431167
   92        5.493476
   93        5.556078
   94        5.613312
   95        5.685524
   96        6.021041
   97        6.051990
   98        6.105216
   99        6.186241
  100        6.261069
  101        6.350128
  102        6.412363
  103        6.456098
  104        6.732633
  105        6.828674
  106        6.879555
 
  0.2500000E+00  0.0000000E+00  0.2500000E+00  0.6250000E-01
    1      -14.604563
    2      -14.456094
    3      -14.356106
    4      -14.273732
    5      -14.233682
    6      -14.212303
    7      -14.210349
    8      -14.182686
    9      -14.173734
   10      -14.171464
   11      -14.145747
   12      -14.090030
   13      -14.077214
   14      -14.073981
   15      -14.058792
   16      -14.035430
   17       -7.391707
   18       -7.362464
   19       -7.309596
   20       -7.278016
   21       -7.268867
   22       -7.209095
   23       -7.187854
   24       -7.170227
   25       -7.118688
   26       -7.033941
   27       -7.010389
   28       -7.004236
   29       -6.998747
   30       -6.932452
   31       -6.823817
   32       -6.759976
   33       -6.732223
   34       -6.620443
   35       -6.615126
   36       -6.609153
   37       -6.599540
   38       -6.512800
   39       -6.511894
   40       -6.493493
   41       -6.448553
   42       -6.434977
   43       -6.421582
   44       -6.398526
   45       -6.369897
   46       -6.360887
   47       -6.331319
   48       -6.317390
   49       -6.297874
   50       -6.293087
   51       -6.254166
   52       -6.253197
   53       -6.251558
   54       -6.247169
   55       -6.225683
   56       -6.213610
   57       -6.209585
   58       -6.179899
   59       -6.174179
   60       -6.172421
   61       -6.152751
   62       -6.118457
   63       -6.090207
   64       -6.021703
   65        2.092423
   66        2.783867
   67        3.356913
   68        3.403459
   69        3.496891
   70        3.633512
   71        3.656162
   72        3.907836
   73        3.974281
   74        3.985964
   75        4.029875
   76        4.272601
   77        4.348719
   78        4.415839
   79        4.511646
   80        4.594222
   81        4.754334
   82        4.790681
   83        4.810634
   84        5.015221
   85        5.062377
   86        5.099776
   87        5.217739
   88        5.223172
   89        5.250767
   90        5.407720
   91        5.528562
   92        5.573626
   93        5.583489
   94        5.669023
   95        5.829845
   96        5.952014
   97        5.957448
   98        6.186334
   99        6.216123
  100        6.248463
  101        6.268011
  102        6.427042
  103        6.495117
  104        6.600576
  105        6.728050
  106        6.836807
 
  0.5000000E+00  0.0000000E+00  0.2500000E+00  0.3125000E-01
    1      -14.545986
    2      -14.545985
    3      -14.322775
    4      -14.322773
    5      -14.213498
    6      -14.213497
    7      -14.177921
    8      -14.177918
    9      -14.151481
   10      -14.151480
   11      -14.128684
   12      -14.128683
   13      -14.075391
   14      -14.075388
   15      -14.062331
   16      -14.062330
   17       -7.342952
   18       -7.342952
   19       -7.275495
   20       -7.275493
   21       -7.222692
   22       -7.222691
   23       -7.173045
   24       -7.173044
   25       -7.166713
   26       -7.166711
   27       -7.032678
   28       -7.032677
   29       -7.017474
   30       -7.017473
   31       -6.709394
   32       -6.709393
   33       -6.680050
   34       -6.680050
   35       -6.609501
   36       -6.609500
   37       -6.551311
   38       -6.551309
   39       -6.479870
   40       -6.479870
   41       -6.421739
   42       -6.421738
   43       -6.385658
   44       -6.385657
   45       -6.382581
   46       -6.382580
   47       -6.340935
   48       -6.340935
   49       -6.309132
   50       -6.309132
   51       -6.257437
   52       -6.257435
   53       -6.242080
   54       -6.242079
   55       -6.225263
   56       -6.225263
   57       -6.195963
   58       -6.195962
   59       -6.169704
   60       -6.169702
   61       -6.138745
   62       -6.138744
   63       -6.066649
   64       -6.066649
   65        2.371033
   66        2.371035
   67        3.355150
   68        3.355151
   69        3.703428
   70        3.703431
   71        3.777451
   72        3.777452
   73        3.898810
   74        3.898811
   75        4.276299
   76        4.276300
   77        4.401803
   78        4.401804
   79        4.577365
   80        4.577365
   81        4.623863
   82        4.623865
   83        4.899859
   84        4.899860
   85        5.093018
   86        5.093019
   87        5.199995
   88        5.199995
   89        5.221214
   90        5.221215
   91        5.544084
   92        5.544086
   93        5.733935
   94        5.733935
   95        5.907888
   96        5.907888
   97        6.127053
   98        6.127054
   99        6.191792
  100        6.191792
  101        6.374079
  102        6.374080
  103        6.495147
  104        6.495148
  105        6.689279
  106        6.689279
 
  0.0000000E+00  0.2500000E+00  0.2500000E+00  0.6250000E-01
    1      -14.586047
    2      -14.341842
    3      -14.340350
    4      -14.329811
    5      -14.314382
    6      -14.231039
    7      -14.210218
    8      -14.202711
    9      -14.197334
   10      -14.155807
   11      -14.145303
   12      -14.097203
   13      -14.096083
   14      -14.050912
   15      -14.036036
   16      -14.032284
   17       -7.386658
   18       -7.300796
   19       -7.261273
   20       -7.249185
   21       -7.232926
   22       -7.190552
   23       -7.186287
   24       -7.072174
   25       -7.013930
   26       -7.010333
   27       -6.922790
   28       -6.915605
   29       -6.906103
   30       -6.870191
   31       -6.869870
   32       -6.844464
   33       -6.804201
   34       -6.785803
   35       -6.758689
   36       -6.653680
   37       -6.631898
   38       -6.537280
   39       -6.502234
   40       -6.482756
   41       -6.479382
   42       -6.425247
   43       -6.416420
   44       -6.399288
   45       -6.397027