   80   80  200    1
  0.9220190E+01  0.1146890E-08  0.8022124E-09  0.8017129E-09  0.5000000E-15
  1.000000000000000E-004
  CAR 
 diamond                                 
    128     27    106
 
  0.0000000E+00  0.0000000E+00  0.0000000E+00  0.1562500E-01
    1      -14.665755
    2      -14.382488
    3      -14.359106
    4      -14.260977
    5      -14.239586
    6      -14.231028
    7      -14.200905
    8      -14.198162
    9      -14.190533
   10      -14.189447
   11      -14.183020
   12      -14.077297
   13      -14.055149
   14      -14.050601
   15      -14.037899
   16      -14.017087
   17       -7.512846
   18       -7.446467
   19       -7.381707
   20       -7.365302
   21       -7.354019
   22       -7.326135
   23       -7.193563
   24       -7.167587
   25       -7.110355
   26       -6.968963
   27       -6.954676
   28       -6.948849
   29       -6.850457
   30       -6.828532
   31       -6.807824
   32       -6.798195
   33       -6.735434
   34       -6.705338
   35       -6.693381
   36       -6.646219
   37       -6.633789
   38       -6.532596
   39       -6.527405
   40       -6.478095
   41       -6.451679
   42       -6.438618
   43       -6.432599
   44       -6.430191
   45       -6.400932
   46       -6.351119
   47       -6.334780
   48       -6.323707
   49       -6.299712
   50       -6.230560
   51       -6.224033
   52       -6.209663
   53       -6.205337
   54       -6.204106
   55       -6.190502
   56       -6.183578
   57       -6.176417
   58       -6.176142
   59       -6.118578
   60       -6.111132
   61       -6.106437
   62       -6.088012
   63       -6.047071
   64       -5.972830
   65        1.772703
   66        3.077411
   67        3.134254
   68        3.240926
   69        3.408714
   70        3.441757
   71        3.668139
   72        3.884381
   73        3.925655
   74        4.068697
   75        4.112653
   76        4.119340
   77        4.137037
   78        4.309143
   79        4.330454
   80        4.396385
   81        4.549657
   82        4.681458
   83        4.929427
   84        5.054171
   85        5.179780
   86        5.182596
   87        5.306599
   88        5.347815
   89        5.350406
   90        5.615724
   91        5.676549
   92        5.770490
   93        5.832516
   94        5.852752
   95        6.058283
   96        6.058919
   97        6.079278
   98        6.116295
   99        6.171188
  100        6.190260
  101        6.190424
  102        6.234162
  103        6.307236
  104        6.372368
  105        6.720238
  106        6.836627
 
  0.2500000E+00  0.0000000E+00  0.0000000E+00  0.3125000E-01
    1      -14.644455
    2      -14.488001
    3      -14.254040
    4      -14.248104
    5      -14.238342
    6      -14.232299
    7      -14.212002
    8      -14.197947
    9      -14.191823
   10      -14.188545
   11      -14.183951
   12      -14.065291
   13      -14.065198
   14      -14.054418
   15      -14.050979
   16      -14.023915
   17       -7.475084
   18       -7.407983
   19       -7.372079
   20       -7.344408
   21       -7.306360
   22       -7.257244
   23       -7.240251
   24       -7.208476
   25       -7.206750
   26       -7.062146
   27       -7.036747
   28       -6.974832
   29       -6.963560
   30       -6.937680
   31       -6.815715
   32       -6.716432
   33       -6.685376
   34       -6.681656
   35       -6.585093
   36       -6.563208
   37       -6.534397
   38       -6.513739
   39       -6.508803
   40       -6.464777
   41       -6.457585
   42       -6.429616
   43       -6.418429
   44       -6.406001
   45       -6.380436
   46       -6.379810
   47       -6.371925
   48       -6.292351
   49       -6.279897
   50       -6.235785
   51       -6.210017
   52       -6.209679
   53       -6.205209
   54       -6.193557
   55       -6.177698
   56       -6.177019
   57       -6.174044
   58       -6.172680
   59       -6.160270
   60       -6.150985
   61       -6.138578
   62       -6.102057
   63       -6.062590
   64       -6.028268
   65        1.881109
   66        2.626714
   67        3.317040
   68        3.475407
   69        3.485828
   70        3.517851
   71        3.674643
   72        3.787954
   73        3.940135
   74        3.966616
   75        3.993552
   76        4.073071
   77        4.228044
   78        4.322076
   79        4.376926
   80        4.392901
   81        4.604877
   82        4.639134
   83        4.778566
   84        5.007886
   85        5.201283
   86        5.208929
   87        5.264950
   88        5.296902
   89        5.506052
   90        5.561298
   91        5.612627
   92        5.694950
   93        5.702555
   94        5.987390
   95        5.995120
   96        6.005724
   97        6.094665
   98        6.126072
   99        6.212956
  100        6.234588
  101        6.254787
  102        6.291261
  103        6.384956
  104        6.497285
  105        6.650083
  106        6.893756
 
  0.5000000E+00  0.0000000E+00  0.0000000E+00  0.1562500E-01
    1      -14.582807
    2      -14.582805
    3      -14.235335
    4      -14.235334
    5      -14.235273
    6      -14.235271
    7      -14.194933
    8      -14.194931
    9      -14.186264
   10      -14.186264
   11      -14.140079
   12      -14.140078
   13      -14.052754
   14      -14.052751
   15      -14.042335
   16      -14.042334
   17       -7.371133
   18       -7.371132
   19       -7.330493
   20       -7.330493
   21       -7.305118
   22       -7.305116
   23       -7.218612
   24       -7.218611
   25       -7.170002
   26       -7.170001
   27       -7.124180
   28       -7.124179
   29       -7.029871
   30       -7.029869
   31       -6.656311
   32       -6.656310
   33       -6.615993
   34       -6.615991
   35       -6.605398
   36       -6.605397
   37       -6.585029
   38       -6.585028
   39       -6.454432
   40       -6.454431
   41       -6.426703
   42       -6.426701
   43       -6.350366
   44       -6.350366
   45       -6.323402
   46       -6.323401
   47       -6.289005
   48       -6.289005
   49       -6.263786
   50       -6.263785
   51       -6.229898
   52       -6.229898
   53       -6.208685
   54       -6.208683
   55       -6.206788
   56       -6.206788
   57       -6.183030
   58       -6.183028
   59       -6.142216
   60       -6.142216
   61       -6.140237
   62       -6.140236
   63       -6.109107
   64       -6.109105
   65        2.185599
   66        2.185600
   67        3.524899
   68        3.524901
   69        3.645043
   70        3.645045
   71        3.696781
   72        3.696781
   73        3.726629
   74        3.726630
   75        4.044977
   76        4.044977
   77        4.336430
   78        4.336431
   79        4.463077
   80        4.463077
   81        4.561560
   82        4.561561
   83        4.765984
   84        4.765986
   85        5.223704
   86        5.223705
   87        5.373510
   88        5.373512
   89        5.433467
   90        5.433469
   91        5.578142
   92        5.578142
   93        5.812170
   94        5.812170
   95        5.960787
   96        5.960788
   97        6.260081
   98        6.260081
   99        6.268206
  100        6.268207
  101        6.291856
  102        6.291858
  103        6.591212
  104        6.591213
  105        6.646220
  106        6.646221
 
  0.0000000E+00  0.2500000E+00  0.0000000E+00  0.3125000E-01
    1      -14.625599
    2      -14.367516
    3      -14.361273
    4      -14.335507
    5      -14.254234
    6      -14.242475
    7      -14.216394
    8      -14.181911
    9      -14.177394
   10      -14.173673
   11      -14.114637
   12      -14.092047
   13      -14.073118
   14      -14.063367
   15      -14.040419
   16      -14.030969
   17       -7.493156
   18       -7.346882
   19       -7.310861
   20       -7.297092
   21       -7.292771
   22       -7.276843
   23       -7.255926
   24       -7.134955
   25       -7.113256
   26       -6.950163
   27       -6.945291
   28       -6.897905
   29       -6.887593
   30       -6.862136
   31       -6.835321
   32       -6.813454
   33       -6.803963
   34       -6.753615
   35       -6.720847
   36       -6.653974
   37       -6.551010
   38       -6.530216
   39       -6.524376
   40       -6.513615
   41       -6.494370
   42       -6.464618
   43       -6.434754
   44       -6.395981
   45       -6.335033
   46       -6.327035
   47       -6.310444
   48       -6.307483
   49       -6.283963
   50       -6.278974
   51       -6.263170
   52       -6.251797
   53       -6.232162
   54       -6.224587
   55       -6.213337
   56       -6.211952
   57       -6.199944
   58       -6.196970
   59       -6.148192
   60       -6.141184
   61       -6.127028
   62       -6.098629
   63       -6.031411
   64       -6.010043
   65        1.997533
   66        3.186033
   67        3.286211
   68        3.385100
   69        3.418665
   70        3.453148
   71        3.606977
   72        3.811423
   73        3.907647
   74        4.062393
   75        4.110235
   76        4.120352
   77        4.223054
   78        4.285603
   79        4.409043
   80        4.676887
   81        4.726562
   82        4.772846
   83        4.773121
   84        4.833752
   85        4.993418
   86        5.049051
   87        5.294148
   88        5.414933
   89        5.449409
   90        5.476699
   91        5.558897
   92        5.575232
   93        5.587572
   94        5.725921
   95        5.894315
   96        5.929207
   97        6.134872
   98        6.146683
   99        6.153827
  100        6.169104
  101        6.186060
  102        6.192351
  103        6.282484
  104        6.301833
  105        6.345347
  106        6.863092
 
  0.2500000E+00  0.2500000E+00  0.0000000E+00  0.6250000E-01
    1      -14.605460
    2      -14.458312
    3      -14.357472
    4      -14.288142
    5      -14.235655
    6      -14.234043
    7      -14.191955
    8      -14.183702
    9      -14.180766
   10      -14.174938
   11      -14.121214
   12      -14.079903
   13      -14.072086
   14      -14.064714
   15      -14.064619
   16      -14.037714
   17       -7.457830
   18       -7.348204
   19       -7.326737
   20       -7.277344
   21       -7.262705
   22       -7.223350
   23       -7.212769
   24       -7.211991
   25       -7.165560
   26       -7.041862
   27       -7.013503
   28       -6.971539
   29       -6.960196
   30       -6.892061
   31       -6.829182
   32       -6.715853
   33       -6.712357
   34       -6.649385
   35       -6.626239
   36       -6.618282
   37       -6.616406
   38       -6.582575
   39       -6.507363
   40       -6.480074
   41       -6.454725
   42       -6.435369
   43       -6.434342
   44       -6.417662
   45       -6.358208
   46       -6.339739
   47       -6.322183
   48       -6.307957
   49       -6.299108
   50       -6.282854
   51       -6.276412
   52       -6.249431
   53       -6.248493
   54       -6.237002
   55       -6.228046
   56       -6.226976
   57       -6.192747
   58       -6.171051
   59       -6.156682
   60       -6.147463
   61       -6.103632
   62       -6.095948
   63       -6.048524
   64       -6.011213
   65        2.095845
   66        2.784588
   67        3.389277
   68        3.421001
   69        3.476288
   70        3.522277
   71        3.756485
   72        3.794106
   73        3.899540
   74        4.044224
   75        4.064929
   76        4.119141
   77        4.285232
   78        4.341246
   79        4.482953
   80        4.580287
   81        4.665772
   82        4.705639
   83        4.767418
   84        4.786122
   85        5.056936
   86        5.064484
   87        5.239978
   88        5.363072
   89        5.434498
   90        5.492734
   91        5.505524
   92        5.509173
   93        5.626246
   94        5.875467
   95        5.881309
   96        5.983395
   97        6.007940
   98        6.080233
   99        6.098338
  100        6.129925
  101        6.237090
  102        6.263471
  103        6.332357
  104        6.350570
  105        6.364359
  106        6.767641
 
  0.5000000E+00  0.2500000E+00  0.0000000E+00  0.3125000E-01
    1      -14.547352
    2      -14.547351
    3      -14.329153
    4      -14.329152
    5      -14.216827
    6      -14.216824
    7      -14.177931
    8      -14.177930
    9      -14.145756
   10      -14.145755
   11      -14.134218
   12      -14.134217
   13      -14.068025
   14      -14.068022
   15      -14.056177
   16      -14.056176
   17       -7.363517
   18       -7.363516
   19       -7.312486
   20       -7.312486
   21       -7.275226
   22       -7.275225
   23       -7.168463
   24       -7.168462
   25       -7.090552
   26       -7.090551
   27       -7.084226
   28       -7.084226
   29       -6.999568
   30       -6.999566
   31       -6.742898
   32       -6.742897
   33       -6.648902
   34       -6.648902
   35       -6.565768
   36       -6.565767
   37       -6.527113
   38       -6.527112
   39       -6.464590
   40       -6.464589
   41       -6.439136
   42       -6.439135
   43       -6.427378
   44       -6.427377
   45       -6.417608
   46       -6.417607
   47       -6.346458
   48       -6.346458
   49       -6.309415
   50       -6.309415
   51       -6.259727
   52       -6.259726
   53       -6.256030
   54       -6.256029
   55       -6.247369
   56       -6.247368
   57       -6.145816
   58       -6.145815
   59       -6.135776
   60       -6.135775
   61       -6.101655
   62       -6.101654
   63       -6.045282
   64       -6.045282
   65        2.374575
   66        2.374577
   67        3.390200
   68        3.390201
   69        3.661756
   70        3.661758
   71        3.685847
   72        3.685847
   73        3.936324
   74        3.936324
   75        4.210198
   76        4.210198
   77        4.371983
   78        4.371983
   79        4.460220
   80        4.460220
   81        4.649698
   82        4.649699
   83        4.715209
   84        4.715210
   85        5.137334
   86        5.137336
   87        5.289010
   88        5.289010
   89        5.375328
   90        5.375330
   91        5.422742
   92        5.422743
   93        5.807502
   94        5.807502
   95        5.953883
   96        5.953883
   97        6.074384
   98        6.074384
   99        6.125527
  100        6.125529
  101        6.197079
  102        6.197081
  103        6.432669
  104        6.432669
  105        6.592025
  106        6.594477
 
  0.0000000E+00  0.5000000E+00  0.0000000E+00  0.1562500E-01
    1      -14.515899
    2      -14.515899
    3      -14.308741
    4      -14.308741
    5      -14.277097
    6      -14.277097
    7      -14.202579
    8      -14.202579
    9      -14.135064
   10      -14.135064
   11      -14.126116
   12      -14.126116
   13      -14.058072
   14      -14.058072
   15      -14.057464
   16      -14.057464
   17       -7.403362
   18       -7.403362
   19       -7.206414
   20       -7.206414
   21       -7.158398
   22       -7.158398
   23       -7.135565
   24       -7.135565
   25       -7.068639
   26       -7.068639
   27       -7.067042
   28       -7.067042
   29       -6.965931
   30       -6.965931
   31       -6.804324
   32       -6.804324
   33       -6.668690
   34       -6.668690
   35       -6.657652
   36       -6.657652
   37       -6.562275
   38       -6.562275
   39       -6.525184
   40       -6.525184
   41       -6.447960
   42       -6.447960
   43       -6.445484
   44       -6.445484
   45       -6.406066
   46       -6.406066
   47       -6.392438
   48       -6.392438
   49       -6.257814
   50       -6.257814
   51       -6.255446
   52       -6.255446
   53       -6.231748
   54       -6.231748
   55       -6.214898
   56       -6.214898
   57       -6.197250
   58       -6.197250
   59       -6.168100
   60       -6.168100
   61       -6.126400
   62       -6.126400
   63       -6.043575
   64       -6.043575
   65        2.595789
   66        2.595789
   67        3.418064
   68        3.418064
   69        3.628163
   70        3.628163
   71        3.779850
   72        3.779850
   73        3.956250
   74        3.956250
   75        4.269658
   76        4.269658
   77        4.389376
   78        4.389376
   79        4.435152
   80        4.435152
   81        4.495283
   82        4.495283
   83        4.952164
   84        4.952164
   85        5.102860
   86        5.102860
   87        5.171732
   88        5.171732
   89        5.287841
   90        5.287841
   91        5.393887
   92        5.393887
   93        5.697893
   94        5.697893
   95        5.842506
   96        5.842506
   97        5.935997
   98        5.935997
   99        5.988153
  100        5.988153
  101        6.329018
  102        6.329018
  103        6.427275
  104        6.427293
  105        6.506185
  106        6.506970
 
  0.2500000E+00  0.5000000E+00  0.0000000E+00  0.3125000E-01
    1      -14.499432
    2      -14.499432
    3      -14.380880
    4      -14.380880
    5      -14.203486
    6      -14.203486
    7      -14.196731
    8      -14.196731
    9      -14.158441
   10      -14.158441
   11      -14.102683
   12      -14.102683
   13      -14.075718
   14      -14.075718
   15      -14.063629
   16      -14.063629
   17       -7.380408
   18       -7.380408
   19       -7.247166
   20       -7.247166
   21       -7.183579
   22       -7.183579
   23       -7.169854
   24       -7.169854
   25       -7.092571
   26       -7.092571
   27       -6.982518
   28       -6.982518
   29       -6.931974
   30       -6.931974
   31       -6.740063
   32       -6.740063
   33       -6.677198
   34       -6.677198
   35       -6.676962
   36       -6.676962
   37       -6.588669
   38       -6.588669
   39       -6.532868
   40       -6.532868
   41       -6.467658
   42       -6.467658
   43       -6.406556
   44       -6.406556
   45       -6.405156
   46       -6.405156
   47       -6.394679
   48       -6.394679
   49       -6.319642
   50       -6.319642
   51       -6.290527
   52       -6.290527
   53       -6.261540
   54       -6.261540
   55       -6.254660
   56       -6.254660
   57       -6.167638
   58       -6.167638
   59       -6.112546
   60       -6.112546
   61       -6.082424
   62       -6.082424
   63       -6.043328
   64       -6.043328
   65        2.660846
   66        2.660846
   67        3.142851
   68        3.142851
   69        3.798131
   70        3.798131
   71        3.830775
   72        3.830775
   73        4.006692
   74        4.006692
   75        4.263592
   76        4.263592
   77        4.421194
   78        4.421194
   79        4.443442
   80        4.443442
   81        4.511859
   82        4.511859
   83        4.799057
   84        4.799057
   85        5.068565
   86        5.068565
   87        5.216524
   88        5.216524
   89        5.376120
   90        5.376120
   91        5.411259
   92        5.411259
   93        5.651845
   94        5.651845
   95        5.884057
   96        5.884057
   97        5.909934
   98        5.909934
   99        6.004910
  100        6.004910
  101        6.269213
  102        6.269213
  103        6.380200
  104        6.380257
  105        6.410264
  106        6.410772
 
  0.5000000E+00  0.5000000E+00  0.0000000E+00  0.1562500E-01
    1      -14.452227
    2      -14.452227
    3      -14.452225
    4      -14.452225
    5      -14.181623
    6      -14.181623
    7      -14.181621
    8      -14.181621
    9      -14.127334
   10      -14.127334
   11      -14.127332
   12      -14.127332
   13      -14.079368
   14      -14.079368
   15      -14.079366
   16      -14.079366
   17       -7.320048
   18       -7.320048
   19       -7.320047
   20       -7.320047
   21       -7.201656
   22       -7.201656
   23       -7.201655
   24       -7.201655
   25       -7.037786
   26       -7.037786
   27       -7.037785
   28       -7.037785
   29       -6.765761
   30       -6.765761
   31       -6.765760
   32       -6.765760
   33       -6.687122
   34       -6.687122
   35       -6.687121
   36       -6.687121
   37       -6.572965
   38       -6.572965
   39       -6.572965
   40       -6.572965
   41       -6.469752
   42       -6.469752
   43       -6.469751
   44       -6.469751
   45       -6.377104
   46       -6.377104
   47       -6.377103
   48       -6.377103
   49       -6.312945
   50       -6.312945
   51       -6.312944
   52       -6.312944
   53       -6.295042
   54       -6.295042
   55       -6.295042
   56       -6.295041
   57       -6.122022
   58       -6.122022
   59       -6.122021
   60       -6.122021
   61       -6.042839
   62       -6.042839
   63       -6.042839
   64       -6.042839
   65        2.850396
   66        2.850396
   67        2.850398
   68        2.850398
   69        3.834561
   70        3.834561
   71        3.834562
   72        3.834562
   73        4.204843
   74        4.204843
   75        4.204845
   76        4.204845
   77        4.431854
   78        4.431854
   79        4.431855
   80        4.431855
   81        4.623304
   82        4.623304
   83        4.623304
   84        4.623304
   85        5.125121
   86        5.125121
   87        5.125121
   88        5.125121
   89        5.407944
   90        5.407944
   91        5.407945
   92        5.407945
   93        5.756247
   94        5.756247
   95        5.756248
   96        5.756248
   97        6.012751
   98        6.012751
   99        6.012751
  100        6.012751
  101        6.282063
  102        6.282063
  103        6.282087
  104        6.282245
  105        6.375509
  106        6.375509
 
  0.0000000E+00  0.0000000E+00  0.2500000E+00  0.3125000E-01
    1      -14.624776
    2      -14.367635
    3      -14.355129
    4      -14.336518
    5      -14.222790
    6      -14.216989
    7      -14.214393
    8      -14.210023
    9      -14.181134
   10      -14.170791
   11      -14.145364
   12      -14.100746
   13      -14.076791
   14      -14.071910
   15      -14.034037
   16      -14.025551
   17       -7.405365
   18       -7.394632
   19       -7.336205
   20       -7.301671
   21       -7.289602
   22       -7.232883
   23       -7.164429
   24       -7.107450
   25       -7.062208
   26       -6.991615
   27       -6.964025
   28       -6.951410
   29       -6.950440
   30       -6.946979
   31       -6.840458
   32       -6.781445
   33       -6.745874
   34       -6.740966
   35       -6.642608
   36       -6.633959
   37       -6.618037
   38       -6.539682
   39       -6.462192
   40       -6.457609
   41       -6.454488
   42       -6.446208
   43       -6.440668
   44       -6.427560
   45       -6.334783
   46       -6.324204
   47       -6.321839
   48       -6.316505
   49       -6.310623
   50       -6.304154
   51       -6.262363
   52       -6.250180
   53       -6.248174
   54       -6.241484
   55       -6.235640
   56       -6.228287
   57       -6.216145
   58       -6.210708
   59       -6.172459
   60       -6.162924
   61       -6.144087
   62       -6.097974
   63       -6.066144
   64       -6.011405
   65        1.994199
   66        3.230138
   67        3.271773
   68        3.365594
   69        3.406167
   70        3.485985
   71        3.599645
   72        3.807488
   73        3.905626
   74        4.100163
   75        4.113239
   76        4.255118
   77        4.263567
   78        4.432173
   79        4.466087
   80        4.630261
   81        4.703251
   82        4.860063
   83        4.971770
   84        5.078069
   85        5.089709
   86        5.141903
   87        5.251648
   88        5.261027
   89        5.320596
   90        5.425465
   91        5.435263
   92        5.493909
   93        5.555976
   94        5.611709
   95        5.685721
   96        6.021056
   97        6.051643
   98        6.104986
   99        6.183603
  100        6.261651
  101        6.347993
  102        6.416330
  103        6.454521
  104        6.733703
  105        6.834473
  106        6.873467
 
  0.2500000E+00  0.0000000E+00  0.2500000E+00  0.6250000E-01
    1      -14.604496
    2      -14.456095
    3      -14.355883
    4      -14.273519
    5      -14.233692
    6      -14.213100
    7      -14.211266
    8      -14.181989
    9      -14.172661
   10      -14.171360
   11      -14.146334
   12      -14.090828
   13      -14.076041
   14      -14.072819
   15      -14.058755
   16      -14.035944
   17       -7.393083
   18       -7.361402
   19       -7.310126
   20       -7.279073
   21       -7.266533
   22       -7.209279
   23       -7.188285
   24       -7.170244
   25       -7.119228
   26       -7.034268
   27       -7.008984
   28       -7.003920
   29       -6.999296
   30       -6.933120
   31       -6.823686
   32       -6.760538
   33       -6.732392
   34       -6.618686
   35       -6.616859
   36       -6.608146
   37       -6.598506
   38       -6.513011
   39       -6.510118
   40       -6.493343
   41       -6.449228
   42       -6.435797
   43       -6.420076
   44       -6.396933
   45       -6.370252
   46       -6.360753
   47       -6.330599
   48       -6.320482
   49       -6.298334
   50       -6.292035
   51       -6.255291
   52       -6.254499
   53       -6.253175
   54       -6.245579
   55       -6.226741
   56       -6.213767
   57       -6.209282
   58       -6.179436
   59       -6.172428
   60       -6.171760
   61       -6.153797
   62       -6.118694
   63       -6.090382
   64       -6.019875
   65        2.092379
   66        2.784386
   67        3.356195
   68        3.402800
   69        3.495666
   70        3.634744
   71        3.657422
   72        3.909077
   73        3.973539
   74        3.985224
   75        4.030636
   76        4.270988
   77        4.348394
   78        4.415293
   79        4.510897
   80        4.593872
   81        4.752670
   82        4.792345
   83        4.810561
   84        5.016438
   85        5.062588
   86        5.098982
   87        5.219942
   88        5.223289
   89        5.251222
   90        5.407887
   91        5.531280
   92        5.572437
   93        5.583598
   94        5.668925
   95        5.829340
   96        5.951803
   97        5.957812
   98        6.186554
   99        6.215956
  100        6.246189
  101        6.267282
  102        6.429802
  103        6.493419
  104        6.600822
  105        6.728717
  106        6.834549
 
  0.5000000E+00  0.0000000E+00  0.2500000E+00  0.3125000E-01
    1      -14.545937
    2      -14.545936
    3      -14.322565
    4      -14.322563
    5      -14.214404
    6      -14.214404
    7      -14.176944
    8      -14.176942
    9      -14.151857
   10      -14.151856
   11      -14.128640
   12      -14.128639
   13      -14.074221
   14      -14.074218
   15      -14.062935
   16      -14.062935
   17       -7.343999
   18       -7.343998
   19       -7.274848
   20       -7.274846
   21       -7.223578
   22       -7.223577
   23       -7.173084
   24       -7.173083
   25       -7.164620
   26       -7.164618
   27       -7.033068
   28       -7.033067
   29       -7.017954
   30       -7.017953
   31       -6.709520
   32       -6.709519
   33       -6.679876
   34       -6.679876
   35       -6.608077
   36       -6.608077
   37       -6.552652
   38       -6.552651
   39       -6.479690
   40       -6.479690
   41       -6.422208
   42       -6.422207
   43       -6.385965
   44       -6.385965
   45       -6.382023
   46       -6.382022
   47       -6.341391
   48       -6.341391
   49       -6.308103
   50       -6.308103
   51       -6.257046
   52       -6.257044
   53       -6.241390
   54       -6.241389
   55       -6.226792
   56       -6.226791
   57       -6.195044
   58       -6.195043
   59       -6.169798
   60       -6.169796
   61       -6.138899
   62       -6.138898
   63       -6.066391
   64       -6.066391
   65        2.371206
   66        2.371208
   67        3.354504
   68        3.354504
   69        3.702301
   70        3.702304
   71        3.778677
   72        3.778678
   73        3.899984
   74        3.899985
   75        4.274992
   76        4.274993
   77        4.401637
   78        4.401637
   79        4.577571
   80        4.577572
   81        4.623317
   82        4.623319
   83        4.898772
   84        4.898773
   85        5.093565
   86        5.093566
   87        5.201921
   88        5.201921
   89        5.221434
   90        5.221435
   91        5.543190
   92        5.543191
   93        5.735427
   94        5.735427
   95        5.907809
   96        5.907809
   97        6.127168
   98        6.127168
   99        6.192208
  100        6.192209
  101        6.372465
  102        6.372467
  103        6.496102
  104        6.496102
  105        6.686941
  106        6.686941
 
  0.0000000E+00  0.2500000E+00  0.2500000E+00  0.6250000E-01
    1      -14.585980
    2      -14.342161
    3      -14.340137
    4      -14.330472
    5      -14.313314
    6      -14.231963
    7      -14.210893
    8      -14.201582
    9      -14.196222
   10      -14.156281
   11      -14.146085
   12      -14.096960
   13      -14.094917
   14      -14.050646
   15      -14.036035
   16      -14.032602
   17       -7.388078
   18       -7.299507
   19       -7.261537
   20       -7.246738
   21       -7.234436
   22       -7.189949
   23       -7.186983
   24       -7.073195
   25       -7.013489
   26       -7.012694
   27       -6.923394
   28       -6.912851
   29       -6.905880
   30       -6.870551
   31       -6.867652
   32       -6.841913
   33       -6.804644
   34       -6.785927
   35       -6.760678
   36       -6.650739
   37       -6.633786
   38       -6.537972
   39       -6.503320
   40       -6.480620
   41       -6.480524
   42       -6.427130
   43       -6.414521
   44       -6.401888
   45       -6.396698