   72   72  200    1
  0.1024466E+02  0.1146890E-08  0.8022124E-09  0.8017129E-09  0.5000000E-15
  1.000000000000000E-004
  CAR 
 diamond                                 
    120     27     98
 
  0.0000000E+00  0.0000000E+00  0.0000000E+00  0.1562500E-01
    1      -14.608640
    2      -14.443648
    3      -14.299051
    4      -14.283431
    5      -14.278047
    6      -14.273904
    7      -14.136363
    8      -14.132233
    9      -14.102681
   10      -14.009230
   11      -13.999989
   12      -13.919708
   13      -13.909350
   14      -13.900305
   15      -13.846292
   16      -13.823546
   17       -8.090945
   18       -7.960048
   19       -7.956753
   20       -7.946923
   21       -7.912342
   22       -7.903922
   23       -7.835597
   24       -7.634177
   25       -7.594557
   26       -7.581355
   27       -7.556473
   28       -7.508864
   29       -7.264962
   30       -7.264770
   31       -7.248928
   32       -7.217830
   33       -7.090050
   34       -7.087084
   35       -6.966172
   36       -6.960784
   37       -6.896840
   38       -6.842315
   39       -6.840411
   40       -6.749223
   41       -6.735535
   42       -6.716066
   43       -6.683113
   44       -6.662116
   45       -6.572449
   46       -6.560834
   47       -6.470086
   48       -6.467231
   49       -6.394526
   50       -6.379975
   51       -6.377602
   52       -6.342570
   53       -6.304959
   54       -6.302888
   55       -6.233067
   56       -6.226168
   57       -2.498451
   58       -2.281952
   59       -2.232513
   60       -2.131057
   61       -1.369520
   62       -1.343146
   63       -1.337822
   64       -1.333364
   65        1.674252
   66        2.872920
   67        2.910866
   68        3.138530
   69        3.224359
   70        3.581559
   71        3.727625
   72        3.771676
   73        3.809773
   74        3.834024
   75        4.120160
   76        4.136951
   77        4.179985
   78        4.228760
   79        4.674009
   80        4.712108
   81        4.751218
   82        4.843083
   83        4.993793
   84        5.108291
   85        5.173474
   86        5.190625
   87        5.449841
   88        5.484161
   89        5.554206
   90        5.620012
   91        5.622782
   92        5.646227
   93        5.694602
   94        5.853631
   95        6.044823
   96        6.105597
   97        6.153688
   98        6.324568
 
  0.2500000E+00  0.0000000E+00  0.0000000E+00  0.3125000E-01
    1      -14.590699
    2      -14.477896
    3      -14.296188
    4      -14.283070
    5      -14.280224
    6      -14.275219
    7      -14.135551
    8      -14.132828
    9      -14.063155
   10      -14.007908
   11      -14.001340
   12      -13.923884
   13      -13.918196
   14      -13.910898
   15      -13.842818
   16      -13.826772
   17       -8.066770
   18       -7.948732
   19       -7.935253
   20       -7.933460
   21       -7.910774
   22       -7.878457
   23       -7.838077
   24       -7.694670
   25       -7.663257
   26       -7.656510
   27       -7.549464
   28       -7.515660
   29       -7.264346
   30       -7.264052
   31       -7.244312
   32       -7.222161
   33       -7.016842
   34       -7.009169
   35       -6.965576
   36       -6.962618
   37       -6.882029
   38       -6.828884
   39       -6.774422
   40       -6.771727
   41       -6.763152
   42       -6.731973
   43       -6.697898
   44       -6.648410
   45       -6.571584
   46       -6.562228
   47       -6.511868
   48       -6.498339
   49       -6.391587
   50       -6.381502
   51       -6.372593
   52       -6.347718
   53       -6.304488
   54       -6.303087
   55       -6.231964
   56       -6.227082
   57       -2.467018
   58       -2.313957
   59       -2.217619
   60       -2.145873
   61       -1.364883
   62       -1.342464
   63       -1.341603
   64       -1.334677
   65        1.779408
   66        2.509420
   67        3.000368
   68        3.203579
   69        3.517744
   70        3.521564
   71        3.609641
   72        3.781479
   73        3.785583
   74        3.863414
   75        4.058782
   76        4.127004
   77        4.194772
   78        4.310791
   79        4.693312
   80        4.697733
   81        4.771748
   82        4.776297
   83        4.858313
   84        5.166293
   85        5.237983
   86        5.266905
   87        5.374733
   88        5.427999
   89        5.450474
   90        5.534101
   91        5.645857
   92        5.678852
   93        5.774698
   94        5.927277
   95        5.976147
   96        6.074817
   97        6.189253
   98        6.242443
 
  0.5000000E+00  0.0000000E+00  0.0000000E+00  0.1562500E-01
    1      -14.541314
    2      -14.541312
    3      -14.289153
    4      -14.289150
    5      -14.278343
    6      -14.278340
    7      -14.134148
    8      -14.134146
    9      -14.004640
   10      -14.004639
   11      -13.986618
   12      -13.986618
   13      -13.914559
   14      -13.914558
   15      -13.834680
   16      -13.834679
   17       -8.004490
   18       -8.004489
   19       -7.924787
   20       -7.924787
   21       -7.813668
   22       -7.813667
   23       -7.785167
   24       -7.785166
   25       -7.781211
   26       -7.781210
   27       -7.532445
   28       -7.532444
   29       -7.263648
   30       -7.263647
   31       -7.233147
   32       -7.233147
   33       -6.966001
   34       -6.965998
   35       -6.892504
   36       -6.892502
   37       -6.880254
   38       -6.880252
   39       -6.796280
   40       -6.796277
   41       -6.751368
   42       -6.751366
   43       -6.633116
   44       -6.633115
   45       -6.570222
   46       -6.570219
   47       -6.565174
   48       -6.565171
   49       -6.385927
   50       -6.385924
   51       -6.360204
   52       -6.360201
   53       -6.303624
   54       -6.303622
   55       -6.229411
   56       -6.229408
   57       -2.390771
   58       -2.390770
   59       -2.181710
   60       -2.181709
   61       -1.353680
   62       -1.353679
   63       -1.338022
   64       -1.338022
   65        2.076641
   66        2.076642
   67        3.242858
   68        3.242861
   69        3.382690
   70        3.382690
   71        3.743938
   72        3.743939
   73        3.893333
   74        3.893335
   75        3.997101
   76        3.997101
   77        4.394059
   78        4.394060
   79        4.509168
   80        4.509170
   81        4.875534
   82        4.875536
   83        5.059236
   84        5.059237
   85        5.213091
   86        5.213092
   87        5.232601
   88        5.232603
   89        5.482966
   90        5.482967
   91        5.784913
   92        5.784913
   93        5.884210
   94        5.884211
   95        5.994647
   96        5.994648
   97        6.183775
   98        6.183776
 
  0.0000000E+00  0.2500000E+00  0.0000000E+00  0.3125000E-01
    1      -14.569754
    2      -14.419899
    3      -14.344612
    4      -14.299959
    5      -14.277484
    6      -14.257513
    7      -14.164213
    8      -14.154471
    9      -14.076297
   10      -13.986556
   11      -13.971679
   12      -13.939567
   13      -13.905058
   14      -13.895915
   15      -13.871069
   16      -13.848868
   17       -7.985521
   18       -7.903680
   19       -7.898754
   20       -7.881005
   21       -7.870561
   22       -7.809987
   23       -7.749708
   24       -7.665627
   25       -7.650968
   26       -7.617422
   27       -7.580972
   28       -7.518675
   29       -7.413506
   30       -7.412198
   31       -7.356581
   32       -7.316375
   33       -6.995176
   34       -6.993432
   35       -6.895909
   36       -6.893638
   37       -6.875037
   38       -6.821580
   39       -6.774177
   40       -6.739827
   41       -6.727780
   42       -6.692490
   43       -6.641196
   44       -6.635921
   45       -6.609718
   46       -6.564220
   47       -6.525774
   48       -6.492365
   49       -6.453259
   50       -6.439513
   51       -6.408173
   52       -6.406748
   53       -6.356718
   54       -6.353481
   55       -6.252396
   56       -6.245014
   57       -2.441465
   58       -2.272642
   59       -2.237483
   60       -2.181411
   61       -1.362222
   62       -1.338870
   63       -1.336235
   64       -1.335828
   65        1.893607
   66        3.017882
   67        3.063723
   68        3.259260
   69        3.291798
   70        3.451753
   71        3.565696
   72        3.698927
   73        3.854112
   74        3.927201
   75        3.997779
   76        4.192449
   77        4.467950
   78        4.507274
   79        4.684525
   80        4.709563
   81        4.768732
   82        4.775661
   83        4.929453
   84        5.020925
   85        5.199645
   86        5.328975
   87        5.354633
   88        5.399906
   89        5.547781
   90        5.582904
   91        5.595182
   92        5.639528
   93        5.779026
   94        5.792879
   95        5.901124
   96        5.912219
   97        5.964377
   98        6.007776
 
  0.2500000E+00  0.2500000E+00  0.0000000E+00  0.6250000E-01
    1      -14.553060
    2      -14.450142
    3      -14.338607
    4      -14.307141
    5      -14.274658
    6      -14.260574
    7      -14.162834
    8      -14.155960
    9      -14.041656
   10      -13.984314
   11      -13.973800
   12      -13.933843
   13      -13.917093
   14      -13.909470
   15      -13.867835
   16      -13.852081
   17       -7.978759
   18       -7.887628
   19       -7.878200
   20       -7.861675
   21       -7.840407
   22       -7.834378
   23       -7.761250
   24       -7.716243
   25       -7.671193
   26       -7.646207
   27       -7.600052
   28       -7.532385
   29       -7.388708
   30       -7.386797
   31       -7.353187
   32       -7.323160
   33       -6.959413
   34       -6.954071
   35       -6.890123
   36       -6.887776
   37       -6.875579
   38       -6.816252
   39       -6.798369
   40       -6.727925
   41       -6.718123
   42       -6.713384
   43       -6.679284
   44       -6.608656
   45       -6.604708
   46       -6.572736
   47       -6.556524
   48       -6.523173
   49       -6.431240
   50       -6.425080
   51       -6.407822
   52       -6.406627
   53       -6.357495
   54       -6.354696
   55       -6.251242
   56       -6.246001
   57       -2.416718
   58       -2.297354
   59       -2.228990
   60       -2.189331
   61       -1.358387
   62       -1.339718
   63       -1.338514
   64       -1.336639
   65        1.990639
   66        2.675752
   67        3.141839
   68        3.310354
   69        3.331333
   70        3.460327
   71        3.626970
   72        3.689690
   73        3.733214
   74        4.010725
   75        4.096388
   76        4.249652
   77        4.514764
   78        4.548586
   79        4.686748
   80        4.694663
   81        4.748253
   82        4.814137
   83        4.842672
   84        5.066143
   85        5.170129
   86        5.220123
   87        5.361024
   88        5.370004
   89        5.469134
   90        5.559004
   91        5.603105
   92        5.677063
   93        5.681803
   94        5.743065
   95        5.770380
   96        5.972256
   97        6.022495
   98        6.076127
 
  0.5000000E+00  0.2500000E+00  0.0000000E+00  0.3125000E-01
    1      -14.507561
    2      -14.507559
    3      -14.323452
    4      -14.323449
    5      -14.267732
    6      -14.267729
    7      -14.159460
    8      -14.159458
    9      -13.979087
   10      -13.979087
   11      -13.973380
   12      -13.973379
   13      -13.921031
   14      -13.921030
   15      -13.859911
   16      -13.859910
   17       -7.939707
   18       -7.939706
   19       -7.831016
   20       -7.831016
   21       -7.809546
   22       -7.809545
   23       -7.754218
   24       -7.754218
   25       -7.736234
   26       -7.736233
   27       -7.564618
   28       -7.564617
   29       -7.367710
   30       -7.367709
   31       -7.341469
   32       -7.341468
   33       -6.895591
   34       -6.895588
   35       -6.887999
   36       -6.887998
   37       -6.860385
   38       -6.860384
   39       -6.787577
   40       -6.787575
   41       -6.714838
   42       -6.714836
   43       -6.649940
   44       -6.649939
   45       -6.590356
   46       -6.590353
   47       -6.551611
   48       -6.551609
   49       -6.418522
   50       -6.418520
   51       -6.407096
   52       -6.407093
   53       -6.357024
   54       -6.357022
   55       -6.248532
   56       -6.248529
   57       -2.357011
   58       -2.357010
   59       -2.208877
   60       -2.208876
   61       -1.349083
   62       -1.349082
   63       -1.337595
   64       -1.337594
   65        2.267254
   66        2.267256
   67        3.327655
   68        3.327657
   69        3.405939
   70        3.405941
   71        3.469876
   72        3.469877
   73        3.973718
   74        3.973718
   75        4.346958
   76        4.346959
   77        4.535207
   78        4.535207
   79        4.659488
   80        4.659490
   81        4.703498
   82        4.703500
   83        4.966026
   84        4.966026
   85        5.139989
   86        5.139990
   87        5.423089
   88        5.423091
   89        5.426249
   90        5.426250
   91        5.612591
   92        5.612591
   93        5.707438
   94        5.707438
   95        5.842017
   96        5.842018
   97        6.117141
   98        6.117141
 
  0.0000000E+00  0.5000000E+00  0.0000000E+00  0.1562500E-01
    1      -14.466936
    2      -14.466936
    3      -14.361097
    4      -14.361097
    5      -14.223375
    6      -14.223375
    7      -14.206830
    8      -14.206830
    9      -14.009717
   10      -14.009717
   11      -13.930355
   12      -13.930355
   13      -13.909563
   14      -13.909563
   15      -13.891857
   16      -13.891857
   17       -7.793189
   18       -7.793189
   19       -7.788668
   20       -7.788668
   21       -7.728627
   22       -7.728627
   23       -7.717268
   24       -7.717268
   25       -7.668346
   26       -7.668346
   27       -7.586479
   28       -7.586479
   29       -7.548951
   30       -7.548951
   31       -7.537761
   32       -7.537761
   33       -6.900672
   34       -6.900672
   35       -6.846938
   36       -6.846938
   37       -6.702293
   38       -6.702293
   39       -6.689994
   40       -6.689994
   41       -6.680283
   42       -6.680283
   43       -6.649870
   44       -6.649870
   45       -6.605208
   46       -6.605208
   47       -6.600089
   48       -6.600089
   49       -6.557507
   50       -6.557507
   51       -6.556242
   52       -6.556242
   53       -6.300245
   54       -6.300245
   55       -6.296182
   56       -6.296182
   57       -2.308312
   58       -2.308312
   59       -2.252880
   60       -2.252880
   61       -1.347067
   62       -1.347067
   63       -1.334310
   64       -1.334310
   65        2.480654
   66        2.480654
   67        3.336174
   68        3.336174
   69        3.436506
   70        3.436506
   71        3.650756
   72        3.650756
   73        3.916568
   74        3.916568
   75        4.308452
   76        4.308452
   77        4.428634
   78        4.428634
   79        4.526608
   80        4.526608
   81        4.931204
   82        4.931204
   83        5.105805
   84        5.105805
   85        5.193351
   86        5.193351
   87        5.248912
   88        5.248912
   89        5.467437
   90        5.467437
   91        5.702786
   92        5.702786
   93        5.730943
   94        5.730943
   95        5.787368
   96        5.787368
   97        6.092242
   98        6.127164
 
  0.2500000E+00  0.5000000E+00  0.0000000E+00  0.3125000E-01
    1      -14.454286
    2      -14.454286
    3      -14.380595
    4      -14.380595
    5      -14.221073
    6      -14.221073
    7      -14.209389
    8      -14.209389
    9      -13.988448
   10      -13.988448
   11      -13.927189
   12      -13.927189
   13      -13.912469
   14      -13.912469
   15      -13.906229
   16      -13.906229
   17       -7.817315
   18       -7.817315
   19       -7.811180
   20       -7.811180
   21       -7.731191
   22       -7.731191
   23       -7.665398
   24       -7.665398
   25       -7.653104
   26       -7.653104
   27       -7.582523
   28       -7.582523
   29       -7.554345
   30       -7.554345
   31       -7.543333
   32       -7.543333
   33       -6.892145
   34       -6.892145
   35       -6.853736
   36       -6.853736
   37       -6.727825
   38       -6.727825
   39       -6.697531
   40       -6.697531
   41       -6.679342
   42       -6.679342
   43       -6.648048
   44       -6.648048
   45       -6.645320
   46       -6.645320
   47       -6.611863
   48       -6.611863
   49       -6.527056
   50       -6.527056
   51       -6.517140
   52       -6.517140
   53       -6.299585
   54       -6.299585
   55       -6.296814
   56       -6.296814
   57       -2.299773
   58       -2.299773
   59       -2.260574
   60       -2.260574
   61       -1.345281
   62       -1.345281
   63       -1.336265
   64       -1.336265
   65        2.550774
   66        2.550774
   67        3.071132
   68        3.071132
   69        3.473049
   70        3.473049
   71        3.663578
   72        3.663578
   73        4.156990
   74        4.156990
   75        4.355221
   76        4.355221
   77        4.413475
   78        4.413475
   79        4.576907
   80        4.576907
   81        4.897905
   82        4.897905
   83        4.944809
   84        4.944809
   85        5.189995
   86        5.189995
   87        5.348711
   88        5.348711
   89        5.482166
   90        5.482166
   91        5.487415
   92        5.487415
   93        5.821963
   94        5.821963
   95        5.833558
   96        5.833558
   97        5.911841
   98        5.911841
 
  0.5000000E+00  0.5000000E+00  0.0000000E+00  0.1562500E-01
    1      -14.420659
    2      -14.420659
    3      -14.420657
    4      -14.420657
    5      -14.215368
    6      -14.215368
    7      -14.215366
    8      -14.215366
    9      -13.944196
   10      -13.944196
   11      -13.944195
   12      -13.944195
   13      -13.919662
   14      -13.919662
   15      -13.919661
   16      -13.919661
   17       -7.831926
   18       -7.831926
   19       -7.831925
   20       -7.831925
   21       -7.693627
   22       -7.693627
   23       -7.693626
   24       -7.693626
   25       -7.593769
   26       -7.593769
   27       -7.593769
   28       -7.593769
   29       -7.554217
   30       -7.554217
   31       -7.554217
   32       -7.554217
   33       -6.872578
   34       -6.872578
   35       -6.872576
   36       -6.872576
   37       -6.735275
   38       -6.735275
   39       -6.735275
   40       -6.735275
   41       -6.660752
   42       -6.660752
   43       -6.660751
   44       -6.660751
   45       -6.636841
   46       -6.636841
   47       -6.636841
   48       -6.636841
   49       -6.500330
   50       -6.500330
   51       -6.500329
   52       -6.500329
   53       -6.298208
   54       -6.298208
   55       -6.298205
   56       -6.298205
   57       -2.279748
   58       -2.279748
   59       -2.279747
   60       -2.279747
   61       -1.340869
   62       -1.340868
   63       -1.340868
   64       -1.340868
   65        2.755703
   66        2.755703
   67        2.755705
   68        2.755705
   69        3.566614
   70        3.566614
   71        3.566615
   72        3.566615
   73        4.372181
   74        4.372181
   75        4.372181
   76        4.372181
   77        4.550589
   78        4.550589
   79        4.550589
   80        4.550589
   81        4.877084
   82        4.877084
   83        4.877085
   84        4.877085
   85        5.151649
   86        5.151649
   87        5.151649
   88        5.151649
   89        5.517243
   90        5.517243
   91        5.517244
   92        5.517244
   93        5.806149
   94        5.806149
   95        5.806149
   96        5.806149
   97        5.981289
   98        5.981289
 
  0.0000000E+00  0.0000000E+00  0.2500000E+00  0.3125000E-01
    1      -14.573174
    2      -14.420447
    3      -14.361631
    4      -14.303433
    5      -14.262700
    6      -14.253927
    7      -14.158656
    8      -14.153817
    9      -14.088322
   10      -14.015600
   11      -13.978453
   12      -13.916292
   13      -13.908862
   14      -13.887838
   15      -13.856930
   16      -13.834595
   17       -8.058671
   18       -7.945670
   19       -7.911808
   20       -7.907099
   21       -7.905485
   22       -7.879688
   23       -7.859057
   24       -7.662425
   25       -7.661368
   26       -7.637639
   27       -7.570412
   28       -7.519366
   29       -7.259509
   30       -7.259080
   31       -7.246361
   32       -7.227433
   33       -7.062820
   34       -6.995328
   35       -6.976179
   36       -6.902725
   37       -6.839497
   38       -6.838611
   39       -6.819245
   40       -6.701156
   41       -6.693047
   42       -6.677895
   43       -6.665784
   44       -6.659123
   45       -6.579590
   46       -6.559284
   47       -6.501384
   48       -6.497259
   49       -6.484390
   50       -6.450373
   51       -6.367102
   52       -6.335377
   53       -6.325420
   54       -6.315943
   55       -6.315686
   56       -6.307779
   57       -2.360448
   58       -2.175805
   59       -2.116679
   60       -2.027183
   61       -1.556109
   62       -1.546708
   63       -1.481808
   64       -1.462721
   65        1.918919
   66        3.038019
   67        3.073633
   68        3.203272
   69        3.245866
   70        3.279331
   71        3.758223
   72        3.897813
   73        3.939091
   74        3.977698
   75        4.029561
   76        4.035548
   77        4.250017
   78        4.272303
   79        4.624744
   80        4.791511
   81        4.799969
   82        4.821295
   83        5.008984
   84        5.094870
   85        5.118200
   86        5.144369
   87        5.196828
   88        5.206937
   89        5.287564
   90        5.516514
   91        5.672175
   92        5.778178
   93        5.807862
   94        5.824458
   95        5.941530
   96        5.998313
   97        6.133258
   98        6.259615
 
  0.2500000E+00  0.0000000E+00  0.2500000E+00  0.6250000E-01
    1      -14.556314
    2      -14.451635
    3      -14.354155
    4      -14.313268
    5      -14.261418
    6      -14.255229
    7      -14.157905
    8      -14.154504
    9      -14.052889
   10      -14.008508
   11      -13.982541
   12      -13.931575
   13      -13.907292
   14      -13.895388
   15      -13.854039
   16      -13.838222
   17       -8.038457
   18       -7.939709
   19       -7.931606
   20       -7.912448
   21       -7.876624
   22       -7.851272
   23       -7.835962
   24       -7.707469
   25       -7.698631
   26       -7.638855
   27       -7.622784
   28       -7.540053
   29       -7.257129
   30       -7.256481
   31       -7.242950
   32       -7.227294
   33       -6.996623
   34       -6.965783
   35       -6.953457
   36       -6.913039
   37       -6.837751
   38       -6.821409
   39       -6.784211
   40       -6.718471
   41       -6.705801
   42       -6.700596
   43       -6.679161
   44       -6.637964
   45       -6.569890
   46       -6.569489
   47       -6.547153
   48       -6.510428
   49       -6.476590
   50       -6.453861
   51       -6.362861
   52       -6.340948
   53       -6.321443
   54       -6.315866
   55       -6.314651
   56       -6.309014
   57       -2.332972
   58       -2.202259
   59       -2.103715
   60       -2.040593
   61       -1.553665
   62       -1.547151
   63       -1.479159
   64       -1.465563
   65        2.010423
   66        2.669080
   67        3.146839
   68        3.209832
   69        3.229610
   70        3.610617
   71        3.678232
   72        3.909679
   73        3.975385
   74        3.990443
   75        4.025057
   76        4.041932
   77        4.185534
   78        4.311036
   79        4.584280
   80        4.652814
   81        4.721251
   82        4.875626
   83        5.027143
   84        5.068069
   85        5.104003
   86        5.202919
   87        5.227342
   88        5.242477
   89        5.421575
   90        5.488147
   91        5.621024
   92        5.708669
   93        5.814915
   94        5.877356
   95        5.946213
   96        5.949055
   97        6.028992
   98        6.223158
 
  0.5000000E+00  0.0000000E+00  0.2500000E+00  0.3125000E-01
    1      -14.510216
    2      -14.510214
    3      -14.334859
    4      -14.334856
    5      -14.258329
    6      -14.258327
    7      -14.156191
    8      -14.156188
    9      -13.994065
   10      -13.994065
   11      -13.984463
   12      -13.984462
   13      -13.902933
   14      -13.902932
   15      -13.846507
   16      -13.846506
   17       -7.987154
   18       -7.987154
   19       -7.925295
   20       -7.925294
   21       -7.799499
   22       -7.799498
   23       -7.773894
   24       -7.773894
   25       -7.760123
   26       -7.760122
   27       -7.584117
   28       -7.584116
   29       -7.254594
   30       -7.254593
   31       -7.234428
   32       -7.234427
   33       -6.940207
   34       -6.940205
   35       -6.879241
   36       -6.879239
   37       -6.872289
   38       -6.872288
   39       -6.728465
   40       -6.728464
   41       -6.710928
   42       -6.710925
   43       -6.666811
   44       -6.666809
   45       -6.573048
   46       -6.573046
   47       -6.558706
   48       -6.558704
   49       -6.463154
   50       -6.463151
   51       -6.352258
   52       -6.352255
   53       -6.317076
   54       -6.317073
   55       -6.311925
   56       -6.311922
   57       -2.267118
   58       -2.267117
   59       -2.072346
   60       -2.072346
   61       -1.549408
   62       -1.549407
   63       -1.472467
   64       -1.472466
   65        2.273412
   66        2.273414
   67        3.197789
   68        3.197789
   69        3.403283
   70        3.403286
   71        3.863734
   72        3.863735
   73        4.009456
   74        4.009457
   75        4.044994
   76        4.044995
   77        4.297252
   78        4.297253
   79        4.440851
   80        4.440851
   81        4.943915
   82        4.943916
   83        4.990377
   84        4.990379
   85        5.094122
   86        5.094123
   87        5.251942
   88        5.251944
   89        5.458557
   90        5.458558
   91        5.762832
   92        5.762833
   93        5.777186
   94        5.777186
   95        5.913282
   96        5.913283
   97        6.096291
   98        6.096292
 
  0.0000000E+00  0.2500000E+00  0.2500000E+00  0.6250000E-01
    1      -14.535605
    2      -14.397141
    3      -14.334972
    4      -14.320336
    5      -14.282394
    6      -14.279490
    7      -14.193205
    8      -14.176622
    9      -14.062102
   10      -13.988726
   11      -13.962137
   12      -13.932758
   13      -13.898101
   14      -13.895036
   15      -13.873105
   16      -13.859603
   17       -7.956049
   18       -7.865061
   19       -7.863827
   20       -7.861583
   21       -7.826422
   22       -7.814437
   23       -7.791387
   24       -7.682542
   25       -7.662285
   26       -7.640432
   27       -7.632126
   28       -7.538790
   29       -7.399490
   30       -7.390851
   31       -7.354302
   32       -7.332073
   33       -6.975153
   34       -6.924009
   35       -6.911343
   36       -6.867335
   37       -6.799236
   38       -6.793838
   39       -6.746747
   40       -6.741031
   41       -6.677944
   42       -6.669333
   43       -6.637285
   44       -6.630489
   45       -6.593881
   46       -6.568988
   47       -6.556113
   48       -6.520350
   49       -6.459978
   50       -6.450769
   51       -6.437309
   52       -6.411926
   53       -6.411198
   54       -6.399438
   55       -6.337124
   56       -6.334563
   57       -2.308409
   58       -2.165397
   59       -2.122948
   60       -2.072169
   61       -1.538762
   62       -1.533767
   63       -1.487256
   64       -1.472416
   65        2.114788
   66        3.169050
   67        3.184065
   68        3.300302
   69        3.338088
   70        3.361687
   71        3.496318
   72        3.742332
   73        4.015086
   74        4.078391
   75        4.085675
   76        4.148668
   77        4.387893
   78        4.555473
   79        4.628191
   80        4.679873
   81        4.824041
   82        4.832034
   83        4.915597
   84        4.956820
   85        5.129547
   86        5.252524
   87        5.324516
   88        5.329145
   89        5.390463
   90        5.475130
   91        5.654614
   92        5.697950
   93        5.741086
   94        5.775706
   95        5.897096
   96        5.919080
   97        5.942304
   98        6.160276
 
  0.2500000E+00  0.2500000E+00  0.2500000E+00  0.1250000E+00
    1      -14.519995
    2      -14.424637
    3      -14.328149
    4      -14.314817
    5      -14.291110
    6      -14.285941
    7      -14.190843
    8      -14.179140
    9      -14.031112
   10      -13.982902
   11      -13.964301
   12      -13.931658
   13      -13.910313
   14      -13.901971
   15      -13.872025
   16      -13.862432
   17       -7.948285
   18       -7.870602
   19       -7.845115
   20       -7.837663
   21       -7.832206
   22       -7.804780
   23       -7.784680
   24       -7.719071
   25       -7.675415
   26       -7.657069
   27       -7.646154
   28       -7.560077
   29       -7.382537
   30       -7.379176
   31       -7.353826
   32       -7.337586
   33       -6.941497
   34       -6.896934
   35       -6.896037
   36       -6.863921
   37       -6.805461
   38       -6.803206
   39       -6.746267
   40       -6.726859