 running on    4 total cores
 distrk:  each k-point on    4 cores,    1 groups
 distr:  one band on    2 cores,    2 groups
 using from now: INCAR     
 vasp.5.3.5 31Mar14 (build Nov 02 2014 15:17:37) complex                        
  
 POSCAR found type information on POSCAR  H  C 
 POSCAR found :  2 types and      20 ions
 scaLAPACK will be used
 WARNING: type information on POSCAR and POTCAR are incompatible
 POTCAR overwrites the type information in POSCAR
 typ   1 type information:  H  C 
 WARNING: type information on POSCAR and POTCAR are incompatible
 POTCAR overwrites the type information in POSCAR
 typ   2 type information:  C  H 

 ----------------------------------------------------------------------------- 
|                                                                             |
|  ADVICE TO THIS USER RUNNING 'VASP/VAMP'   (HEAR YOUR MASTER'S VOICE ...):  |
|                                                                             |
|      You have a (more or less) 'large supercell' and for larger cells       |
|      it might be more efficient to use real space projection operators      |
|      So try LREAL= Auto  in the INCAR   file.                               |
|      Mind: If you want to do a very accurate calculations keep the          |
|      reciprocal projection scheme          (i.e. LREAL=.FALSE.)             |
|                                                                             |
 ----------------------------------------------------------------------------- 

 LDA part: xc-table for Pade appr. of Perdew
 POSCAR, INCAR and KPOINTS ok, starting setup
 WARNING: small aliasing (wrap around) errors must be expected
 FFT: planning ...
 WAVECAR not read
 WARNING: random wavefunctions but no delay for mixing, default for NELMDL
 entering main loop
       N       E                     dE             d eps       ncg     rms          rms(c)
DAV:   1     0.332416037656E+03    0.33242E+03   -0.33577E+04  3312   0.144E+03
DAV:   2    -0.430399829919E+02   -0.37546E+03   -0.36656E+03  4292   0.266E+02
DAV:   3    -0.707704937663E+02   -0.27731E+02   -0.26773E+02  3742   0.693E+01
DAV:   4    -0.720502019524E+02   -0.12797E+01   -0.12637E+01  4776   0.139E+01
DAV:   5    -0.720794923237E+02   -0.29290E-01   -0.29352E-01  4372   0.241E+00    0.946E+00
DAV:   6    -0.697557778409E+02    0.23237E+01   -0.56407E+00  3880   0.842E+00    0.568E+00
DAV:   7    -0.703736098331E+02   -0.61783E+00   -0.64880E+00  4608   0.737E+00    0.886E+00
DAV:   8    -0.693353073828E+02    0.10383E+01   -0.83427E+00  4624   0.536E+00    0.370E+00
DAV:   9    -0.692545904111E+02    0.80717E-01   -0.19287E+00  4024   0.375E+00    0.326E+00
DAV:  10    -0.691224984110E+02    0.13209E+00   -0.93729E-01  4632   0.239E+00    0.977E-01
DAV:  11    -0.691361228690E+02   -0.13624E-01   -0.14483E-01  3936   0.116E+00    0.123E+00
DAV:  12    -0.691199635697E+02    0.16159E-01   -0.80235E-02  3920   0.761E-01    0.412E-01
DAV:  13    -0.691209272639E+02   -0.96369E-03   -0.11505E-02  3928   0.388E-01    0.202E-01
DAV:  14    -0.691213292655E+02   -0.40200E-03   -0.21953E-03  4088   0.181E-01    0.889E-02
DAV:  15    -0.691217025861E+02   -0.37332E-03   -0.61608E-04  3872   0.103E-01    0.361E-02
DAV:  16    -0.691217256849E+02   -0.23099E-04   -0.11505E-04  4336   0.393E-02    0.164E-02
DAV:  17    -0.691217456813E+02   -0.19996E-04   -0.36615E-05  4224   0.242E-02    0.107E-02
DAV:  18    -0.691217542605E+02   -0.85792E-05   -0.11927E-05  3944   0.141E-02    0.592E-03
DAV:  19    -0.691217546617E+02   -0.40113E-06   -0.37086E-06  2944   0.833E-03
   1 F= -.70476533E+02 E0= -.70476533E+02  d E =-.704765E+02
 curvature:   0.00 expect dE= 0.000E+00 dE for cont linesearch  0.000E+00
 trial: gam= 0.00000 g(F)=  0.237E+02 g(S)=  0.000E+00 ort = 0.000E+00 (trialstep = 0.100E+01)
 search vector abs. value=  0.237E+02
 bond charge predicted
       N       E                     dE             d eps       ncg     rms          rms(c)
DAV:   1    -0.669468829454E+02    0.21749E+01   -0.20096E+03  3376   0.211E+02    0.101E+01
DAV:   2    -0.771917806680E+02   -0.10245E+02   -0.12733E+02  3962   0.464E+01    0.412E+00
DAV:   3    -0.772537955746E+02   -0.62015E-01   -0.58214E+00  5288   0.903E+00    0.257E+00
DAV:   4    -0.772238622477E+02    0.29933E-01   -0.71769E-01  5034   0.320E+00    0.171E+00
DAV:   5    -0.772053858011E+02    0.18476E-01   -0.26474E-01  4904   0.188E+00    0.847E-01
DAV:   6    -0.772067383590E+02   -0.13526E-02   -0.88671E-02  4960   0.102E+00    0.500E-01
DAV:   7    -0.772066104756E+02    0.12788E-03   -0.27205E-02  5296   0.528E-01    0.277E-01
DAV:   8    -0.772061646887E+02    0.44579E-03   -0.84617E-03  5408   0.309E-01    0.140E-01
DAV:   9    -0.772062356710E+02   -0.70982E-04   -0.23410E-03  4888   0.181E-01    0.494E-02
DAV:  10    -0.772062485941E+02   -0.12923E-04   -0.45365E-04  5000   0.818E-02    0.297E-02
DAV:  11    -0.772062557703E+02   -0.71762E-05   -0.10861E-04  5016   0.397E-02    0.188E-02
DAV:  12    -0.772062809242E+02   -0.25154E-04   -0.51614E-05  4704   0.271E-02    0.108E-02
DAV:  13    -0.772062831142E+02   -0.21900E-05   -0.15620E-05  4520   0.158E-02    0.467E-03
DAV:  14    -0.772062795820E+02    0.35323E-05   -0.64507E-06  3632   0.923E-03    0.220E-03
DAV:  15    -0.772062801325E+02   -0.55049E-06   -0.11627E-06  2304   0.490E-03
   2 F= -.79637120E+02 E0= -.79637120E+02  d E =-.916059E+01
 trial-energy change:   -9.160587  1 .order  -13.438374  -23.672848   -3.203899
 step:   1.1565(harm=  1.1565)  dis= 0.30228  next Energy=   -84.165651 (dE=-0.137E+02)
 bond charge predicted
       N       E                     dE             d eps       ncg     rms          rms(c)
DAV:   1    -0.771117706105E+02    0.94509E-01   -0.51722E+01  3320   0.343E+01    0.148E+00
DAV:   2    -0.772621679520E+02   -0.15040E+00   -0.18952E+00  4936   0.497E+00    0.714E-01
DAV:   3    -0.772613370297E+02    0.83092E-03   -0.11372E-01  5912   0.120E+00    0.481E-01
DAV:   4    -0.772589447935E+02    0.23922E-02   -0.25374E-02  5384   0.521E-01    0.259E-01
DAV:   5    -0.772584714514E+02    0.47334E-03   -0.99194E-03  5312   0.320E-01    0.150E-01
DAV:   6    -0.772582822209E+02    0.18923E-03   -0.26815E-03  5120   0.180E-01    0.499E-02
DAV:   7    -0.772582502068E+02    0.32014E-04   -0.36553E-04  5296   0.704E-02    0.315E-02
DAV:   8    -0.772582662113E+02   -0.16005E-04   -0.96451E-05  4408   0.386E-02    0.122E-02
DAV:   9    -0.772582707668E+02   -0.45555E-05   -0.26750E-05  4952   0.201E-02    0.593E-03
DAV:  10    -0.772582712381E+02   -0.47122E-06   -0.47191E-06  3336   0.896E-03
   3 F= -.80034192E+02 E0= -.80034192E+02  d E =-.955766E+01
 curvature:  -0.58 expect dE=-0.469E+00 dE for cont linesearch -0.798E-01
 ZBRENT: increasing intervall
 opt :   1.4696  next Energy=   -80.162820 (dE=-0.969E+01)
 bond charge predicted
       N       E                     dE             d eps       ncg     rms          rms(c)
DAV:   1    -0.769664686361E+02    0.29180E+00   -0.19843E+02  3376   0.673E+01    0.308E+00
DAV:   2    -0.776247109331E+02   -0.65824E+00   -0.83955E+00  4992   0.105E+01    0.155E+00
DAV:   3    -0.776194765243E+02    0.52344E-02   -0.57531E-01  5784   0.258E+00    0.103E+00
DAV:   4    -0.776080750468E+02    0.11401E-01   -0.10533E-01  5488   0.111E+00    0.531E-01
DAV:   5    -0.776071512158E+02    0.92383E-03   -0.36439E-02  5232   0.635E-01    0.320E-01
DAV:   6    -0.776061371475E+02    0.10141E-02   -0.11949E-02  5184   0.359E-01    0.111E-01
DAV:   7    -0.776060037960E+02    0.13335E-03   -0.18977E-03  5336   0.154E-01    0.661E-02
DAV:   8    -0.776060160525E+02   -0.12256E-04   -0.40431E-04  5136   0.752E-02    0.360E-02
DAV:   9    -0.776059848237E+02    0.31229E-04   -0.16051E-04  4928   0.461E-02    0.126E-02
DAV:  10    -0.776059801494E+02    0.46744E-05   -0.30836E-05  5120   0.212E-02    0.754E-03
DAV:  11    -0.776059867228E+02   -0.65734E-05   -0.35335E-06  2960   0.835E-03    0.419E-03
DAV:  12    -0.776059919882E+02   -0.52655E-05   -0.45120E-06  3312   0.763E-03    0.192E-03
DAV:  13    -0.776059896353E+02    0.23529E-05   -0.85620E-07  2328   0.421E-03    0.141E-03
DAV:  14    -0.776059876275E+02    0.20078E-05   -0.27267E-07  2328   0.227E-03    0.709E-04
DAV:  15    -0.776059876820E+02   -0.54511E-07   -0.12138E-07  2328   0.150E-03
   4 F= -.80593281E+02 E0= -.80593281E+02  d E =-.101167E+02
 curvature:  -0.93 expect dE=-0.135E+01 dE for cont linesearch -0.265E+00
 ZBRENT: increasing intervall
 opt :   2.0957  next Energy=   -82.707852 (dE=-0.122E+02)
 bond charge predicted
       N       E                     dE             d eps       ncg     rms          rms(c)
DAV:   1    -0.775970589232E+02    0.89287E-02   -0.72779E+02  3368   0.128E+02    0.626E+00
DAV:   2    -0.809987940842E+02   -0.34017E+01   -0.42002E+01  4680   0.255E+01    0.416E+00
DAV:   3    -0.808839970559E+02    0.11480E+00   -0.36718E+00  5472   0.661E+00    0.255E+00
DAV:   4    -0.807808805818E+02    0.10312E+00   -0.46248E-01  5104   0.249E+00    0.138E+00
DAV:   5    -0.807671275758E+02    0.13753E-01   -0.21349E-01  4888   0.157E+00    0.903E-01
DAV:   6    -0.807550414591E+02    0.12086E-01   -0.10043E-01  4888   0.104E+00    0.364E-01
DAV:   7    -0.807544049052E+02    0.63655E-03   -0.20747E-02  5200   0.474E-01    0.203E-01
DAV:   8    -0.807537431160E+02    0.66179E-03   -0.32812E-03  5040   0.203E-01    0.119E-01
DAV:   9    -0.807537166534E+02    0.26463E-04   -0.13185E-03  4936   0.129E-01    0.644E-02
DAV:  10    -0.807536606679E+02    0.55985E-04   -0.48719E-04  4648   0.822E-02    0.258E-02
DAV:  11    -0.807536700016E+02   -0.93336E-05   -0.10565E-04  5048   0.389E-02    0.129E-02
DAV:  12    -0.807536621994E+02    0.78022E-05   -0.29360E-05  4864   0.194E-02    0.636E-03
DAV:  13    -0.807536628877E+02   -0.68829E-06   -0.74301E-06  4176   0.100E-02
   5 F= -.83921659E+02 E0= -.83921659E+02  d E =-.134451E+02
 curvature:  -7.45 expect dE=-0.475E+02 dE for cont linesearch -0.201E+02
 ZBRENT: increasing intervall
 opt :   3.3479  next Energy=  -100.696513 (dE=-0.302E+02)
 bond charge predicted
       N       E                     dE             d eps       ncg     rms          rms(c)
DAV:   1    -0.734004380416E+02    0.73532E+01   -0.23712E+03  3592   0.224E+02    0.105E+01
DAV:   2    -0.920354955719E+02   -0.18635E+02   -0.21226E+02  4130   0.637E+01    0.759E+00
DAV:   3    -0.916366140102E+02    0.39888E+00   -0.94420E+00  4992   0.122E+01    0.520E+00
DAV:   4    -0.913114651219E+02    0.32515E+00   -0.12090E+00  4912   0.401E+00    0.398E+00
DAV:   5    -0.909777396222E+02    0.33373E+00   -0.16756E+00  4514   0.408E+00    0.171E+00
DAV:   6    -0.909358585446E+02    0.41881E-01   -0.34284E-01  4840   0.222E+00    0.750E-01
DAV:   7    -0.909308682072E+02    0.49903E-02   -0.73868E-02  4776   0.102E+00    0.432E-01
DAV:   8    -0.909281786074E+02    0.26896E-02   -0.19625E-02  4752   0.495E-01    0.225E-01
DAV:   9    -0.909284934671E+02   -0.31486E-03   -0.57044E-03  4776   0.279E-01    0.125E-01
DAV:  10    -0.909283243453E+02    0.16912E-03   -0.14663E-03  4736   0.147E-01    0.517E-02
DAV:  11    -0.909284101287E+02   -0.85783E-04   -0.45381E-04  4856   0.772E-02    0.311E-02
DAV:  12    -0.909284017392E+02    0.83895E-05   -0.91071E-05  4680   0.381E-02    0.166E-02
DAV:  13    -0.909283960047E+02    0.57345E-05   -0.26593E-05  4696   0.203E-02    0.708E-03
DAV:  14    -0.909283980077E+02   -0.20030E-05   -0.91841E-06  4176   0.114E-02    0.332E-03
DAV:  15    -0.909283976908E+02    0.31681E-06   -0.14697E-06  2304   0.530E-03
   6 F= -.93975079E+02 E0= -.93975079E+02  d E =-.234985E+02
 curvature:  -6.21 expect dE=-0.422E+02 dE for cont linesearch -0.454E+01
 ZBRENT: increasing intervall
 opt :   5.8523  next Energy=   -94.785033 (dE=-0.243E+02)
 bond charge predicted
       N       E                     dE             d eps       ncg     rms          rms(c)
DAV:   1     0.466574250577E+02    0.13759E+03   -0.55392E+03  3794   0.315E+02    0.173E+01
DAV:   2    -0.279788465597E+02   -0.74636E+02   -0.81371E+02  4054   0.118E+02    0.207E+01
DAV:   3    -0.252685820301E+02    0.27103E+01   -0.42898E+01  4688   0.277E+01    0.172E+01
DAV:   4    -0.206902853680E+02    0.45783E+01   -0.15976E+01  4424   0.172E+01    0.882E+00
DAV:   5    -0.194175276879E+02    0.12728E+01   -0.71904E+00  4808   0.110E+01    0.381E+00
DAV:   6    -0.194718152919E+02   -0.54288E-01   -0.18230E+00  4864   0.526E+00    0.308E+00
DAV:   7    -0.193779477521E+02    0.93868E-01   -0.92883E-01  4952   0.310E+00    0.186E+00
DAV:   8    -0.193842199441E+02   -0.62722E-02   -0.70150E-01  4688   0.309E+00    0.174E+00
DAV:   9    -0.193511063050E+02    0.33114E-01   -0.12356E-01  4632   0.147E+00    0.747E-01
DAV:  10    -0.193501216903E+02    0.98461E-03   -0.44704E-02  4352   0.794E-01    0.273E-01
DAV:  11    -0.193510975109E+02   -0.97582E-03   -0.56763E-03  4720   0.314E-01    0.996E-02
DAV:  12    -0.193512949993E+02   -0.19749E-03   -0.14226E-03  5016   0.151E-01    0.671E-02
DAV:  13    -0.193511945981E+02    0.10040E-03   -0.38648E-04  5104   0.824E-02    0.265E-02
DAV:  14    -0.193512199492E+02   -0.25351E-04   -0.13715E-04  4264   0.460E-02    0.257E-02
DAV:  15    -0.193512214624E+02   -0.15132E-05   -0.42351E-05  4608   0.297E-02    0.771E-03
DAV:  16    -0.193512335826E+02   -0.12120E-04   -0.21198E-05  4400   0.177E-02    0.574E-03
DAV:  17    -0.193512284150E+02    0.51676E-05   -0.18724E-06  2592   0.637E-03    0.246E-03
DAV:  18    -0.193512289897E+02   -0.57477E-06   -0.59875E-07  2304   0.352E-03
   7 F= -.21999748E+02 E0= -.21999748E+02  d E =0.484768E+02
 curvature:  -1.11 expect dE=-0.155E+05 dE for cont linesearch -0.162E+03
 ZBRENT: bracketing found
 ZBRENT: interpolating
 opt :   3.5131  next Energy=   -94.318568 (dE=-0.238E+02)
 bond charge predicted
       N       E                     dE             d eps       ncg     rms          rms(c)
DAV:   1    -0.487583477640E+02   -0.29407E+02   -0.54913E+03  3312   0.349E+02    0.232E+01
DAV:   2    -0.916923865455E+02   -0.42934E+02   -0.60825E+02  3872   0.102E+02    0.133E+01
DAV:   3    -0.925555269933E+02   -0.86314E+00   -0.48909E+01  4952   0.269E+01    0.890E+00
DAV:   4    -0.920579488624E+02    0.49758E+00   -0.65995E+00  5128   0.906E+00    0.606E+00
DAV:   5    -0.916094974364E+02    0.44845E+00   -0.24075E+00  4976   0.505E+00    0.338E+00
