 vasp.5.3.5 31Mar14 (build Nov 02 2014 15:17:37) complex                        
  
 executed on        ion-Intel-MKL date 2017.06.16  21:14:18
 running on    4 total cores
 distrk:  each k-point on    4 cores,    1 groups
 distr:  one band on NCORES_PER_BAND=   2 cores,    2 groups


--------------------------------------------------------------------------------------------------------


 INCAR:
 POTCAR:  PAW_PBE H 15Jun2001                     
 POTCAR:  PAW_PBE C 08Apr2002                     
 POTCAR:  PAW_PBE H 15Jun2001                     
   VRHFIN =H: ultrasoft test                                                    
   LEXCH  = PE                                                                  
   EATOM  =    12.4884 eV,     .9179 Ry                                         
                                                                                
   TITEL  = PAW_PBE H 15Jun2001                                                 
   LULTRA =        F    use ultrasoft PP ?                                      
   IUNSCR =        0    unscreen: 0-lin 1-nonlin 2-no                           
   RPACOR =     .000    partial core radius                                     
   POMASS =    1.000; ZVAL   =    1.000    mass and valenz                      
   RCORE  =    1.100    outmost cutoff radius                                   
   RWIGS  =     .700; RWIGS  =     .370    wigner-seitz radius (au A)           
   ENMAX  =  250.000; ENMIN  =  200.000 eV                                      
   RCLOC  =     .701    cutoff for local pot                                    
   LCOR   =        T    correct aug charges                                     
   LPAW   =        T    paw PP                                                  
   EAUG   =  400.000                                                            
   RMAX   =    2.174    core radius for proj-oper                               
   RAUG   =    1.200    factor for augmentation sphere                          
   RDEP   =    1.112    radius for radial grids                                 
   QCUT   =   -5.749; QGAM   =   11.498    optimization parameters              
                                                                                
   Description                                                                  
     l     E      TYP  RCUT    TYP  RCUT                                        
     0   .000     23  1.100                                                     
     0   .500     23  1.100                                                     
     1  -.300     23  1.100                                                     
  local pseudopotential read in
  atomic valenz-charges read in
  non local Contribution for L=           0  read in
    real space projection operators read in
  non local Contribution for L=           0  read in
    real space projection operators read in
  non local Contribution for L=           1  read in
    real space projection operators read in
    PAW grid and wavefunctions read in
 
   number of l-projection  operators is LMAX  =           3
   number of lm-projection operators is LMMAX =           5
 
 POTCAR:  PAW_PBE C 08Apr2002                     
   VRHFIN =C: s2p2                                                              
   LEXCH  = PE                                                                  
   EATOM  =   147.1560 eV,   10.8157 Ry                                         
                                                                                
   TITEL  = PAW_PBE C 08Apr2002                                                 
   LULTRA =        F    use ultrasoft PP ?                                      
   IUNSCR =        0    unscreen: 0-lin 1-nonlin 2-no                           
   RPACOR =     .000    partial core radius                                     
   POMASS =   12.011; ZVAL   =    4.000    mass and valenz                      
   RCORE  =    1.500    outmost cutoff radius                                   
   RWIGS  =    1.630; RWIGS  =     .863    wigner-seitz radius (au A)           
   ENMAX  =  400.000; ENMIN  =  300.000 eV                                      
   ICORE  =        2    local potential                                         
   LCOR   =        T    correct aug charges                                     
   LPAW   =        T    paw PP                                                  
   EAUG   =  644.873                                                            
   DEXC   =     .000                                                            
   RMAX   =    2.266    core radius for proj-oper                               
   RAUG   =    1.300    factor for augmentation sphere                          
   RDEP   =    1.501    radius for radial grids                                 
   RDEPT  =    1.300    core radius for aug-charge                              
   QCUT   =   -5.516; QGAM   =   11.032    optimization parameters              
                                                                                
   Description                                                                  
     l     E      TYP  RCUT    TYP  RCUT                                        
     0   .000     23  1.200                                                     
     0   .000     23  1.200                                                     
     1   .000     23  1.500                                                     
     1  2.500     23  1.500                                                     
     2   .000      7  1.500                                                     
  local pseudopotential read in
  atomic valenz-charges read in
  non local Contribution for L=           0  read in
    real space projection operators read in
  non local Contribution for L=           0  read in
    real space projection operators read in
  non local Contribution for L=           1  read in
    real space projection operators read in
  non local Contribution for L=           1  read in
    real space projection operators read in
    PAW grid and wavefunctions read in
 
   number of l-projection  operators is LMAX  =           4
   number of lm-projection operators is LMMAX =           8
 

 ----------------------------------------------------------------------------- 
|                                                                             |
|  ADVICE TO THIS USER RUNNING 'VASP/VAMP'   (HEAR YOUR MASTER'S VOICE ...):  |
|                                                                             |
|      You have a (more or less) 'large supercell' and for larger cells       |
|      it might be more efficient to use real space projection operators      |
|      So try LREAL= Auto  in the INCAR   file.                               |
|      Mind: If you want to do a very accurate calculations keep the          |
|      reciprocal projection scheme          (i.e. LREAL=.FALSE.)             |
|                                                                             |
 ----------------------------------------------------------------------------- 

PAW_PBE H 15Jun2001                     :
 energy of atom  1       EATOM=  -12.4884
 kinetic energy error for atom=    0.0004 (will be added to EATOM!!)
PAW_PBE C 08Apr2002                     :
 energy of atom  2       EATOM= -147.1560
 kinetic energy error for atom=    0.0057 (will be added to EATOM!!)
 
 
 POSCAR: methane-low                             
  positions in direct lattice
  No initial velocities read in
 exchange correlation table for  LEXCH =        8
   RHO(1)=    0.500       N(1)  =     2000
   RHO(2)=  100.500       N(2)  =     4000
 


--------------------------------------------------------------------------------------------------------


 ion  position               nearest neighbor table
   1  0.073  0.785  0.182-  65 1.02
   2  0.927  0.215  0.818-  66 1.02
   3  0.927  0.715  0.682-  67 1.02
   4  0.073  0.285  0.318-  68 1.02
   5  0.927  0.285  0.318-  68 1.02
   6  0.073  0.715  0.682-  67 1.02
   7  0.073  0.215  0.818-  66 1.02
   8  0.927  0.785  0.182-  65 1.02
   9  0.573  0.285  0.182-  69 1.02
  10  0.427  0.715  0.818-  70 1.02
  11  0.427  0.215  0.682-  71 1.02
  12  0.573  0.785  0.318-  72 1.02
  13  0.427  0.785  0.318-  72 1.02
  14  0.573  0.215  0.682-  71 1.02
  15  0.573  0.715  0.818-  70 1.02
  16  0.427  0.285  0.182-  69 1.02
  17  0.801  0.580  0.934-  73 1.02
  18  0.199  0.420  0.066-  74 1.02
  19  0.199  0.920  0.434-  75 1.02
  20  0.801  0.080  0.566-  76 1.02
  21  0.199  0.080  0.566-  75 1.02
  22  0.801  0.920  0.434-  76 1.02
  23  0.801  0.420  0.066-  73 1.02
  24  0.199  0.580  0.934-  74 1.02
  25  0.301  0.080  0.934-  77 1.02
  26  0.699  0.920  0.066-  78 1.02
  27  0.699  0.420  0.434-  79 1.02
  28  0.301  0.580  0.566-  80 1.02
  29  0.699  0.580  0.566-  79 1.02
  30  0.301  0.420  0.434-  80 1.02
  31  0.301  0.920  0.066-  77 1.02
  32  0.699  0.080  0.934-  78 1.02
  33  0.699  0.566  0.080-  73 1.02
  34  0.301  0.434  0.920-  74 1.02
  35  0.301  0.934  0.580-  75 1.02
  36  0.699  0.066  0.420-  76 1.02
  37  0.301  0.066  0.420-  75 1.02
  38  0.699  0.934  0.580-  76 1.02
  39  0.699  0.434  0.920-  73 1.02
  40  0.301  0.566  0.080-  74 1.02
  41  0.199  0.066  0.080-  77 1.02
  42  0.801  0.934  0.920-  78 1.02
  43  0.801  0.434  0.580-  79 1.02
  44  0.199  0.566  0.420-  80 1.02
  45  0.801  0.566  0.420-  79 1.02
  46  0.199  0.434  0.580-  80 1.02
  47  0.199  0.934  0.920-  77 1.02
  48  0.801  0.066  0.080-  78 1.02
  49  0.000  0.606  0.199-  65 1.02
  50  0.000  0.394  0.801-  66 1.02
  51  0.000  0.894  0.699-  67 1.02
  52  0.000  0.106  0.301-  68 1.02
  53  0.500  0.106  0.199-  69 1.02
  54  0.500  0.894  0.801-  70 1.02
  55  0.500  0.394  0.699-  71 1.02
  56  0.500  0.606  0.301-  72 1.02
  57  0.000  0.742  0.785-  67 0.50
  58  0.000  0.258  0.215-  68 0.50
  59  0.000  0.758  0.285-  65 0.50
  60  0.000  0.242  0.715-  66 0.50
  61  0.500  0.242  0.785-  71 0.50
  62  0.500  0.758  0.215-  72 0.50
  63  0.500  0.258  0.285-  69 0.50
  64  0.500  0.742  0.715-  70 0.50
  65  0.000  0.730  0.230-  59 0.50   8 1.02   1 1.02  49 1.02
  66  0.000  0.270  0.770-  60 0.50   2 1.02   7 1.02  50 1.02
  67  0.000  0.770  0.730-  57 0.50   3 1.02   6 1.02  51 1.02
  68  0.000  0.230  0.270-  58 0.50   5 1.02   4 1.02  52 1.02
  69  0.500  0.230  0.230-  63 0.50   9 1.02  16 1.02  53 1.02
  70  0.500  0.770  0.770-  64 0.50  15 1.02  10 1.02  54 1.02
  71  0.500  0.270  0.730-  61 0.50  14 1.02  11 1.02  55 1.02
  72  0.500  0.730  0.270-  62 0.50  12 1.02  13 1.02  56 1.02
  73  0.750  0.500  0.000-  17 1.02  23 1.02  33 1.02  39 1.02
  74  0.250  0.500  0.000-  18 1.02  24 1.02  34 1.02  40 1.02
  75  0.250  0.000  0.500-  19 1.02  21 1.02  35 1.02  37 1.02
  76  0.750  0.000  0.500-  20 1.02  22 1.02  36 1.02  38 1.02
  77  0.250  0.000  0.000-  25 1.02  31 1.02  41 1.02  47 1.02
  78  0.750  0.000  0.000-  26 1.02  32 1.02  42 1.02  48 1.02
  79  0.750  0.500  0.500-  27 1.02  29 1.02  43 1.02  45 1.02
  80  0.250  0.500  0.500-  28 1.02  30 1.02  44 1.02  46 1.02
 
  LATTYP: Found a simple orthorhombic cell.
 ALAT       =     8.0171289143
 B/A-ratio  =     1.0006230659
 C/A-ratio  =     1.4305490624
  
  Lattice vectors:
  
 A1 = (   0.0000000000,   0.0000000000,  -8.0171289143)
 A2 = (   0.0000000000,  -8.0221241143,   0.0000000000)
 A3 = ( -11.4688962519,   0.0000000000,   0.0000000000)


Analysis of symmetry for initial positions (statically):
=====================================================================
 Subroutine PRICEL returns following result:
 
  LATTYP: Found a base centered orthorhombic cell.
 ALAT       =     8.0221241143
 B/A-ratio  =     1.4296582910
 C/A-ratio  =     0.9993773220
  
  Lattice vectors:
  
 A1 = (   5.7344481259,  -4.0110620572,   0.0000000000)
 A2 = (  -5.7344481259,  -4.0110620572,   0.0000000000)
 A3 = (   0.0000000000,   0.0000000000,  -8.0171289143)
 
   2 primitive cells build up your supercell.
 

 Routine SETGRP: Setting up the symmetry group for a 
 simple orthorhombic supercell.


 Subroutine GETGRP returns: Found  8 space group operations
 (whereof  4 operations were pure point group operations)
 out of a pool of  8 trial point group operations.


The static configuration has the point symmetry C_2h.
 The point group associated with its full space group is D_2h.


Analysis of symmetry for dynamics (positions and initial velocities):
=====================================================================
 Subroutine PRICEL returns following result:
 
  LATTYP: Found a base centered orthorhombic cell.
 ALAT       =     8.0221241143
 B/A-ratio  =     1.4296582910
 C/A-ratio  =     0.9993773220
  
  Lattice vectors:
  
 A1 = (   5.7344481259,  -4.0110620572,   0.0000000000)
 A2 = (  -5.7344481259,  -4.0110620572,   0.0000000000)
 A3 = (   0.0000000000,   0.0000000000,  -8.0171289143)
 
   2 primitive cells build up your supercell.
 

 Routine SETGRP: Setting up the symmetry group for a 
 simple orthorhombic supercell.


 Subroutine GETGRP returns: Found  8 space group operations
 (whereof  4 operations were pure point group operations)
 out of a pool of  8 trial point group operations.


The dynamic configuration has the point symmetry C_2h.
 The point group associated with its full space group is D_2h.
 
 
 KPOINTS: B4C B11C-CBC                            

Automatic generation of k-mesh.
Space group operators:
 irot       det(A)        alpha          n_x          n_y          n_z        tau_x        tau_y        tau_z
    1     1.000000     0.000001     1.000000     0.000000     0.000000     0.000000     0.000000     0.000000
    2    -1.000000     0.000001     1.000000     0.000000     0.000000     0.000000     0.000000     0.000000
    3     1.000000   179.999999     1.000000     0.000000     0.000000     0.000000     0.000000     0.000000
    4    -1.000000   179.999999     1.000000     0.000000     0.000000     0.000000     0.000000     0.000000
    5     1.000000   180.000000     0.000000     1.000000     0.000000     0.000000    -0.500000    -0.500000
    6    -1.000000   180.000000     0.000000     1.000000     0.000000     0.000000    -0.500000    -0.500000
    7     1.000000   180.000000     0.000000     0.000000     1.000000     0.000000    -0.500000    -0.500000
    8    -1.000000   180.000000     0.000000     0.000000     1.000000     0.000000    -0.500000    -0.500000
 
 Subroutine IBZKPT returns following result:
 ===========================================
 
 Found     27 irreducible k-points:
 
 Following reciprocal coordinates:
            Coordinates               Weight
  0.000000  0.000000  0.000000      1.000000
  0.250000  0.000000  0.000000      2.000000
  0.500000  0.000000  0.000000      1.000000
  0.000000  0.250000  0.000000      2.000000
  0.250000  0.250000  0.000000      4.000000
  0.500000  0.250000  0.000000      2.000000
  0.000000  0.500000  0.000000      1.000000
  0.250000  0.500000  0.000000      2.000000
  0.500000  0.500000  0.000000      1.000000
  0.000000  0.000000  0.250000      2.000000
  0.250000  0.000000  0.250000      4.000000
  0.500000  0.000000  0.250000      2.000000
  0.000000  0.250000  0.250000      4.000000
  0.250000  0.250000  0.250000      8.000000
  0.500000  0.250000  0.250000      4.000000
  0.000000  0.500000  0.250000      2.000000
  0.250000  0.500000  0.250000      4.000000
  0.500000  0.500000  0.250000      2.000000
  0.000000  0.000000  0.500000      1.000000
  0.250000  0.000000  0.500000      2.000000
  0.500000  0.000000  0.500000      1.000000
  0.000000  0.250000  0.500000      2.000000
  0.250000  0.250000  0.500000      4.000000
  0.500000  0.250000  0.500000      2.000000
  0.000000  0.500000  0.500000      1.000000
  0.250000  0.500000  0.500000      2.000000
  0.500000  0.500000  0.500000      1.000000
 
 Following cartesian coordinates:
            Coordinates               Weight
  0.000000  0.000000  0.000000      1.000000
  0.021353  0.000000  0.000000      2.000000
  0.042706  0.000000  0.000000      1.000000
  0.000000  0.030528  0.000000      2.000000
  0.021353  0.030528  0.000000      4.000000
  0.042706  0.030528  0.000000      2.000000
  0.000000  0.061055  0.000000      1.000000
  0.021353  0.061055  0.000000      2.000000
  0.042706  0.061055  0.000000      1.000000
  0.000000  0.000000  0.030547      2.000000
  0.021353  0.000000  0.030547      4.000000
  0.042706  0.000000  0.030547      2.000000
  0.000000  0.030528  0.030547      4.000000
  0.021353  0.030528  0.030547      8.000000
  0.042706  0.030528  0.030547      4.000000
  0.000000  0.061055  0.030547      2.000000
  0.021353  0.061055  0.030547      4.000000
  0.042706  0.061055  0.030547      2.000000
  0.000000  0.000000  0.061093      1.000000
  0.021353  0.000000  0.061093      2.000000
  0.042706  0.000000  0.061093      1.000000
  0.000000  0.030528  0.061093      2.000000
  0.021353  0.030528  0.061093      4.000000
  0.042706  0.030528  0.061093      2.000000
  0.000000  0.061055  0.061093      1.000000
  0.021353  0.061055  0.061093      2.000000
  0.042706  0.061055  0.061093      1.000000
 
 TETIRR: Found    192 inequivalent tetrahedra from      384


--------------------------------------------------------------------------------------------------------




 Dimension of arrays:
   k-points           NKPTS =     27   k-points in BZ     NKDIM =     27   number of bands    NBANDS=    106
   number of dos      NEDOS =    301   number of ions     NIONS =     80
   non local maximal  LDIM  =      4   non local SUM 2l+1 LMDIM =      8
   total plane-waves  NPLWV = 161280
   max r-space proj   IRMAX =      1   max aug-charges    IRDMAX=   2779
   dimension x,y,z NGX =    70 NGY =   48 NGZ =   48
   dimension x,y,z NGXF=   140 NGYF=   96 NGZF=   96
   support grid    NGXF=   140 NGYF=   96 NGZF=   96
   ions per type =              64  16
 NGX,Y,Z   is equivalent  to a cutoff of  10.15,  9.95,  9.95 a.u.
 NGXF,Y,Z  is equivalent  to a cutoff of  20.29, 19.89, 19.91 a.u.


 I would recommend the setting:
   dimension x,y,z NGX =    69 NGY =   48 NGZ =   48
 SYSTEM =  diamond                                 
 POSCAR =  methane-low                             

 Startparameter for this run:
   NWRITE =      2    write-flag & timer
   PREC   = normal    normal or accurate (medium, high low for compatibility)
   ISTART =      0    job   : 0-new  1-cont  2-samecut
   ICHARG =      2    charge: 1-file 2-atom 10-const
   ISPIN  =      1    spin polarized calculation?
   LNONCOLLINEAR =      F non collinear calculations
   LSORBIT =      F    spin-orbit coupling
   INIWAV =      1    electr: 0-lowe 1-rand  2-diag
   LASPH  =      F    aspherical Exc in radial PAW
   METAGGA=      F    non-selfconsistent MetaGGA calc.

 Electronic Relaxation 1
   ENCUT  =  600.0 eV  44.10 Ry    6.64 a.u.  22.91 16.02 16.01*2*pi/ulx,y,z
   ENINI  =  600.0     initial cutoff
   ENAUG  =  644.9 eV  augmentation charge cutoff
   NELM   =    200;   NELMIN=  2; NELMDL=  0     # of ELM steps 
   EDIFF  = 0.1E-05   stopping-criterion for ELM
   LREAL  =      F    real-space projection
   NLSPLINE    = F    spline interpolate recip. space projectors
   LCOMPAT=      F    compatible to vasp.4.4
   GGA_COMPAT  = T    GGA compatible to vasp.4.4-vasp.4.6
   LMAXPAW     = -100 max onsite density
   LMAXMIX     =    2 max onsite mixed and CHGCAR
   VOSKOWN=      0    Vosko Wilk Nusair interpolation
   ROPT   =    0.00000   0.00000
 Ionic relaxation
   EDIFFG = 0.1E-02   stopping-criterion for IOM
   NSW    =    200    number of steps for IOM
   NBLOCK =      1;   KBLOCK =    200    inner block; outer block 
   IBRION =      2    ionic relax: 0-MD 1-quasi-New 2-CG
   NFREE  =      1    steps in history (QN), initial steepest desc. (CG)
   ISIF   =      2    stress and relaxation
   IWAVPR =     11    prediction:  0-non 1-charg 2-wave 3-comb
   ISYM   =      2    0-nonsym 1-usesym 2-fastsym
   LCORR  =      T    Harris-Foulkes like correction to forces

   POTIM  = 0.5000    time-step for ionic-motion
   TEIN   =    0.0    initial temperature
   TEBEG  =    0.0;   TEEND  =   0.0 temperature during run
   SMASS  =  -3.00    Nose mass-parameter (am)
   estimated Nose-frequenzy (Omega)   =  0.10E-29 period in steps =****** mass=  -0.301E-26a.u.
   SCALEE = 1.0000    scale energy and forces
   NPACO  =    256;   APACO  = 16.0  distance and # of slots for P.C.
   PSTRESS=    0.0 pullay stress

  Mass of Ions in am
   POMASS =   1.00 12.01
  Ionic Valenz
   ZVAL   =   1.00  4.00
  Atomic Wigner-Seitz radii
   RWIGS  =  -1.00 -1.00
  virtual crystal weights 
   VCA    =   1.00  1.00
   NELECT =     128.0000    total number of electrons
   NUPDOWN=      -1.0000    fix difference up-down

 DOS related values:
   EMIN   =  10.00;   EMAX   =-10.00  energy-range for DOS
   EFERMI =   0.00
   ISMEAR =    -5;   SIGMA  =   0.20  broadening in eV -4-tet -1-fermi 0-gaus

 Electronic relaxation 2 (details)
   IALGO  =     38    algorithm
   LDIAG  =      T    sub-space diagonalisation (order eigenvalues)
   LSUBROT=      F    optimize rotation matrix (better conditioning)
   TURBO    =      0    0=normal 1=particle mesh
   IRESTART =      0    0=no restart 2=restart with 2 vectors
   NREBOOT  =      0    no. of reboots
   NMIN     =      0    reboot dimension
   EREF     =   0.00    reference energy to select bands
   IMIX   =      4    mixing-type and parameters
     AMIX     =   0.40;   BMIX     =  1.00
     AMIX_MAG =   1.60;   BMIX_MAG =  1.00
     AMIN     =   0.10
     WC   =   100.;   INIMIX=   1;  MIXPRE=   1;  MAXMIX= -45

 Intra band minimization:
   WEIMIN = 0.0010     energy-eigenvalue tresh-hold
   EBREAK =  0.24E-08  absolut break condition
   DEPER  =   0.30     relativ break condition  

   TIME   =   0.40     timestep for ELM

  volume/ion in A,a.u.               =       9.22        62.22
  Fermi-wavevector in a.u.,A,eV,Ry     =   0.913135  1.725574 11.344742  0.833815
  Thomas-Fermi vector in A             =   2.037611
 
 Write flags
   LWAVE  =      F    write WAVECAR
   LCHARG =      F    write CHGCAR
   LVTOT  =      F    write LOCPOT, total local potential
   LVHAR  =      F    write LOCPOT, Hartree potential only
   LELF   =      F    write electronic localiz. function (ELF)
   LORBIT =      0    0 simple, 1 ext, 2 COOP (PROOUT)


 Dipole corrections
   LMONO  =      F    monopole corrections only (constant potential shift)
   LDIPOL =      F    correct potential (dipole corrections)
   IDIPOL =      0    1-x, 2-y, 3-z, 4-all directions 
   EPSILON=  1.0000000 bulk dielectric constant

 Exchange correlation treatment:
   GGA     =    --    GGA type
   LEXCH   =     8    internal setting for exchange type
   VOSKOWN=      0    Vosko Wilk Nusair interpolation
   LHFCALC =     F    Hartree Fock is set to
   LHFONE  =     F    Hartree Fock one center treatment
   AEXX    =    0.0000 exact exchange contribution

 Linear response parameters
   LEPSILON=     F    determine dielectric tensor
   LRPA    =     F    only Hartree local field effects (RPA)
   LNABLA  =     F    use nabla operator in PAW spheres
   LVEL    =     F    velocity operator in full k-point grid
   LINTERFAST=   F  fast interpolation
   KINTER  =     0    interpolate to denser k-point grid
   CSHIFT  =0.1000    complex shift for real part using Kramers Kronig
   OMEGAMAX=  -1.0    maximum frequency
   DEG_THRESHOLD= 0.2000000E-02 threshold for treating states as degnerate
   RTIME   =    0.100 relaxation time in fs

 Orbital magnetization related:
   ORBITALMAG=     F  switch on orbital magnetization
   LCHIMAG   =     F  perturbation theory with respect to B field
   DQ        =  0.001000  dq finite difference perturbation B field



--------------------------------------------------------------------------------------------------------


 conjugate gradient relaxation of ions
 charge density and potential will be updated during run
 non-spin polarized calculation
 Variant of blocked Davidson
 Davidson routine will perform the subspace rotation
 perform sub-space diagonalisation
    after iterative eigenvector-optimisation
 modified Broyden-mixing scheme, WC =      100.0
 initial mixing is a Kerker type mixing with AMIX =  0.4000 and BMIX =      1.0000
 Hartree-type preconditioning will be used
 using additional bands           42
 reciprocal scheme for non local part
 calculate Harris-corrections to forces 
   (improved forces if not selfconsistent)
 use gradient corrections 
 use of overlap-Matrix (Vanderbilt PP)
 Fermi weights with tetrahedron method with Bloechl corrections


--------------------------------------------------------------------------------------------------------


  energy-cutoff  :      600.00
  volume of cell :      737.62
      direct lattice vectors                 reciprocal lattice vectors
    11.468896252  0.000000000  0.000000000     0.087192349  0.000000000  0.000000000
     0.000000000  8.022124114  0.000000000     0.000000000  0.124655264  0.000000000
     0.000000000  0.000000000  8.017128914     0.000000000  0.000000000  0.124732933

  length of vectors
    11.468896252  8.022124114  8.017128914     0.087192349  0.124655264  0.124732933


 
 k-points in units of 2pi/SCALE and weight: B4C B11C-CBC                            
   0.00000000  0.00000000  0.00000000       0.016
   0.02135310  0.00000000  0.00000000       0.031
   0.04270621  0.00000000  0.00000000       0.016
   0.00000000  0.03052764  0.00000000       0.031
   0.02135310  0.03052764  0.00000000       0.062
   0.04270621  0.03052764  0.00000000       0.031
   0.00000000  0.06105528  0.00000000       0.016
   0.02135310  0.06105528  0.00000000       0.031
   0.04270621  0.06105528  0.00000000       0.016
   0.00000000  0.00000000  0.03054666       0.031
   0.02135310  0.00000000  0.03054666       0.062
   0.04270621  0.00000000  0.03054666       0.031
   0.00000000  0.03052764  0.03054666       0.062
   0.02135310  0.03052764  0.03054666       0.125
   0.04270621  0.03052764  0.03054666       0.062
   0.00000000  0.06105528  0.03054666       0.031
   0.02135310  0.06105528  0.03054666       0.062
   0.04270621  0.06105528  0.03054666       0.031
   0.00000000  0.00000000  0.06109332       0.016
   0.02135310  0.00000000  0.06109332       0.031
   0.04270621  0.00000000  0.06109332       0.016
   0.00000000  0.03052764  0.06109332       0.031
   0.02135310  0.03052764  0.06109332       0.062
   0.04270621  0.03052764  0.06109332       0.031
   0.00000000  0.06105528  0.06109332       0.016
   0.02135310  0.06105528  0.06109332       0.031
   0.04270621  0.06105528  0.06109332       0.016
 
 k-points in reciprocal lattice and weights: B4C B11C-CBC                            
   0.00000000  0.00000000  0.00000000       0.016
   0.25000000  0.00000000  0.00000000       0.031
   0.50000000  0.00000000  0.00000000       0.016
   0.00000000  0.25000000  0.00000000       0.031
   0.25000000  0.25000000  0.00000000       0.062
   0.50000000  0.25000000  0.00000000       0.031
   0.00000000  0.50000000  0.00000000       0.016
   0.25000000  0.50000000  0.00000000       0.031
   0.50000000  0.50000000  0.00000000       0.016
   0.00000000  0.00000000  0.25000000       0.031
   0.25000000  0.00000000  0.25000000       0.062
   0.50000000  0.00000000  0.25000000       0.031
   0.00000000  0.25000000  0.25000000       0.062
   0.25000000  0.25000000  0.25000000       0.125
   0.50000000  0.25000000  0.25000000       0.062
   0.00000000  0.50000000  0.25000000       0.031
   0.25000000  0.50000000  0.25000000       0.062
   0.50000000  0.50000000  0.25000000       0.031
   0.00000000  0.00000000  0.50000000       0.016
   0.25000000  0.00000000  0.50000000       0.031
   0.50000000  0.00000000  0.50000000       0.016
   0.00000000  0.25000000  0.50000000       0.031
   0.25000000  0.25000000  0.50000000       0.062
   0.50000000  0.25000000  0.50000000       0.031
   0.00000000  0.50000000  0.50000000       0.016
   0.25000000  0.50000000  0.50000000       0.031
   0.50000000  0.50000000  0.50000000       0.016
 
 position of ions in fractional coordinates (direct lattice) 
   0.07280000  0.78549999  0.18230000
   0.92720002  0.21450001  0.81770003
   0.92720002  0.71450001  0.68229997
   0.07280000  0.28549999  0.31770000
   0.92720002  0.28549999  0.31770000
   0.07280000  0.71450001  0.68229997
   0.07280000  0.21450001  0.81770003
   0.92720002  0.78549999  0.18230000
   0.57279998  0.28549999  0.18230000
   0.42719999  0.71450001  0.81770003
   0.42719999  0.21450001  0.68229997
   0.57279998  0.78549999  0.31770000
   0.42719999  0.78549999  0.31770000
   0.57279998  0.21450001  0.68229997
   0.57279998  0.71450001  0.81770003
   0.42719999  0.28549999  0.18230000
   0.80100000  0.57950002  0.93360001
   0.19900000  0.42049998  0.06639999
   0.19900000  0.92049998  0.43360001
   0.80100000  0.07950002  0.56639999
   0.19900000  0.07950002  0.56639999
   0.80100000  0.92049998  0.43360001
   0.80100000  0.42049998  0.06639999
   0.19900000  0.57950002  0.93360001
   0.30100000  0.07950002  0.93360001
   0.69900000  0.92049998  0.06639999
   0.69900000  0.42049998  0.43360001
   0.30100000  0.57950002  0.56639999
   0.69900000  0.57950002  0.56639999
   0.30100000  0.42049998  0.43360001
   0.30100000  0.92049998  0.06639999
   0.69900000  0.07950002  0.93360001
   0.69859999  0.56629997  0.07959998
   0.30140001  0.43370003  0.92040002
   0.30140001  0.93370003  0.57959998
   0.69859999  0.06629997  0.42040002
   0.30140001  0.06629997  0.42040002
   0.69859999  0.93370003  0.57959998
   0.69859999  0.43370003  0.92040002
   0.30140001  0.56629997  0.07959998
   0.19859999  0.06629997  0.07959998
   0.80140001  0.93370003  0.92040002
   0.80140001  0.43370003  0.57959998
   0.19859999  0.56629997  0.42040002
   0.80140001  0.56629997  0.42040002
   0.19859999  0.43370003  0.57959998
   0.19859999  0.93370003  0.92040002
   0.80140001  0.06629997  0.07959998
   0.00000000  0.60589999  0.19920000
   0.00000000  0.39410001  0.80079997
   0.00000000  0.89410001  0.69920003
   0.00000000  0.10589999  0.30080000
   0.50000000  0.10589999  0.19920000
   0.50000000  0.89410001  0.80079997
   0.50000000  0.39410001  0.69920003
   0.50000000  0.60589999  0.30080000
   0.00000000  0.74159998  0.78549999
   0.00000000  0.25840002  0.21450001
   0.00000000  0.75840002  0.28549999
   0.00000000  0.24159998  0.71450001
   0.50000000  0.24159998  0.78549999
   0.50000000  0.75840002  0.21450001
   0.50000000  0.25840002  0.28549999
   0.50000000  0.74159998  0.71450001
   0.00000000  0.72960001  0.23029999
   0.00000000  0.27039999  0.76969999
   0.00000000  0.77039999  0.73030001
   0.00000000  0.22960001  0.26969999
   0.50000000  0.22960001  0.23029999
   0.50000000  0.77039999  0.76969999
   0.50000000  0.27039999  0.73030001
   0.50000000  0.72960001  0.26969999
   0.74980003  0.50000000  0.00000000
   0.25019997  0.50000000  0.00000000
   0.25019997  0.00000000  0.50000000
   0.74980003  0.00000000  0.50000000
   0.24980003  0.00000000  0.00000000
   0.75019997  0.00000000  0.00000000
   0.75019997  0.50000000  0.50000000
   0.24980003  0.50000000  0.50000000
 
 position of ions in cartesian coordinates  (Angst):
   0.83493568  6.30137841  1.46152261
  10.63396082  1.72074570  6.55560654
  10.63396082  5.73180776  5.47008683
   0.83493568  2.29031635  2.54704185
  10.63396082  2.29031635  2.54704185
   0.83493568  5.73180776  5.47008683
   0.83493568  1.72074570  6.55560654
  10.63396082  6.30137841  1.46152261
   6.56938356  2.29031635  1.46152261
   4.89951236  5.73180776  6.55560654
   4.89951236  1.72074570  5.47008683
   6.56938356  6.30137841  2.54704185
   4.89951236  6.30137841  2.54704185
   6.56938356  1.72074570  5.47008683
   6.56938356  5.73180776  6.55560654
   4.89951236  2.29031635  1.46152261
   9.18658589  4.64882108  7.48479162
   2.28231037  3.37330303  0.53233730
   2.28231037  7.38436509  3.47622716
   9.18658589  0.63775903  4.54090175
   2.28231037  0.63775903  4.54090175
   9.18658589  7.38436509  3.47622716
   9.18658589  3.37330303  0.53233730
   2.28231037  4.64882108  7.48479162
   3.45213776  0.63775903  7.48479162
   8.01675849  7.38436509  0.53233730
   8.01675849  3.37330303  3.47622716
   3.45213776  4.64882108  4.54090175
   8.01675849  4.64882108  4.54090175
   3.45213776  3.37330303  3.47622716
   3.45213776  7.38436509  0.53233730
   8.01675849  0.63775903  7.48479162
   8.01217085  4.54292869  0.63816328
   3.45672540  3.47919543  7.37896564
   3.45672540  7.49025749  4.64672773
   8.01217085  0.53186663  3.37040118
   3.45672540  0.53186663  3.37040118
   8.01217085  7.49025749  4.64672773
   8.01217085  3.47919543  7.37896564
   3.45672540  4.54292869  0.63816328
   2.27772273  0.53186663  0.63816328
   9.19117353  7.49025749  7.37896564
   9.19117353  3.47919543  4.64672773
   2.27772273  4.54292869  3.37040118
   9.19117353  4.54292869  3.37040118
   2.27772273  3.47919543  4.64672773
   2.27772273  7.49025749  7.37896564
   9.19117353  0.53186663  0.63816328
   0.00000000  4.86060492  1.59701211
   0.00000000  3.16151919  6.42011656
   0.00000000  7.17258125  5.60557681
   0.00000000  0.84954286  2.41155235
   5.73444813  0.84954286  1.59701211
   5.73444813  7.17258125  6.42011656
   5.73444813  3.16151919  5.60557681
   5.73444813  4.86060492  2.41155235
   0.00000000  5.94920706  6.29745468
   0.00000000  2.07291706  1.71967423
   0.00000000  6.08397911  2.28889022
   0.00000000  1.93814500  5.72823869
   5.73444813  1.93814500  6.29745468
   5.73444813  6.08397911  1.71967423
   5.73444813  2.07291706  2.28889022
   5.73444813  5.94920706  5.72823869
   0.00000000  5.85294185  1.84634474
   0.00000000  2.16918226  6.17078405
   0.00000000  6.18024432  5.85490932
   0.00000000  1.84187979  2.16221960
   5.73444813  1.84187979  1.84634474
   5.73444813  6.18024432  6.17078405
   5.73444813  2.16918226  5.85490932
   5.73444813  5.85294185  2.16221960
   8.59937871  4.01106206  0.00000000
   2.86951754  4.01106206  0.00000000
   2.86951754  0.00000000  4.00856446
   8.59937871  0.00000000  4.00856446
   2.86493058  0.00000000  0.00000000
   8.60396567  0.00000000  0.00000000
   8.60396567  4.01106206  4.00856446
   2.86493058  4.01106206  4.00856446
 


--------------------------------------------------------------------------------------------------------


 k-point  1 :   0.0000 0.0000 0.0000  plane waves:   24581
 k-point  2 :   0.2500 0.0000 0.0000  plane waves:   24594
 k-point  3 :   0.5000 0.0000 0.0000  plane waves:   24630
 k-point  4 :   0.0000 0.2500 0.0000  plane waves:   24562
 k-point  5 :   0.2500 0.2500 0.0000  plane waves:   24593
 k-point  6 :   0.5000 0.2500 0.0000  plane waves:   24620
 k-point  7 :   0.0000 0.5000 0.0000  plane waves:   24584
 k-point  8 :   0.2500 0.5000 0.0000  plane waves:   24578
 k-point  9 :   0.5000 0.5000 0.0000  plane waves:   24640
 k-point 10 :   0.0000 0.0000 0.2500  plane waves:   24572
 k-point 11 :   0.2500 0.0000 0.2500  plane waves:   24598
 k-point 12 :   0.5000 0.0000 0.2500  plane waves:   24632
 k-point 13 :   0.0000 0.2500 0.2500  plane waves:   24620
 k-point 14 :   0.2500 0.2500 0.2500  plane waves:   24607
 k-point 15 :   0.5000 0.2500 0.2500  plane waves:   24642
 k-point 16 :   0.0000 0.5000 0.2500  plane waves:   24618
 k-point 17 :   0.2500 0.5000 0.2500  plane waves:   24632
 k-point 18 :   0.5000 0.5000 0.2500  plane waves:   24616
 k-point 19 :   0.0000 0.0000 0.5000  plane waves:   24576
 k-point 20 :   0.2500 0.0000 0.5000  plane waves:   24572
 k-point 21 :   0.5000 0.0000 0.5000  plane waves:   24640
 k-point 22 :   0.0000 0.2500 0.5000  plane waves:   24622
 k-point 23 :   0.2500 0.2500 0.5000  plane waves:   24630
 k-point 24 :   0.5000 0.2500 0.5000  plane waves:   24612
 k-point 25 :   0.0000 0.5000 0.5000  plane waves:   24652
 k-point 26 :   0.2500 0.5000 0.5000  plane waves:   24700
 k-point 27 :   0.5000 0.5000 0.5000  plane waves:   24680

 maximum and minimum number of plane-waves per node :     12351    12275

 maximum number of plane-waves:     24700
 maximum index in each direction: 
   IXMAX=   22   IYMAX=   16   IZMAX=   16
   IXMIN=  -23   IYMIN=  -16   IZMIN=  -16

 WARNING: aliasing errors must be expected set NGX to  92 to avoid them
 WARNING: aliasing errors must be expected set NGY to  66 to avoid them
 WARNING: aliasing errors must be expected set NGZ to  66 to avoid them
 aliasing errors are usually negligible using standard VASP settings
 and one can safely disregard these warnings

 parallel 3D FFT for wavefunctions:
    minimum data exchange during FFTs selected (reduces bandwidth)
 parallel 3D FFT for charge:
    minimum data exchange during FFTs selected (reduces bandwidth)


 total amount of memory used by VASP on root node   411699. kBytes
========================================================================

   base      :      30000. kBytes
   nonl-proj :      58499. kBytes
   fftplans  :      13554. kBytes
   grid      :      21584. kBytes
   one-center:        122. kBytes
   wavefun   :     287940. kBytes
 
     INWAV:  cpu time    0.00: real time    0.00
 Broyden mixing: mesh for mixing (old mesh)
   NGX = 45   NGY = 33   NGZ = 33
  (NGX  =140   NGY  = 96   NGZ  = 96)
  gives a total of  49005 points

 initial charge density was supplied:
 charge density of overlapping atoms calculated
 number of electron     128.0000000 magnetization 
 keeping initial charge density in first step


--------------------------------------------------------------------------------------------------------


 Maximum index for augmentation-charges          640 (set IRDMAX)


--------------------------------------------------------------------------------------------------------


 First call to EWALD:  gamma=   0.196
 Maximum number of real-space cells 2x 3x 3
 Maximum number of reciprocal cells 3x 2x 2

 FEWALD executed in parallel
    FEWALD:  cpu time    0.02: real time    0.04


----------------------------------------- Iteration    1(   1)  ---------------------------------------


    POTLOK:  cpu time    0.36: real time    0.70
    SETDIJ:  cpu time    0.08: real time    0.10
     EDDAV:  cpu time  195.26: real time  293.86
 BZINTS: Fermi energy:  6.299955;128.000000 electrons
         Band energy:-922.530917;  BLOECHL correction: -0.005796
       DOS:  cpu time    0.04: real time    0.04
    --------------------------------------------
      LOOP:  cpu time  195.74: real time  294.72

 eigenvalue-minimisations  :  5780
 total energy-change (2. order) : 0.7569551E+03  (-0.5827099E+04)
 number of electron     128.0000000 magnetization 
 augmentation part      128.0000000 magnetization 

 Free energy of the ion-electron system (eV)
  ---------------------------------------------------
  alpha Z        PSCENC =        83.61433490
  Ewald energy   TEWEN  =      -644.44412501
  -Hartree energ DENC   =     -1275.69334892
  -exchange      EXHF   =         0.00000000
  -V(xc)+E(xc)   XCENC  =       381.35745042
  PAW double counting   =       655.30793496     -674.29210410
  entropy T*S    EENTRO =         0.00000000
  eigenvalues    EBANDS =      -922.53091709
  atomic energy  EATOM  =      3153.63586372
  ---------------------------------------------------
  free energy    TOTEN  =       756.95508888 eV

  energy without entropy =      756.95508888  energy(sigma->0) =      756.95508888


--------------------------------------------------------------------------------------------------------




----------------------------------------- Iteration    1(   2)  ---------------------------------------


     EDDAV:  cpu time  228.13: real time  345.39
 BZINTS: Fermi energy: -8.098729;128.000000 electrons
         Band energy:***********;  BLOECHL correction:  0.000000
       DOS:  cpu time    0.01: real time    0.02
    --------------------------------------------
      LOOP:  cpu time  228.18: real time  345.47

 eigenvalue-minimisations  :  6788
 total energy-change (2. order) :-0.9481424E+03  (-0.9277403E+03)
 number of electron     128.0000000 magnetization 
 augmentation part      128.0000000 magnetization 

 Free energy of the ion-electron system (eV)
  ---------------------------------------------------
  alpha Z        PSCENC =        83.61433490
  Ewald energy   TEWEN  =      -644.44412501
  -Hartree energ DENC   =     -1275.69334892
  -exchange      EXHF   =         0.00000000
  -V(xc)+E(xc)   XCENC  =       381.35745042
  PAW double counting   =       655.30793496     -674.29210410
  entropy T*S    EENTRO =         0.00000000
  eigenvalues    EBANDS =     -1870.67328166
  atomic energy  EATOM  =      3153.63586372
  ---------------------------------------------------
  free energy    TOTEN  =      -191.18727569 eV

  energy without entropy =     -191.18727569  energy(sigma->0) =     -191.18727569


--------------------------------------------------------------------------------------------------------




----------------------------------------- Iteration    1(   3)  ---------------------------------------


     EDDAV:  cpu time  240.43: real time  363.16
 BZINTS: Fermi energy:-11.111215;128.000000 electrons
         Band energy:***********;  BLOECHL correction:  0.000000
       DOS:  cpu time    0.01: real time    0.01
    --------------------------------------------
      LOOP:  cpu time  240.44: real time  363.18

 eigenvalue-minimisations  :  7328
 total energy-change (2. order) :-0.1013971E+03  (-0.1008771E+03)
 number of electron     128.0000000 magnetization 
 augmentation part      128.0000000 magnetization 

 Free energy of the ion-electron system (eV)
  ---------------------------------------------------
  alpha Z        PSCENC =        83.61433490
  Ewald energy   TEWEN  =      -644.44412501
  -Hartree energ DENC   =     -1275.69334892
  -exchange      EXHF   =         0.00000000
  -V(xc)+E(xc)   XCENC  =       381.35745042
  PAW double counting   =       655.30793496     -674.29210410
  entropy T*S    EENTRO =         0.00000000
  eigenvalues    EBANDS =     -1972.07034572
  atomic energy  EATOM  =      3153.63586372
  ---------------------------------------------------
  free energy    TOTEN  =      -292.58433974 eV

  energy without entropy =     -292.58433974  energy(sigma->0) =     -292.58433974


--------------------------------------------------------------------------------------------------------




----------------------------------------- Iteration    1(   4)  ---------------------------------------


     EDDAV:  cpu time  236.88: real time  356.24
 BZINTS: Fermi energy:-11.176617;128.000000 electrons
         Band energy:***********;  BLOECHL correction:  0.000000
       DOS:  cpu time    0.01: real time    0.02
    --------------------------------------------
      LOOP:  cpu time  236.93: real time  356.33

 eigenvalue-minimisations  :  7128
 total energy-change (2. order) :-0.2430410E+01  (-0.2427611E+01)
 number of electron     128.0000000 magnetization 
 augmentation part      128.0000000 magnetization 

 Free energy of the ion-electron system (eV)
  ---------------------------------------------------
  alpha Z        PSCENC =        83.61433490
  Ewald energy   TEWEN  =      -644.44412501
  -Hartree energ DENC   =     -1275.69334892
  -exchange      EXHF   =         0.00000000
  -V(xc)+E(xc)   XCENC  =       381.35745042
  PAW double counting   =       655.30793496     -674.29210410
  entropy T*S    EENTRO =         0.00000000
  eigenvalues    EBANDS =     -1974.50075561
  atomic energy  EATOM  =      3153.63586372
  ---------------------------------------------------
  free energy    TOTEN  =      -295.01474964 eV

  energy without entropy =     -295.01474964  energy(sigma->0) =     -295.01474964


--------------------------------------------------------------------------------------------------------




----------------------------------------- Iteration    1(   5)  ---------------------------------------


     EDDAV:  cpu time  237.94: real time  362.10
 BZINTS: Fermi energy:-11.116958;128.000000 electrons
         Band energy:***********;  BLOECHL correction:  0.000000
       DOS:  cpu time    0.01: real time    0.02
    CHARGE:  cpu time    2.65: real time    4.11
    MIXING:  cpu time    0.03: real time    0.04
    --------------------------------------------
      LOOP:  cpu time  240.64: real time  366.29

 eigenvalue-minimisations  :  7200
 total energy-change (2. order) :-0.4632200E-01  (-0.4631319E-01)
 number of electron     127.9999973 magnetization 
 augmentation part        5.2318604 magnetization 

 Broyden mixing:
  rms(total) = 0.57459E+01    rms(broyden)= 0.57452E+01
  rms(prec ) = 0.72889E+01
  weight for this iteration     100.00

 Free energy of the ion-electron system (eV)
  ---------------------------------------------------
  alpha Z        PSCENC =        83.61433490
  Ewald energy   TEWEN  =      -644.44412501
  -Hartree energ DENC   =     -1275.69334892
  -exchange      EXHF   =         0.00000000
  -V(xc)+E(xc)   XCENC  =       381.35745042
  PAW double counting   =       655.30793496     -674.29210410
  entropy T*S    EENTRO =         0.00000000
  eigenvalues    EBANDS =     -1974.54707761
  atomic energy  EATOM  =      3153.63586372
  ---------------------------------------------------
  free energy    TOTEN  =      -295.06107164 eV

  energy without entropy =     -295.06107164  energy(sigma->0) =     -295.06107164


--------------------------------------------------------------------------------------------------------




----------------------------------------- Iteration    1(   6)  ---------------------------------------


    POTLOK:  cpu time    0.46: real time    0.73
    SETDIJ:  cpu time    0.08: real time    0.09
     EDDAV:  cpu time  215.74: real time  322.44
 BZINTS: Fermi energy: -8.280858;128.000000 electrons
         Band energy:***********;  BLOECHL correction:  0.000000
       DOS:  cpu time    0.01: real time    0.02
    CHARGE:  cpu time    2.39: real time    3.68
    MIXING:  cpu time    0.01: real time    0.02
    --------------------------------------------
      LOOP:  cpu time  218.69: real time  326.99

 eigenvalue-minimisations  :  6180
 total energy-change (2. order) : 0.1112708E+03  (-0.2100685E+02)
 number of electron     127.9999960 magnetization 
 augmentation part        4.4159912 magnetization 

 Broyden mixing:
  rms(total) = 0.22119E+01    rms(broyden)= 0.22118E+01
  rms(prec ) = 0.26718E+01
  weight for this iteration     100.00

 eigenvalues of (default mixing * dielectric matrix)
  average eigenvalue GAMMA=   1.3260
  1.3260

 Free energy of the ion-electron system (eV)
  ---------------------------------------------------
  alpha Z        PSCENC =        83.61433490
  Ewald energy   TEWEN  =      -644.44412501
  -Hartree energ DENC   =     -1683.85871363
  -exchange      EXHF   =         0.00000000
  -V(xc)+E(xc)   XCENC  =       410.78572031
  PAW double counting   =      1521.81178655    -1548.39136068
  entropy T*S    EENTRO =         0.00000000
  eigenvalues    EBANDS =     -1476.94379699
  atomic energy  EATOM  =      3153.63586372
  ---------------------------------------------------
  free energy    TOTEN  =      -183.79029083 eV

  energy without entropy =     -183.79029083  energy(sigma->0) =     -183.79029083


--------------------------------------------------------------------------------------------------------




----------------------------------------- Iteration    1(   7)  ---------------------------------------


    POTLOK:  cpu time    0.35: real time    0.47
    SETDIJ:  cpu time    0.06: real time    0.06
     EDDAV:  cpu time  226.21: real time  336.86
 BZINTS: Fermi energy: -6.586411;128.000000 electrons
         Band energy:***********;  BLOECHL correction:  0.000000
       DOS:  cpu time    0.01: real time    0.01
    CHARGE:  cpu time    2.72: real time    4.58
    MIXING:  cpu time    0.03: real time    0.03
    --------------------------------------------
      LOOP:  cpu time  229.38: real time  342.03

 eigenvalue-minimisations  :  6744
 total energy-change (2. order) : 0.1115374E+02  (-0.3882123E+01)
 number of electron     127.9999952 magnetization 
 augmentation part        4.0913191 magnetization 

 Broyden mixing:
  rms(total) = 0.99625E+00    rms(broyden)= 0.99612E+00
  rms(prec ) = 0.11418E+01
  weight for this iteration     100.00

 eigenvalues of (default mixing * dielectric matrix)
  average eigenvalue GAMMA=   1.6735
  1.4794  1.8676

 Free energy of the ion-electron system (eV)
  ---------------------------------------------------
  alpha Z        PSCENC =        83.61433490
  Ewald energy   TEWEN  =      -644.44412501
  -Hartree energ DENC   =     -1884.08333462
  -exchange      EXHF   =         0.00000000
  -V(xc)+E(xc)   XCENC  =       427.49941063
  PAW double counting   =      2104.40610850    -2133.44398758
  entropy T*S    EENTRO =         0.00000000
  eigenvalues    EBANDS =     -1279.82081832
  atomic energy  EATOM  =      3153.63586372
  ---------------------------------------------------
  free energy    TOTEN  =      -172.63654778 eV

  energy without entropy =     -172.63654778  energy(sigma->0) =     -172.63654778


--------------------------------------------------------------------------------------------------------




----------------------------------------- Iteration    1(   8)  ---------------------------------------


    POTLOK:  cpu time    0.41: real time    0.70
    SETDIJ:  cpu time    0.04: real time    0.06
     EDDAV:  cpu time  237.90: real time  351.97
 BZINTS: Fermi energy: -6.246246;128.000000 electrons
         Band energy:***********;  BLOECHL correction:  0.000000
       DOS:  cpu time    0.01: real time    0.01
    CHARGE:  cpu time    3.06: real time    3.49
    MIXING:  cpu time    0.01: real time    0.02
    --------------------------------------------
      LOOP:  cpu time  241.43: real time  356.27

 eigenvalue-minimisations  :  6950
 total energy-change (2. order) : 0.1385211E+01  (-0.3331709E+00)
 number of electron     127.9999954 magnetization 
 augmentation part        4.0592107 magnetization 

 Broyden mixing:
  rms(total) = 0.14354E+00    rms(broyden)= 0.14349E+00
  rms(prec ) = 0.20350E+00
  weight for this iteration     100.00

 eigenvalues of (default mixing * dielectric matrix)
  average eigenvalue GAMMA=   1.5206
  2.2237  1.0260  1.3121

 Free energy of the ion-electron system (eV)
  ---------------------------------------------------
  alpha Z        PSCENC =        83.61433490
  Ewald energy   TEWEN  =      -644.44412501
  -Hartree energ DENC   =     -1927.47216149
  -exchange      EXHF   =         0.00000000
  -V(xc)+E(xc)   XCENC  =       434.25251287
  PAW double counting   =      2297.44124142    -2325.99077213
  entropy T*S    EENTRO =         0.00000000
  eigenvalues    EBANDS =     -1242.28823128
  atomic energy  EATOM  =      3153.63586372
  ---------------------------------------------------
  free energy    TOTEN  =      -171.25133700 eV

  energy without entropy =     -171.25133700  energy(sigma->0) =     -171.25133700


--------------------------------------------------------------------------------------------------------




----------------------------------------- Iteration    1(   9)  ---------------------------------------


    POTLOK:  cpu time    0.38: real time    0.72
    SETDIJ:  cpu time    0.03: real time    0.06
     EDDAV:  cpu time  219.31: real time  331.24
 BZINTS: Fermi energy: -6.117656;128.000000 electrons
         Band energy:***********;  BLOECHL correction:  0.000000
       DOS:  cpu time    0.01: real time    0.01
    CHARGE:  cpu time    2.61: real time    4.21
    MIXING:  cpu time    0.03: real time    0.03
    --------------------------------------------
      LOOP:  cpu time  222.37: real time  336.28

 eigenvalue-minimisations  :  6534
 total energy-change (2. order) : 0.6100104E-01  (-0.2183150E-01)
 number of electron     127.9999954 magnetization 
 augmentation part        4.0400349 magnetization 

 Broyden mixing:
  rms(total) = 0.51247E-01    rms(broyden)= 0.51235E-01
  rms(prec ) = 0.67182E-01
  weight for this iteration     100.00

 eigenvalues of (default mixing * dielectric matrix)
  average eigenvalue GAMMA=   1.5139
  2.1713  1.1495  1.1495  1.5851

 Free energy of the ion-electron system (eV)
  ---------------------------------------------------
  alpha Z        PSCENC =        83.61433490
  Ewald energy   TEWEN  =      -644.44412501
  -Hartree energ DENC   =     -1949.97263583
  -exchange      EXHF   =         0.00000000
  -V(xc)+E(xc)   XCENC  =       436.38574202
  PAW double counting   =      2357.73325193    -2386.40820139
  entropy T*S    EENTRO =         0.00000000
  eigenvalues    EBANDS =     -1221.73456630
  atomic energy  EATOM  =      3153.63586372
  ---------------------------------------------------
  free energy    TOTEN  =      -171.19033596 eV

  energy without entropy =     -171.19033596  energy(sigma->0) =     -171.19033596


--------------------------------------------------------------------------------------------------------




----------------------------------------- Iteration    1(  10)  ---------------------------------------


    POTLOK:  cpu time    0.61: real time    0.64
    SETDIJ:  cpu time    0.06: real time    0.08
     EDDAV:  cpu time  217.79: real time  330.07
 BZINTS: Fermi energy: -6.094733;128.000000 electrons
         Band energy:***********;  BLOECHL correction:  0.000000
       DOS:  cpu time    0.01: real time    0.01
    CHARGE:  cpu time    2.46: real time    4.31
    MIXING:  cpu time    0.03: real time    0.05
    --------------------------------------------
      LOOP:  cpu time  220.95: real time  335.16

 eigenvalue-minimisations  :  6310
 total energy-change (2. order) :-0.2025446E-01  (-0.4244157E-02)
 number of electron     127.9999953 magnetization 
 augmentation part        4.0311175 magnetization 

 Broyden mixing:
  rms(total) = 0.31253E-01    rms(broyden)= 0.31250E-01
  rms(prec ) = 0.38022E-01
  weight for this iteration     100.00

 eigenvalues of (default mixing * dielectric matrix)
  average eigenvalue GAMMA=   1.6749
  2.6441  2.2963  1.0239  1.2051  1.2051

 Free energy of the ion-electron system (eV)
  ---------------------------------------------------
  alpha Z        PSCENC =        83.61433490
  Ewald energy   TEWEN  =      -644.44412501
  -Hartree energ DENC   =     -1954.53385567
  -exchange      EXHF   =         0.00000000
  -V(xc)+E(xc)   XCENC  =       436.78304619
  PAW double counting   =      2360.94734785    -2389.61332896
  entropy T*S    EENTRO =         0.00000000
  eigenvalues    EBANDS =     -1217.59987343
  atomic energy  EATOM  =      3153.63586372
  ---------------------------------------------------
  free energy    TOTEN  =      -171.21059042 eV

  energy without entropy =     -171.21059042  energy(sigma->0) =     -171.21059042


--------------------------------------------------------------------------------------------------------




----------------------------------------- Iteration    1(  11)  ---------------------------------------


    POTLOK:  cpu time    0.36: real time    0.72
    SETDIJ:  cpu time    0.04: real time    0.08
     EDDAV:  cpu time  209.40: real time  315.21
 BZINTS: Fermi energy: -6.089024;128.000000 electrons
         Band energy:***********;  BLOECHL correction:  0.000000
       DOS:  cpu time    0.01: real time    0.01
    CHARGE:  cpu time    3.01: real time    4.73
    MIXING:  cpu time    0.01: real time    0.02
    --------------------------------------------
      LOOP:  cpu time  212.83: real time  320.77

 eigenvalue-minimisations  :  6046
 total energy-change (2. order) :-0.7102154E-02  (-0.9001648E-03)
 number of electron     127.9999953 magnetization 
 augmentation part        4.0334061 magnetization 

 Broyden mixing:
  rms(total) = 0.11025E-01    rms(broyden)= 0.11024E-01
  rms(prec ) = 0.13509E-01
  weight for this iteration     100.00

 eigenvalues of (default mixing * dielectric matrix)
  average eigenvalue GAMMA=   1.6077
  2.7541  2.2059  1.4740  0.9615  1.1254  1.1254

 Free energy of the ion-electron system (eV)
  ---------------------------------------------------
  alpha Z        PSCENC =        83.61433490
  Ewald energy   TEWEN  =      -644.44412501
  -Hartree energ DENC   =     -1955.44019190
  -exchange      EXHF   =         0.00000000
  -V(xc)+E(xc)   XCENC  =       437.01937930
  PAW double counting   =      2357.72234915    -2386.30522779
  entropy T*S    EENTRO =         0.00000000
  eigenvalues    EBANDS =     -1217.02007494
  atomic energy  EATOM  =      3153.63586372
  ---------------------------------------------------
  free energy    TOTEN  =      -171.21769258 eV

  energy without entropy =     -171.21769258  energy(sigma->0) =     -171.21769258


--------------------------------------------------------------------------------------------------------




----------------------------------------- Iteration    1(  12)  ---------------------------------------


    POTLOK:  cpu time    0.30: real time    0.54
    SETDIJ:  cpu time    0.04: real time    0.09
     EDDAV:  cpu time  244.49: real time  366.26
 BZINTS: Fermi energy: -6.082109;128.000000 electrons
         Band energy:***********;  BLOECHL correction:  0.000000
       DOS:  cpu time    0.01: real time    0.01
    CHARGE:  cpu time    3.06: real time    4.25
    MIXING:  cpu time    0.04: real time    0.08
    --------------------------------------------
      LOOP:  cpu time  247.95: real time  371.22

 eigenvalue-minimisations  :  7288
 total energy-change (2. order) : 0.1809539E-03  (-0.1177455E-03)
 number of electron     127.9999953 magnetization 
 augmentation part        4.0325956 magnetization 

 Broyden mixing:
  rms(total) = 0.38490E-02    rms(broyden)= 0.38489E-02
  rms(prec ) = 0.44370E-02
  weight for this iteration     100.00

 eigenvalues of (default mixing * dielectric matrix)
  average eigenvalue GAMMA=   1.6325
  2.8168  2.3313  1.5252  1.5252  0.9713  1.1288  1.1288

 Free energy of the ion-electron system (eV)
  ---------------------------------------------------
  alpha Z        PSCENC =        83.61433490
  Ewald energy   TEWEN  =      -644.44412501
  -Hartree energ DENC   =     -1956.20068224
  -exchange      EXHF   =         0.00000000
  -V(xc)+E(xc)   XCENC  =       437.06556929
  PAW double counting   =      2359.08965161    -2387.68918383
  entropy T*S    EENTRO =         0.00000000
  eigenvalues    EBANDS =     -1216.28894006
  atomic energy  EATOM  =      3153.63586372
  ---------------------------------------------------
  free energy    TOTEN  =      -171.21751162 eV

  energy without entropy =     -171.21751162  energy(sigma->0) =     -171.21751162


--------------------------------------------------------------------------------------------------------




----------------------------------------- Iteration    1(  13)  ---------------------------------------


    POTLOK:  cpu time    0.31: real time    0.57
    SETDIJ:  cpu time    0.04: real time    0.07
     EDDAV:  cpu time  211.03: real time  324.37
 BZINTS: Fermi energy: -6.083280;128.000000 electrons
         Band energy:***********;  BLOECHL correction:  0.000000
       DOS:  cpu time    0.01: real time    0.01
    CHARGE:  cpu time    3.24: real time    4.47
    MIXING:  cpu time    0.01: real time    0.01
    --------------------------------------------
      LOOP:  cpu time  214.64: real time  329.52

 eigenvalue-minimisations  :  6312
 total energy-change (2. order) :-0.6052603E-04  (-0.1491114E-04)
 number of electron     127.9999953 magnetization 
 augmentation part        4.0325656 magnetization 

 Broyden mixing:
  rms(total) = 0.15130E-02    rms(broyden)= 0.15129E-02
  rms(prec ) = 0.19226E-02
  weight for this iteration     100.00

 eigenvalues of (default mixing * dielectric matrix)
  average eigenvalue GAMMA=   1.6342
  2.9604  2.3590  1.7440  1.7440  0.9646  1.1538  1.0738  1.0738

 Free energy of the ion-electron system (eV)
  ---------------------------------------------------
  alpha Z        PSCENC =        83.61433490
  Ewald energy   TEWEN  =      -644.44412501
  -Hartree energ DENC   =     -1956.09444904
  -exchange      EXHF   =         0.00000000
  -V(xc)+E(xc)   XCENC  =       437.05473913
  PAW double counting   =      2358.30809530    -2386.90933737
  entropy T*S    EENTRO =         0.00000000
  eigenvalues    EBANDS =     -1216.38269378
  atomic energy  EATOM  =      3153.63586372
  ---------------------------------------------------
  free energy    TOTEN  =      -171.21757215 eV

  energy without entropy =     -171.21757215  energy(sigma->0) =     -171.21757215


--------------------------------------------------------------------------------------------------------




----------------------------------------- Iteration    1(  14)  ---------------------------------------


    POTLOK:  cpu time    0.46: real time    0.54
    SETDIJ:  cpu time    0.05: real time    0.06
     EDDAV:  cpu time  227.06: real time  340.12
 BZINTS: Fermi energy: -6.082912;128.000000 electrons
         Band energy:***********;  BLOECHL correction:  0.000000
       DOS:  cpu time    0.01: real time    0.01
    CHARGE:  cpu time    3.01: real time    4.24
    MIXING:  cpu time    0.01: real time    0.02
    --------------------------------------------
      LOOP:  cpu time  230.61: real time  345.02

 eigenvalue-minimisations  :  6372
 total energy-change (2. order) :-0.6610054E-05  (-0.5240044E-05)
 number of electron     127.9999953 magnetization 
 augmentation part        4.0322606 magnetization 

 Broyden mixing:
  rms(total) = 0.51169E-03    rms(broyden)= 0.51152E-03
  rms(prec ) = 0.63860E-03
  weight for this iteration     100.00

 eigenvalues of (default mixing * dielectric matrix)
  average eigenvalue GAMMA=   1.6235
  2.9411  2.3535  2.3535  1.3362  1.3362  1.1762  1.1762  0.9691  0.9691

 Free energy of the ion-electron system (eV)
  ---------------------------------------------------
  alpha Z        PSCENC =        83.61433490
  Ewald energy   TEWEN  =      -644.44412501
  -Hartree energ DENC   =     -1956.24614315
  -exchange      EXHF   =         0.00000000
  -V(xc)+E(xc)   XCENC  =       437.06469029
  PAW double counting   =      2358.48908550    -2387.09385271
  entropy T*S    EENTRO =         0.00000000
  eigenvalues    EBANDS =     -1216.23743229
  atomic energy  EATOM  =      3153.63586372
  ---------------------------------------------------
  free energy    TOTEN  =      -171.21757876 eV

  energy without entropy =     -171.21757876  energy(sigma->0) =     -171.21757876


--------------------------------------------------------------------------------------------------------




----------------------------------------- Iteration    1(  15)  ---------------------------------------


    POTLOK:  cpu time    0.44: real time    0.57
    SETDIJ:  cpu time    0.09: real time    0.10
     EDDAV:  cpu time  222.14: real time  330.93
 BZINTS: Fermi energy: -6.059440;128.000000 electrons
         Band energy:***********;  BLOECHL correction:  0.000000
       DOS:  cpu time    0.01: real time    0.02
    --------------------------------------------
      LOOP:  cpu time  222.67: real time  331.63

 eigenvalue-minimisations  :  6372
 total energy-change (2. order) :-0.8060861E-06  (-0.3361030E-06)
 number of electron     127.9999953 magnetization 
 augmentation part        4.0322606 magnetization 

 Free energy of the ion-electron system (eV)
  ---------------------------------------------------
  alpha Z        PSCENC =        83.61433490
  Ewald energy   TEWEN  =      -644.44412501
  -Hartree energ DENC   =     -1956.23823460
  -exchange      EXHF   =         0.00000000
  -V(xc)+E(xc)   XCENC  =       437.06440821
  PAW double counting   =      2358.48461586    -2387.08936576
  entropy T*S    EENTRO =         0.00000000
  eigenvalues    EBANDS =     -1216.24507688
  atomic energy  EATOM  =      3153.63586372
  ---------------------------------------------------
  free energy    TOTEN  =      -171.21757956 eV

  energy without entropy =     -171.21757956  energy(sigma->0) =     -171.21757956


--------------------------------------------------------------------------------------------------------




 average (electrostatic) potential at core
  the test charge radii are     0.5201  0.6991
  (the norm of the test charge is              1.0000)
       1 -39.6249       2 -39.6249       3 -39.6249       4 -39.6249       5 -39.6249
       6 -39.6249       7 -39.6249       8 -39.6249       9 -39.6249      10 -39.6249
      11 -39.6249      12 -39.6249      13 -39.6249      14 -39.6249      15 -39.6249
      16 -39.6249      17 -39.6723      18 -39.6723      19 -39.6723      20 -39.6723
      21 -39.6723      22 -39.6723      23 -39.6723      24 -39.6723      25 -39.6723
      26 -39.6723      27 -39.6723      28 -39.6723      29 -39.6723      30 -39.6723
      31 -39.6723      32 -39.6723      33 -39.6385      34 -39.6385      35 -39.6385
      36 -39.6385      37 -39.6385      38 -39.6385      39 -39.6385      40 -39.6385
      41 -39.6385      42 -39.6385      43 -39.6385      44 -39.6385      45 -39.6385
      46 -39.6385      47 -39.6385      48 -39.6385      49 -39.6244      50 -39.6244
      51 -39.6244      52 -39.6244      53 -39.6244      54 -39.6244      55 -39.6244
      56 -39.6244      57 -65.2192      58 -65.2192      59 -65.2192      60 -65.2192
      61 -65.2192      62 -65.2192      63 -65.2192      64 -65.2192      65 -56.9510
      66 -56.9510      67 -56.9510      68 -56.9510      69 -56.9510      70 -56.9510
      71 -56.9510      72 -56.9510      73 -54.9671      74 -54.9671      75 -54.9671
      76 -54.9671      77 -54.9671      78 -54.9671      79 -54.9671      80 -54.9671
 
 
 
 E-fermi :  -6.0594     XC(G=0):  -6.3371     alpha+bet : -4.5734


 k-point     1 :       0.0000    0.0000    0.0000
  band No.  band energies     occupation 
      1     -17.0845      2.00000
      2     -17.0711      2.00000
      3     -17.0164      2.00000
      4     -17.0139      2.00000
      5     -16.9955      2.00000
      6     -16.9930      2.00000
      7     -16.9443      2.00000
      8     -16.9428      2.00000
      9     -15.1521      2.00000
     10     -15.1282      2.00000
     11     -15.0231      2.00000
     12     -15.0218      2.00000
     13     -15.0181      2.00000
     14     -15.0161      2.00000
     15     -14.9009      2.00000
     16     -14.8982      2.00000
     17      -9.1056      2.00000
     18      -9.0922      2.00000
     19      -8.9531      2.00000
     20      -8.9303      2.00000
     21      -8.8657      2.00000
     22      -8.8632      2.00000
     23      -8.8067      2.00000
     24      -8.7671      2.00000
     25      -7.8985      2.00000
     26      -7.8723      2.00000
     27      -7.8317      2.00000
     28      -7.5063      2.00000
     29      -7.4858      2.00000
     30      -7.4087      2.00000
     31      -7.3925      2.00000
     32      -7.3677      2.00000
     33      -7.3524      2.00000
     34      -7.3399      2.00000
     35      -7.3346      2.00000
     36      -7.3308      2.00000
     37      -7.3093      2.00000
     38      -7.2740      2.00000
     39      -7.2734      2.00000
     40      -7.2581      2.00000
     41      -7.1954      2.00000
     42      -7.1364      2.00000
     43      -7.0853      2.00000
     44      -7.0233      2.00000
     45      -6.9911      2.00000
     46      -6.9399      2.00000
     47      -6.9217      2.00000
     48      -6.8853      2.00000
     49      -6.8788      2.00000
     50      -6.8773      2.00000
     51      -6.8519      2.00000
     52      -6.8053      2.00000
     53      -6.7864      2.00000
     54      -6.7814      2.00000
     55      -6.7737      2.00000
     56      -6.7345      2.00000
     57      -6.5410      2.00000
     58      -6.4688      2.00000
     59      -6.3961      2.00000
     60      -6.3405      2.00000
     61      -6.2899      2.00000
     62      -6.2510      2.00000
     63      -6.1049      2.00000
     64      -6.1004      2.00000
     65       1.7587      0.00000
     66       3.0832      0.00000
     67       3.1758      0.00000
     68       3.2679      0.00000
     69       3.4257      0.00000
     70       3.6215      0.00000
     71       3.7490      0.00000
     72       3.8377      0.00000
     73       4.0066      0.00000
     74       4.0102      0.00000
     75       4.0827      0.00000
     76       4.1150      0.00000
     77       4.1960      0.00000
     78       4.2556      0.00000
     79       4.2574      0.00000
     80       4.7499      0.00000
     81       4.9755      0.00000
     82       5.1434      0.00000
     83       5.1615      0.00000
     84       5.2275      0.00000
     85       5.3228      0.00000
     86       5.3703      0.00000
     87       5.4079      0.00000
     88       5.4418      0.00000
     89       5.4818      0.00000
     90       5.6076      0.00000
     91       5.7947      0.00000
     92       5.9207      0.00000
     93       5.9719      0.00000
     94       6.0505      0.00000
     95       6.1181      0.00000
     96       6.3799      0.00000
     97       6.4175      0.00000
     98       6.4473      0.00000
     99       6.4793      0.00000
    100       6.5016      0.00000
    101       6.5998      0.00000
    102       6.6238      0.00000
    103       6.6422      0.00000
    104       6.8988      0.00000
    105       7.1169      0.00000
    106       7.1567      0.00000

 k-point     2 :       0.2500    0.0000    0.0000
  band No.  band energies     occupation 
      1     -17.0826      2.00000
      2     -17.0730      2.00000
      3     -17.0160      2.00000
      4     -17.0143      2.00000
      5     -16.9952      2.00000
      6     -16.9934      2.00000
      7     -16.9441      2.00000
      8     -16.9431      2.00000
      9     -15.1486      2.00000
     10     -15.1317      2.00000
     11     -15.0224      2.00000
     12     -15.0210      2.00000
     13     -15.0188      2.00000
     14     -15.0169      2.00000
     15     -14.9005      2.00000
     16     -14.8986      2.00000
     17      -9.1034      2.00000
     18      -9.0938      2.00000
     19      -8.9499      2.00000
     20      -8.9338      2.00000
     21      -8.8654      2.00000
     22      -8.8636      2.00000
     23      -8.8016      2.00000
     24      -8.7737      2.00000
     25      -7.8642      2.00000
     26      -7.8388      2.00000
     27      -7.7919      2.00000
     28      -7.6231      2.00000
     29      -7.6041      2.00000
     30      -7.5262      2.00000
     31      -7.3875      2.00000
     32      -7.3617      2.00000
     33      -7.3526      2.00000
     34      -7.3353      2.00000
     35      -7.3041      2.00000
     36      -7.2852      2.00000
     37      -7.2777      2.00000
     38      -7.2760      2.00000
     39      -7.2254      2.00000
     40      -7.2126      2.00000
     41      -7.1119      2.00000
     42      -7.0782      2.00000
     43      -7.0755      2.00000
     44      -7.0195      2.00000
     45      -6.9923      2.00000
     46      -6.9764      2.00000
     47      -6.9353      2.00000
     48      -6.9040      2.00000
     49      -6.8883      2.00000
     50      -6.8743      2.00000
     51      -6.8556      2.00000
     52      -6.8018      2.00000
     53      -6.7892      2.00000
     54      -6.7798      2.00000
     55      -6.7788      2.00000
     56      -6.7746      2.00000
     57      -6.5328      2.00000
     58      -6.4812      2.00000
     59      -6.3865      2.00000
     60      -6.3476      2.00000
     61      -6.2844      2.00000
     62      -6.2568      2.00000
     63      -6.1041      2.00000
     64      -6.1009      2.00000
     65       1.8659      0.00000
     66       2.6284      0.00000
     67       3.2522      0.00000
     68       3.4717      0.00000
     69       3.5754      0.00000
     70       3.6706      0.00000
     71       3.7017      0.00000
     72       3.8692      0.00000
     73       3.9931      0.00000
     74       3.9964      0.00000
     75       4.0021      0.00000
     76       4.0620      0.00000
     77       4.2001      0.00000
     78       4.3611      0.00000
     79       4.3927      0.00000
     80       4.8028      0.00000
     81       5.0076      0.00000
     82       5.0137      0.00000
     83       5.0983      0.00000
     84       5.1715      0.00000
     85       5.1933      0.00000
     86       5.3019      0.00000
     87       5.3193      0.00000
     88       5.3608      0.00000
     89       5.4794      0.00000
     90       5.5415      0.00000
     91       5.9675      0.00000
     92       5.9684      0.00000
     93       6.0180      0.00000
     94       6.0711      0.00000
     95       6.0955      0.00000
     96       6.2129      0.00000
     97       6.3029      0.00000
     98       6.3379      0.00000
     99       6.4623      0.00000
    100       6.5624      0.00000
    101       6.5874      0.00000
    102       6.7433      0.00000
    103       6.9238      0.00000
    104       6.9982      0.00000
    105       7.0996      0.00000
    106       7.2022      0.00000

 k-point     3 :       0.5000    0.0000    0.0000
  band No.  band energies     occupation 
      1     -17.0778      2.00000
      2     -17.0778      2.00000
      3     -17.0151      2.00000
      4     -17.0151      2.00000
      5     -16.9943      2.00000
      6     -16.9943      2.00000
      7     -16.9436      2.00000
      8     -16.9436      2.00000
      9     -15.1401      2.00000
     10     -15.1401      2.00000
     11     -15.0207      2.00000
     12     -15.0207      2.00000
     13     -15.0189      2.00000
     14     -15.0189      2.00000
     15     -14.8995      2.00000
     16     -14.8995      2.00000
     17      -9.0983      2.00000
     18      -9.0983      2.00000
     19      -8.9419      2.00000
     20      -8.9419      2.00000
     21      -8.8646      2.00000
     22      -8.8646      2.00000
     23      -8.7884      2.00000
     24      -8.7884      2.00000
     25      -7.7667      2.00000
     26      -7.7667      2.00000
     27      -7.7438      2.00000
     28      -7.7438      2.00000
     29      -7.6817      2.00000
     30      -7.6817      2.00000
     31      -7.3749      2.00000
     32      -7.3749      2.00000
     33      -7.3447      2.00000
     34      -7.3447      2.00000
     35      -7.2939      2.00000
     36      -7.2939      2.00000
     37      -7.2894      2.00000
     38      -7.2894      2.00000
     39      -7.0816      2.00000
     40      -7.0816      2.00000
     41      -7.0789      2.00000
     42      -7.0789      2.00000
     43      -7.0502      2.00000
     44      -7.0502      2.00000
     45      -7.0113      2.00000
     46      -7.0113      2.00000
     47      -6.8989      2.00000
     48      -6.8989      2.00000
     49      -6.8974      2.00000
     50      -6.8974      2.00000
     51      -6.8645      2.00000
     52      -6.8645      2.00000
     53      -6.7954      2.00000
     54      -6.7954      2.00000
     55      -6.7768      2.00000
     56      -6.7768      2.00000
     57      -6.5091      2.00000
     58      -6.5091      2.00000
     59      -6.3660      2.00000
     60      -6.3660      2.00000
     61      -6.2708      2.00000
     62      -6.2708      2.00000
     63      -6.1024      2.00000
     64      -6.1024      2.00000
     65       2.1714      0.00000
     66       2.1714      0.00000
     67       3.4333      0.00000
     68       3.4333      0.00000
     69       3.5857      0.00000
     70       3.5857      0.00000
     71       3.9330      0.00000
     72       3.9330      0.00000
     73       3.9383      0.00000
     74       3.9383      0.00000
     75       3.9427      0.00000
     76       3.9427      0.00000
     77       4.3803      0.00000
     78       4.3803      0.00000
     79       4.6671      0.00000
     80       4.6671      0.00000
     81       4.9539      0.00000
     82       4.9539      0.00000
     83       5.1150      0.00000
     84       5.1150      0.00000
     85       5.1627      0.00000
     86       5.1627      0.00000
     87       5.2412      0.00000
     88       5.2412      0.00000
     89       5.4744      0.00000
     90       5.4744      0.00000
     91       5.9447      0.00000
     92       5.9447      0.00000
     93       6.1303      0.00000
     94       6.1303      0.00000
     95       6.2005      0.00000
     96       6.2005      0.00000
     97       6.3153      0.00000
     98       6.3153      0.00000
     99       6.4191      0.00000
    100       6.4191      0.00000
    101       6.5936      0.00000
    102       6.5936      0.00000
    103       7.0006      0.00000
    104       7.0006      0.00000
    105       7.5138      0.00000
    106       7.5420      0.00000

 k-point     4 :       0.0000    0.2500    0.0000
  band No.  band energies     occupation 
      1     -17.0718      2.00000
      2     -17.0598      2.00000
      3     -17.0088      2.00000
      4     -17.0060      2.00000
      5     -17.0046      2.00000
      6     -17.0037      2.00000
      7     -16.9550      2.00000
      8     -16.9534      2.00000
      9     -15.1329      2.00000
     10     -15.1131      2.00000
     11     -15.0378      2.00000
     12     -15.0367      2.00000
     13     -15.0057      2.00000
     14     -15.0011      2.00000
     15     -14.9194      2.00000
     16     -14.9163      2.00000
     17      -9.0717      2.00000
     18      -9.0591      2.00000
     19      -8.9243      2.00000
     20      -8.9065      2.00000
     21      -8.9039      2.00000
     22      -8.8990      2.00000
     23      -8.8151      2.00000
     24      -8.7927      2.00000
     25      -7.8270      2.00000
     26      -7.8233      2.00000
     27      -7.7860      2.00000
     28      -7.5115      2.00000
     29      -7.4804      2.00000
     30      -7.4733      2.00000
     31      -7.4697      2.00000
     32      -7.4435      2.00000
     33      -7.3566      2.00000
     34      -7.3379      2.00000
     35      -7.3297      2.00000
     36      -7.2787      2.00000
     37      -7.2737      2.00000
     38      -7.2532      2.00000
     39      -7.2102      2.00000
     40      -7.1872      2.00000
     41      -7.1869      2.00000
     42      -7.0810      2.00000
     43      -7.0563      2.00000
     44      -7.0360      2.00000
     45      -6.9824      2.00000
     46      -6.9623      2.00000
     47      -6.9390      2.00000
     48      -6.9002      2.00000
     49      -6.8929      2.00000
     50      -6.8902      2.00000
     51      -6.8816      2.00000
     52      -6.8680      2.00000
     53      -6.8523      2.00000
     54      -6.7989      2.00000
     55      -6.7917      2.00000
     56      -6.7602      2.00000
     57      -6.5148      2.00000
     58      -6.4472      2.00000
     59      -6.3531      2.00000
     60      -6.3400      2.00000
     61      -6.3119      2.00000
     62      -6.2910      2.00000
     63      -6.1495      2.00000
     64      -6.1450      2.00000
     65       1.9602      0.00000
     66       3.1755      0.00000
     67       3.2312      0.00000
     68       3.4003      0.00000
     69       3.4079      0.00000
     70       3.5926      0.00000
     71       3.6941      0.00000
     72       3.7375      0.00000
     73       3.8372      0.00000
     74       3.9525      0.00000
     75       4.1868      0.00000
     76       4.2435      0.00000
     77       4.3203      0.00000
     78       4.4685      0.00000
     79       4.5427      0.00000
     80       4.8415      0.00000
     81       5.0229      0.00000
     82       5.0811      0.00000
     83       5.0884      0.00000
[...]
 -----------------------------------------------------------------------------------------------
   -.343E+02 -.199E+02 0.136E+02   0.388E+02 0.225E+02 -.155E+02   -.453E+01 -.258E+01 0.192E+01   0.758E-05 -.249E-04 0.262E-04
   0.343E+02 0.199E+02 -.136E+02   -.388E+02 -.225E+02 0.155E+02   0.453E+01 0.258E+01 -.192E+01   -.758E-05 0.249E-04 -.262E-04
   0.343E+02 0.199E+02 0.136E+02   -.388E+02 -.225E+02 -.155E+02   0.453E+01 0.258E+01 0.192E+01   -.758E-05 0.249E-04 0.262E-04
   -.343E+02 -.199E+02 -.136E+02   0.388E+02 0.225E+02 0.155E+02   -.453E+01 -.258E+01 -.192E+01   0.758E-05 -.249E-04 -.262E-04
   0.343E+02 -.199E+02 -.136E+02   -.388E+02 0.225E+02 0.155E+02   0.453E+01 -.258E+01 -.192E+01   -.758E-05 -.249E-04 -.262E-04
   -.343E+02 0.199E+02 0.136E+02   0.388E+02 -.225E+02 -.155E+02   -.453E+01 0.258E+01 0.192E+01   0.758E-05 0.249E-04 0.262E-04
   -.343E+02 0.199E+02 -.136E+02   0.388E+02 -.225E+02 0.155E+02   -.453E+01 0.258E+01 -.192E+01   0.758E-05 0.249E-04 -.262E-04
   0.343E+02 -.199E+02 0.136E+02   -.388E+02 0.225E+02 -.155E+02   0.453E+01 -.258E+01 0.192E+01   -.758E-05 -.249E-04 0.262E-04
   -.343E+02 -.199E+02 0.136E+02   0.388E+02 0.225E+02 -.155E+02   -.453E+01 -.258E+01 0.192E+01   0.758E-05 -.249E-04 0.262E-04
   0.343E+02 0.199E+02 -.136E+02   -.388E+02 -.225E+02 0.155E+02   0.453E+01 0.258E+01 -.192E+01   -.758E-05 0.249E-04 -.262E-04
   0.343E+02 0.199E+02 0.136E+02   -.388E+02 -.225E+02 -.155E+02   0.453E+01 0.258E+01 0.192E+01   -.758E-05 0.249E-04 0.262E-04
   -.343E+02 -.199E+02 -.136E+02   0.388E+02 0.225E+02 0.155E+02   -.453E+01 -.258E+01 -.192E+01   0.758E-05 -.249E-04 -.262E-04
   0.343E+02 -.199E+02 -.136E+02   -.388E+02 0.225E+02 0.155E+02   0.453E+01 -.258E+01 -.192E+01   -.758E-05 -.249E-04 -.262E-04
   -.343E+02 0.199E+02 0.136E+02   0.388E+02 -.225E+02 -.155E+02   -.453E+01 0.258E+01 0.192E+01   0.758E-05 0.249E-04 0.262E-04
   -.343E+02 0.199E+02 -.136E+02   0.388E+02 -.225E+02 0.155E+02   -.453E+01 0.258E+01 -.192E+01   0.758E-05 0.249E-04 -.262E-04
   0.343E+02 -.199E+02 0.136E+02   -.388E+02 0.225E+02 -.155E+02   0.453E+01 -.258E+01 0.192E+01   -.758E-05 -.249E-04 0.262E-04
   -.243E+02 -.270E+02 0.232E+02   0.275E+02 0.305E+02 -.261E+02   -.321E+01 -.347E+01 0.290E+01   0.258E-04 -.439E-04 0.358E-04
   0.243E+02 0.270E+02 -.232E+02   -.275E+02 -.305E+02 0.261E+02   0.321E+01 0.347E+01 -.290E+01   -.258E-04 0.439E-04 -.358E-04
   0.243E+02 0.270E+02 0.232E+02   -.275E+02 -.305E+02 -.261E+02   0.321E+01 0.347E+01 0.290E+01   -.258E-04 0.439E-04 0.358E-04
   -.243E+02 -.270E+02 -.232E+02   0.275E+02 0.305E+02 0.261E+02   -.321E+01 -.347E+01 -.290E+01   0.258E-04 -.439E-04 -.358E-04
   0.243E+02 -.270E+02 -.232E+02   -.275E+02 0.305E+02 0.261E+02   0.321E+01 -.347E+01 -.290E+01   -.258E-04 -.439E-04 -.358E-04
   -.243E+02 0.270E+02 0.232E+02   0.275E+02 -.305E+02 -.261E+02   -.321E+01 0.347E+01 0.290E+01   0.258E-04 0.439E-04 0.358E-04
   -.243E+02 0.270E+02 -.232E+02   0.275E+02 -.305E+02 0.261E+02   -.321E+01 0.347E+01 -.290E+01   0.258E-04 0.439E-04 -.358E-04
   0.243E+02 -.270E+02 0.232E+02   -.275E+02 0.305E+02 -.261E+02   0.321E+01 -.347E+01 0.290E+01   -.258E-04 -.439E-04 0.358E-04
   -.243E+02 -.270E+02 0.232E+02   0.275E+02 0.305E+02 -.261E+02   -.321E+01 -.347E+01 0.290E+01   0.258E-04 -.439E-04 0.358E-04
   0.243E+02 0.270E+02 -.232E+02   -.275E+02 -.305E+02 0.261E+02   0.321E+01 0.347E+01 -.290E+01   -.258E-04 0.439E-04 -.358E-04
   0.243E+02 0.270E+02 0.232E+02   -.275E+02 -.305E+02 -.261E+02   0.321E+01 0.347E+01 0.290E+01   -.258E-04 0.439E-04 0.358E-04
   -.243E+02 -.270E+02 -.232E+02   0.275E+02 0.305E+02 0.261E+02   -.321E+01 -.347E+01 -.290E+01   0.258E-04 -.439E-04 -.358E-04
   0.243E+02 -.270E+02 -.232E+02   -.275E+02 0.305E+02 0.261E+02   0.321E+01 -.347E+01 -.290E+01   -.258E-04 -.439E-04 -.358E-04
   -.243E+02 0.270E+02 0.232E+02   0.275E+02 -.305E+02 -.261E+02   -.321E+01 0.347E+01 0.290E+01   0.258E-04 0.439E-04 0.358E-04
   -.243E+02 0.270E+02 -.232E+02   0.275E+02 -.305E+02 0.261E+02   -.321E+01 0.347E+01 -.290E+01   0.258E-04 0.439E-04 -.358E-04
   0.243E+02 -.270E+02 0.232E+02   -.275E+02 0.305E+02 -.261E+02   0.321E+01 -.347E+01 0.290E+01   -.258E-04 -.439E-04 0.358E-04
   0.246E+02 -.225E+02 -.274E+02   -.277E+02 0.254E+02 0.309E+02   0.319E+01 -.289E+01 -.349E+01   0.608E-04 -.155E-04 -.912E-05
   -.246E+02 0.225E+02 0.274E+02   0.277E+02 -.254E+02 -.309E+02   -.319E+01 0.289E+01 0.349E+01   -.608E-04 0.155E-04 0.912E-05
   -.246E+02 0.225E+02 -.274E+02   0.277E+02 -.254E+02 0.309E+02   -.319E+01 0.289E+01 -.349E+01   -.608E-04 0.155E-04 -.912E-05
   0.246E+02 -.225E+02 0.274E+02   -.277E+02 0.254E+02 -.309E+02   0.319E+01 -.289E+01 0.349E+01   0.608E-04 -.155E-04 0.912E-05
   -.246E+02 -.225E+02 0.274E+02   0.277E+02 0.254E+02 -.309E+02   -.319E+01 -.289E+01 0.349E+01   -.608E-04 -.155E-04 0.912E-05
   0.246E+02 0.225E+02 -.274E+02   -.277E+02 -.254E+02 0.309E+02   0.319E+01 0.289E+01 -.349E+01   0.608E-04 0.155E-04 -.912E-05
   0.246E+02 0.225E+02 0.274E+02   -.277E+02 -.254E+02 -.309E+02   0.319E+01 0.289E+01 0.349E+01   0.608E-04 0.155E-04 0.912E-05
   -.246E+02 -.225E+02 -.274E+02   0.277E+02 0.254E+02 0.309E+02   -.319E+01 -.289E+01 -.349E+01   -.608E-04 -.155E-04 -.912E-05
   0.246E+02 -.225E+02 -.274E+02   -.277E+02 0.254E+02 0.309E+02   0.319E+01 -.289E+01 -.349E+01   0.608E-04 -.155E-04 -.912E-05
   -.246E+02 0.225E+02 0.274E+02   0.277E+02 -.254E+02 -.309E+02   -.319E+01 0.289E+01 0.349E+01   -.608E-04 0.155E-04 0.912E-05
   -.246E+02 0.225E+02 -.274E+02   0.277E+02 -.254E+02 0.309E+02   -.319E+01 0.289E+01 -.349E+01   -.608E-04 0.155E-04 -.912E-05
   0.246E+02 -.225E+02 0.274E+02   -.277E+02 0.254E+02 -.309E+02   0.319E+01 -.289E+01 0.349E+01   0.608E-04 -.155E-04 0.912E-05
   -.246E+02 -.225E+02 0.274E+02   0.277E+02 0.254E+02 -.309E+02   -.319E+01 -.289E+01 0.349E+01   -.608E-04 -.155E-04 0.912E-05
   0.246E+02 0.225E+02 -.274E+02   -.277E+02 -.254E+02 0.309E+02   0.319E+01 0.289E+01 -.349E+01   0.608E-04 0.155E-04 -.912E-05
   0.246E+02 0.225E+02 0.274E+02   -.277E+02 -.254E+02 -.309E+02   0.319E+01 0.289E+01 0.349E+01   0.608E-04 0.155E-04 0.912E-05
   -.246E+02 -.225E+02 -.274E+02   0.277E+02 0.254E+02 0.309E+02   -.319E+01 -.289E+01 -.349E+01   -.608E-04 -.155E-04 -.912E-05
   0.158E-07 0.410E+02 0.129E+02   -.730E-06 -.463E+02 -.146E+02   0.141E-22 0.527E+01 0.172E+01   -.291E-10 -.366E-03 -.107E-03
   0.158E-07 -.410E+02 -.129E+02   -.730E-06 0.463E+02 0.146E+02   0.265E-22 -.527E+01 -.172E+01   -.291E-10 0.366E-03 0.107E-03
   0.158E-07 -.410E+02 0.129E+02   -.730E-06 0.463E+02 -.146E+02   -.265E-22 -.527E+01 0.172E+01   -.291E-10 0.366E-03 -.107E-03
   0.158E-07 0.410E+02 -.129E+02   -.730E-06 -.463E+02 0.146E+02   -.132E-22 0.527E+01 -.172E+01   -.291E-10 -.366E-03 0.107E-03
   -.169E-07 0.410E+02 0.129E+02   0.779E-06 -.463E+02 -.146E+02   0.132E-22 0.527E+01 0.172E+01   0.660E-10 -.366E-03 -.107E-03
   -.169E-07 -.410E+02 -.129E+02   0.779E-06 0.463E+02 0.146E+02   0.662E-23 -.527E+01 -.172E+01   0.660E-10 0.366E-03 0.107E-03
   -.169E-07 -.410E+02 0.129E+02   0.779E-06 0.463E+02 -.146E+02   -.662E-23 -.527E+01 0.172E+01   0.660E-10 0.366E-03 -.107E-03
   -.169E-07 0.410E+02 -.129E+02   0.779E-06 -.463E+02 0.146E+02   -.132E-22 0.527E+01 -.172E+01   0.660E-10 -.366E-03 0.107E-03
   0.164E-07 0.613E+00 0.419E+02   -.756E-06 -.727E+00 -.474E+02   0.106E-21 0.121E+00 0.552E+01   -.334E-10 0.766E-05 -.187E-03
   0.164E-07 -.613E+00 -.419E+02   -.756E-06 0.727E+00 0.474E+02   0.000E+00 -.121E+00 -.552E+01   -.334E-10 -.766E-05 0.187E-03
   0.164E-07 -.613E+00 0.419E+02   -.756E-06 0.727E+00 -.474E+02   0.265E-22 -.121E+00 0.552E+01   -.334E-10 -.766E-05 -.187E-03
   0.164E-07 0.613E+00 -.419E+02   -.756E-06 -.727E+00 0.474E+02   -.106E-21 0.121E+00 -.552E+01   -.335E-10 0.766E-05 0.187E-03
   -.176E-07 0.613E+00 0.419E+02   0.811E-06 -.727E+00 -.474E+02   -.106E-21 0.121E+00 0.552E+01   0.721E-10 0.766E-05 -.187E-03
   -.176E-07 -.613E+00 -.419E+02   0.811E-06 0.727E+00 0.474E+02   -.318E-21 -.121E+00 -.552E+01   0.721E-10 -.766E-05 0.187E-03
   -.176E-07 -.613E+00 0.419E+02   0.811E-06 0.727E+00 -.474E+02   -.794E-22 -.121E+00 0.552E+01   0.721E-10 -.766E-05 -.187E-03
   -.176E-07 0.613E+00 -.419E+02   0.811E-06 -.727E+00 0.474E+02   -.159E-21 0.121E+00 -.552E+01   0.721E-10 0.766E-05 0.187E-03
   -.178E-06 -.580E+00 0.218E+01   0.890E-05 0.561E+00 -.206E+01   -.466E-20 0.616E-02 -.138E+00   -.557E-09 0.459E-04 -.116E-03
   -.178E-06 0.580E+00 -.218E+01   0.890E-05 -.561E+00 0.206E+01   -.381E-20 -.616E-02 0.138E+00   -.557E-09 -.459E-04 0.116E-03
   -.178E-06 0.580E+00 0.218E+01   0.890E-05 -.561E+00 -.206E+01   0.339E-20 -.616E-02 -.138E+00   -.557E-09 -.459E-04 -.116E-03
   -.178E-06 -.580E+00 -.218E+01   0.890E-05 0.561E+00 0.206E+01   0.508E-20 0.616E-02 0.138E+00   -.557E-09 0.459E-04 0.116E-03
   0.250E-06 -.580E+00 0.218E+01   -.125E-04 0.561E+00 -.206E+01   -.254E-20 0.616E-02 -.138E+00   0.847E-09 0.459E-04 -.116E-03
   0.250E-06 0.580E+00 -.218E+01   -.125E-04 -.561E+00 0.206E+01   0.318E-20 -.616E-02 0.138E+00   0.847E-09 -.459E-04 0.116E-03
   0.250E-06 0.580E+00 0.218E+01   -.125E-04 -.561E+00 -.206E+01   -.339E-20 -.616E-02 -.138E+00   0.847E-09 -.459E-04 -.116E-03
   0.250E-06 -.580E+00 -.218E+01   -.125E-04 0.561E+00 0.206E+01   0.169E-20 0.616E-02 0.138E+00   0.847E-09 0.459E-04 0.116E-03
   0.992E+00 -.318E-09 0.249E-07   -.934E+00 -.176E-06 -.933E-06   -.595E-01 0.000E+00 -.254E-20   0.196E-03 0.329E-10 0.173E-09
   -.992E+00 0.803E-08 0.183E-07   0.934E+00 -.176E-06 -.933E-06   0.595E-01 -.424E-21 0.169E-20   -.196E-03 0.327E-10 0.172E-09
   -.992E+00 -.126E-08 -.188E-07   0.934E+00 -.138E-06 0.692E-06   0.595E-01 -.265E-22 0.000E+00   -.196E-03 0.685E-11 -.177E-09
   0.992E+00 0.709E-08 -.122E-07   -.934E+00 -.138E-06 0.692E-06   -.595E-01 -.371E-21 0.508E-20   0.196E-03 0.680E-11 -.176E-09
   0.992E+00 -.321E-09 0.249E-07   -.934E+00 -.176E-06 -.933E-06   -.595E-01 0.000E+00 0.847E-21   0.196E-03 0.329E-10 0.172E-09
   -.992E+00 0.803E-08 0.183E-07   0.934E+00 -.176E-06 -.933E-06   0.595E-01 -.424E-21 0.000E+00   -.196E-03 0.327E-10 0.171E-09
   -.992E+00 -.126E-08 -.188E-07   0.934E+00 -.138E-06 0.692E-06   0.595E-01 -.265E-22 0.000E+00   -.196E-03 0.717E-11 -.177E-09
   0.992E+00 0.709E-08 -.122E-07   -.934E+00 -.138E-06 0.692E-06   -.595E-01 -.424E-21 0.508E-20   0.196E-03 0.698E-11 -.177E-09
 -----------------------------------------------------------------------------------------------
   0.107E-04 -.453E-04 0.915E-04   0.866E-14 0.449E-13 -.338E-14   0.223E-14 0.266E-14 0.102E-19   0.121E-08 0.106E-08 -.397E-09
 
 
 POSITION                                       TOTAL-FORCE (eV/Angst)
 -----------------------------------------------------------------------------------
      0.89380      6.38676      1.22697         0.004119      0.001704      0.009643
     10.57510      1.63537      6.79016        -0.004119     -0.001704     -0.009643
     10.57510      5.64643      5.23553        -0.004119     -0.001704      0.009643
      0.89380      2.37570      2.78159         0.004119      0.001704     -0.009643
     10.57510      2.37570      2.78159        -0.004119      0.001704     -0.009643
      0.89380      5.64643      5.23553         0.004119     -0.001704      0.009643
      0.89380      1.63537      6.79016         0.004119     -0.001704     -0.009643
     10.57510      6.38676      1.22697        -0.004119      0.001704      0.009643
      6.62824      2.37570      1.22697         0.004119      0.001704      0.009643
      4.84065      5.64643      6.79016        -0.004119     -0.001704     -0.009643
      4.84065      1.63537      5.23553        -0.004119     -0.001704      0.009643
      6.62824      6.38676      2.78159         0.004119      0.001704     -0.009643
      4.84065      6.38676      2.78159        -0.004119      0.001704     -0.009643
      6.62824      1.63537      5.23553         0.004119     -0.001704      0.009643
      6.62824      5.64643      6.79016         0.004119     -0.001704     -0.009643
      4.84065      2.37570      1.22697        -0.004119      0.001704      0.009643
      9.23330      4.69689      7.44476        -0.001056      0.005313     -0.005680
      2.23559      3.32523      0.57237         0.001056     -0.005313      0.005680
      2.23559      7.33630      3.43620         0.001056     -0.005313     -0.005680
      9.23330      0.68583      4.58093        -0.001056      0.005313      0.005680
      2.23559      0.68583      4.58093         0.001056      0.005313      0.005680
      9.23330      7.33630      3.43620        -0.001056     -0.005313     -0.005680
      9.23330      3.32523      0.57237        -0.001056     -0.005313      0.005680
      2.23559      4.69689      7.44476         0.001056      0.005313     -0.005680
      3.49886      0.68583      7.44476        -0.001056      0.005313     -0.005680
      7.97004      7.33630      0.57237         0.001056     -0.005313      0.005680
      7.97004      3.32523      3.43620         0.001056     -0.005313     -0.005680
      3.49886      4.69689      4.58093        -0.001056      0.005313      0.005680
      7.97004      4.69689      4.58093         0.001056      0.005313      0.005680
      3.49886      3.32523      3.43620        -0.001056     -0.005313     -0.005680
      3.49886      7.33630      0.57237        -0.001056     -0.005313      0.005680
      7.97004      0.68583      7.44476         0.001056      0.005313     -0.005680
      7.96885      4.58351      0.68831         0.002038      0.003179      0.006962
      3.50005      3.43862      7.32881        -0.002038     -0.003179     -0.006962
      3.50005      7.44968      4.69688        -0.002038     -0.003179      0.006962
      7.96885      0.57244      3.32025         0.002038      0.003179     -0.006962
      3.50005      0.57244      3.32025        -0.002038      0.003179     -0.006962
      7.96885      7.44968      4.69688         0.002038     -0.003179      0.006962
      7.96885      3.43862      7.32881         0.002038     -0.003179     -0.006962
      3.50005      4.58351      0.68831        -0.002038      0.003179      0.006962
      2.23440      0.57244      0.68831         0.002038      0.003179      0.006962
      9.23449      7.44968      7.32881        -0.002038     -0.003179     -0.006962
      9.23449      3.43862      4.69688        -0.002038     -0.003179      0.006962
      2.23440      4.58351      3.32025         0.002038      0.003179     -0.006962
      9.23449      4.58351      3.32025        -0.002038      0.003179     -0.006962
      2.23440      3.43862      4.69688         0.002038     -0.003179      0.006962
      2.23440      7.44968      7.32881         0.002038     -0.003179     -0.006962
      9.23449      0.57244      0.68831        -0.002038      0.003179      0.006962
     -0.00000      4.83761      1.26353         0.000000      0.005212      0.017257
     -0.00000      3.18452      6.75360         0.000000     -0.005212     -0.017257
     -0.00000      7.19558      5.27210         0.000000     -0.005212      0.017257
     -0.00000      0.82654      2.74503         0.000000      0.005212     -0.017257
      5.73445      0.82654      1.26353         0.000000      0.005212      0.017257
      5.73445      7.19558      6.75360         0.000000     -0.005212     -0.017257
      5.73445      3.18452      5.27210         0.000000     -0.005212      0.017257
      5.73445      4.83761      2.74503         0.000000      0.005212     -0.017257
     -0.00000      2.11807      5.31711         0.000000      0.006814      0.009445
     -0.00000      5.90406     -5.31711         0.000000     -0.006814     -0.009445
     -0.00000      1.89299      1.30854         0.000000     -0.006814      0.009445
     -0.00000     -1.89299     -1.30854         0.000000      0.006814     -0.009445
      5.73445     -1.89299      5.31711         0.000000      0.006814      0.009445
      5.73445      1.89299     -5.31711         0.000000     -0.006814     -0.009445
      5.73445      5.90406      1.30854         0.000000     -0.006814      0.009445
      5.73445      2.11807     -1.30854         0.000000      0.006814     -0.009445
     -0.00000      1.86778     -5.61267         0.000000     -0.013930     -0.024507
     -0.00000      6.15434      5.61267         0.000000      0.013930      0.024507
     -0.00000      2.14328     -1.60410         0.000000      0.013930     -0.024507
     -0.00000     -2.14328      1.60410         0.000000     -0.013930      0.024507
      5.73445     -2.14328     -5.61267         0.000000     -0.013930     -0.024507
      5.73445      2.14328      5.61267         0.000000      0.013930      0.024507
      5.73445      6.15434     -1.60410         0.000000      0.013930     -0.024507
      5.73445      1.86778      1.60410         0.000000     -0.013930      0.024507
      8.60004      4.01106     -0.00000         0.000684      0.000000     -0.000000
      2.86885      4.01106     -0.00000        -0.000684      0.000000     -0.000000
      2.86885      0.00000      4.00856        -0.000684      0.000000     -0.000000
      8.60004      0.00000      4.00856         0.000684      0.000000     -0.000000
      2.86560      0.00000     -0.00000         0.000684      0.000000     -0.000000
      8.60330      0.00000     -0.00000        -0.000684      0.000000     -0.000000
      8.60330      4.01106      4.00856        -0.000684      0.000000     -0.000000
      2.86560      4.01106      4.00856         0.000684      0.000000     -0.000000
 -----------------------------------------------------------------------------------
    total drift:                                0.000011     -0.000045      0.000092


--------------------------------------------------------------------------------------------------------



  FREE ENERGIE OF THE ION-ELECTRON SYSTEM (eV)
  ---------------------------------------------------
  free  energy   TOTEN  =      -387.47667735 eV

  energy  without entropy=     -387.47667735  energy(sigma->0) =     -387.47667735
 
 d Force = 0.3076547E-03[ 0.684E-05, 0.608E-03]  d Energy = 0.3015333E-03 0.612E-05
 d Force = 0.3270950E+00[ 0.326E+00, 0.328E+00]  d Ewald  = 0.3270943E+00 0.731E-06


--------------------------------------------------------------------------------------------------------


    POTLOK:  cpu time    0.55: real time    0.91


--------------------------------------------------------------------------------------------------------




--------------------------------------------------------------------------------------------------------


  
 reached required accuracy - stopping structural energy minimisation
     LOOP+:  cpu time 1164.29: real time 1733.28
    4ORBIT:  cpu time    0.00: real time    0.00
 BZINTS: Fermi energy: -5.953989;128.000000 electrons
         Band energy:***********;  BLOECHL correction:  0.000000

 total amount of memory used by VASP on root node   411699. kBytes
========================================================================

   base      :      30000. kBytes
   nonl-proj :      58499. kBytes
   fftplans  :      13554. kBytes
   grid      :      21584. kBytes
   one-center:        122. kBytes
   wavefun   :     287940. kBytes
 
  
  
 General timing and accounting informations for this job:
 ========================================================
  
                  Total CPU time used (sec):    57635.211
                            User time (sec):    41370.491
                          System time (sec):    16264.720
                         Elapsed time (sec):    97467.762
  
                   Maximum memory used (kb):      583428.
                   Average memory used (kb):           0.
  
                          Minor page faults:    386717043
                          Major page faults:            0
                 Voluntary context switches:         4558
