# Thermal properties / unit cell (natom)

unit:
  temperature:   K
  free_energy:   kJ/mol
  entropy:       J/K/mol
  heat_capacity: J/K/mol

natom:     2
num_modes: 1944
num_integrated_modes: 1944

zero_point_energy:      33.0976486
high_T_entropy:        110.8897178

thermal_properties:
- temperature:         0.0000000
  free_energy:        33.0976486
  entropy:             0.0000000
  heat_capacity:       0.0000000
  energy:             33.0976486

- temperature:        10.0000000
  free_energy:        33.0976486
  entropy:             0.0000000
  heat_capacity:       0.0000000
  energy:             33.0976486

- temperature:        20.0000000
  free_energy:        33.0976486
  entropy:             0.0000070
  heat_capacity:       0.0000851
  energy:             33.0976487

- temperature:        30.0000000
  free_energy:        33.0976474
  entropy:             0.0004040
  heat_capacity:       0.0032888
  energy:             33.0976595

- temperature:        40.0000000
  free_energy:        33.0976328
  entropy:             0.0031412
  heat_capacity:       0.0195723
  energy:             33.0977584

- temperature:        50.0000000
  free_energy:        33.0975669
  entropy:             0.0111478
  heat_capacity:       0.0577284
  energy:             33.0981243

- temperature:        60.0000000
  free_energy:        33.0973837
  entropy:             0.0269895
  heat_capacity:       0.1228933
  energy:             33.0990030

- temperature:        70.0000000
  free_energy:        33.0969940
  entropy:             0.0527721
  heat_capacity:       0.2198558
  energy:             33.1006880

- temperature:        80.0000000
  free_energy:        33.0962885
  entropy:             0.0904606
  heat_capacity:       0.3544017
  energy:             33.1035254

- temperature:        90.0000000
  free_energy:        33.0951385
  entropy:             0.1420364
  heat_capacity:       0.5326212
  energy:             33.1079217

- temperature:       100.0000000
  free_energy:        33.0933950
  entropy:             0.2094591
  heat_capacity:       0.7597041
  energy:             33.1143409

- temperature:       110.0000000
  free_energy:        33.0908904
  entropy:             0.2945481
  heat_capacity:       1.0391780
  energy:             33.1232907

- temperature:       120.0000000
  free_energy:        33.0874398
  entropy:             0.3988766
  heat_capacity:       1.3727807
  energy:             33.1353050

- temperature:       130.0000000
  free_energy:        33.0828444
  entropy:             0.5237166
  heat_capacity:       1.7607402
  energy:             33.1509276

- temperature:       140.0000000
  free_energy:        33.0768939
  entropy:             0.6700306
  heat_capacity:       2.2021773
  energy:             33.1706982

- temperature:       150.0000000
  free_energy:        33.0693700
  entropy:             0.8384935
  heat_capacity:       2.6954504
  energy:             33.1951440

- temperature:       160.0000000
  free_energy:        33.0600488
  entropy:             1.0295249
  heat_capacity:       3.2383820
  energy:             33.2247728

- temperature:       170.0000000
  free_energy:        33.0487035
  entropy:             1.2433235
  heat_capacity:       3.8283789
  energy:             33.2600685

- temperature:       180.0000000
  free_energy:        33.0351064
  entropy:             1.4798947
  heat_capacity:       4.4624884
  energy:             33.3014874

- temperature:       190.0000000
  free_energy:        33.0190303
  entropy:             1.7390746
  heat_capacity:       5.1374289
  energy:             33.3494544

- temperature:       200.0000000
  free_energy:        33.0002506
  entropy:             2.0205482
  heat_capacity:       5.8496218
  energy:             33.4043602

- temperature:       210.0000000
  free_energy:        32.9785465
  entropy:             2.3238658
  heat_capacity:       6.5952369
  energy:             33.4665583

- temperature:       220.0000000
  free_energy:        32.9537023
  entropy:             2.6484575
  heat_capacity:       7.3702530
  energy:             33.5363630

- temperature:       230.0000000
  free_energy:        32.9255087
  entropy:             2.9936475
  heat_capacity:       8.1705310
  energy:             33.6140476

- temperature:       240.0000000
  free_energy:        32.8937633
  entropy:             3.3586691
  heat_capacity:       8.9918908
  energy:             33.6998439

- temperature:       250.0000000
  free_energy:        32.8582720
  entropy:             3.7426795
  heat_capacity:       9.8301881
  energy:             33.7939418

- temperature:       260.0000000
  free_energy:        32.8188494
  entropy:             4.1447739
  heat_capacity:      10.6813847
  energy:             33.8964906

- temperature:       270.0000000
  free_energy:        32.7753194
  entropy:             4.5640008
  heat_capacity:      11.5416084
  energy:             34.0075996

- temperature:       280.0000000
  free_energy:        32.7275155
  entropy:             4.9993753
  heat_capacity:      12.4072019
  energy:             34.1273406

- temperature:       290.0000000
  free_energy:        32.6752814
  entropy:             5.4498922
  heat_capacity:      13.2747592
  energy:             34.2557502

- temperature:       300.0000000
  free_energy:        32.6184706
  entropy:             5.9145377
  heat_capacity:      14.1411504
  energy:             34.3928319

- temperature:       310.0000000
  free_energy:        32.5569469
  entropy:             6.3922995
  heat_capacity:      15.0035356
  energy:             34.5385598

- temperature:       320.0000000
  free_energy:        32.4905842
  entropy:             6.8821766
  heat_capacity:      15.8593703
  energy:             34.6928807

- temperature:       330.0000000
  free_energy:        32.4192663
  entropy:             7.3831864
  heat_capacity:      16.7064024
  energy:             34.8557178

- temperature:       340.0000000
  free_energy:        32.3428866
  entropy:             7.8943714
  heat_capacity:      17.5426643
  energy:             35.0269729

- temperature:       350.0000000
  free_energy:        32.2613480
  entropy:             8.4148042
  heat_capacity:      18.3664595
  energy:             35.2065295

- temperature:       360.0000000
  free_energy:        32.1745627
  entropy:             8.9435917
  heat_capacity:      19.1763466
  energy:             35.3942557

- temperature:       370.0000000
  free_energy:        32.0824512
  entropy:             9.4798779
  heat_capacity:      19.9711215
  energy:             35.5900060

- temperature:       380.0000000
  free_energy:        31.9849428
  entropy:            10.0228463
  heat_capacity:      20.7497977
  energy:             35.7936244

- temperature:       390.0000000
  free_energy:        31.8819746
  entropy:            10.5717207
  heat_capacity:      21.5115869
  energy:             36.0049457

- temperature:       400.0000000
  free_energy:        31.7734912
  entropy:            11.1257666
  heat_capacity:      22.2558794
  energy:             36.2237978

- temperature:       410.0000000
  free_energy:        31.6594444
  entropy:            11.6842904
  heat_capacity:      22.9822251
  energy:             36.4500034

- temperature:       420.0000000
  free_energy:        31.5397926
  entropy:            12.2466400
  heat_capacity:      23.6903156
  energy:             36.6833814

- temperature:       430.0000000
  free_energy:        31.4145008
  entropy:            12.8122033
  heat_capacity:      24.3799671
  energy:             36.9237483

- temperature:       440.0000000
  free_energy:        31.2835398
  entropy:            13.3804075
  heat_capacity:      25.0511048
  energy:             37.1709191

- temperature:       450.0000000
  free_energy:        31.1468857
  entropy:            13.9507178
  heat_capacity:      25.7037480
  energy:             37.4247087

- temperature:       460.0000000
  free_energy:        31.0045200
  entropy:            14.5226362
  heat_capacity:      26.3379974
  energy:             37.6849327

- temperature:       470.0000000
  free_energy:        30.8564291
  entropy:            15.0956995
  heat_capacity:      26.9540227
  energy:             37.9514079

- temperature:       480.0000000
  free_energy:        30.7026037
  entropy:            15.6694781
  heat_capacity:      27.5520520
  energy:             38.2239532

- temperature:       490.0000000
  free_energy:        30.5430385
  entropy:            16.2435742
  heat_capacity:      28.1323622
  energy:             38.5023899

- temperature:       500.0000000
  free_energy:        30.3777324
  entropy:            16.8176201
  heat_capacity:      28.6952704
  energy:             38.7865424

- temperature:       510.0000000
  free_energy:        30.2066874
  entropy:            17.3912765
  heat_capacity:      29.2411264
  energy:             39.0762384

- temperature:       520.0000000
  free_energy:        30.0299092
  entropy:            17.9642311
  heat_capacity:      29.7703057
  energy:             39.3713093

- temperature:       530.0000000
  free_energy:        29.8474061
  entropy:            18.5361966
  heat_capacity:      30.2832044
  energy:             39.6715903

- temperature:       540.0000000
  free_energy:        29.6591894
  entropy:            19.1069094
  heat_capacity:      30.7802334
  energy:             39.9769205

- temperature:       550.0000000
  free_energy:        29.4652729
  entropy:            19.6761283
  heat_capacity:      31.2618144
  energy:             40.2871435

- temperature:       560.0000000
  free_energy:        29.2656726
  entropy:            20.2436325
  heat_capacity:      31.7283761
  energy:             40.6021067

- temperature:       570.0000000
  free_energy:        29.0604066
  entropy:            20.8092206
  heat_capacity:      32.1803506
  energy:             40.9216624

- temperature:       580.0000000
  free_energy:        28.8494952
  entropy:            21.3727093
  heat_capacity:      32.6181712
  energy:             41.2456666

- temperature:       590.0000000
  free_energy:        28.6329600
  entropy:            21.9339323
  heat_capacity:      33.0422696
  energy:             41.5739800

- temperature:       600.0000000
  free_energy:        28.4108246
  entropy:            22.4927385
  heat_capacity:      33.4530739
  energy:             41.9064677

- temperature:       610.0000000
  free_energy:        28.1831137
  entropy:            23.0489916
  heat_capacity:      33.8510074
  energy:             42.2429986

- temperature:       620.0000000
  free_energy:        27.9498537
  entropy:            23.6025688
  heat_capacity:      34.2364868
  energy:             42.5834463

- temperature:       630.0000000
  free_energy:        27.7110717
  entropy:            24.1533596
  heat_capacity:      34.6099212
  energy:             42.9276882

- temperature:       640.0000000
  free_energy:        27.4667961
  entropy:            24.7012653
  heat_capacity:      34.9717112
  energy:             43.2756059

- temperature:       650.0000000
  free_energy:        27.2170563
  entropy:            25.2461979
  heat_capacity:      35.3222483
  energy:             43.6270849

- temperature:       660.0000000
  free_energy:        26.9618823
  entropy:            25.7880793
  heat_capacity:      35.6619143
  energy:             43.9820146

- temperature:       670.0000000
  free_energy:        26.7013051
  entropy:            26.3268405
  heat_capacity:      35.9910807
  energy:             44.3402882

- temperature:       680.0000000
  free_energy:        26.4353561
  entropy:            26.8624211
  heat_capacity:      36.3101088
  energy:             44.7018025

- temperature:       690.0000000
  free_energy:        26.1640674
  entropy:            27.3947686
  heat_capacity:      36.6193492
  energy:             45.0664578

- temperature:       700.0000000
  free_energy:        25.8874717
  entropy:            27.9238376
  heat_capacity:      36.9191418
  energy:             45.4341579

- temperature:       710.0000000
  free_energy:        25.6056017
  entropy:            28.4495894
  heat_capacity:      37.2098157
  energy:             45.8048102

- temperature:       720.0000000
  free_energy:        25.3184910
  entropy:            28.9719915
  heat_capacity:      37.4916895
  energy:             46.1783249

- temperature:       730.0000000
  free_energy:        25.0261732
  entropy:            29.4910171
  heat_capacity:      37.7650710
  energy:             46.5546157

- temperature:       740.0000000
  free_energy:        24.7286820
  entropy:            30.0066446
  heat_capacity:      38.0302578
  energy:             46.9335990

- temperature:       750.0000000
  free_energy:        24.4260517
  entropy:            30.5188571
  heat_capacity:      38.2875370
  energy:             47.3151945

- temperature:       760.0000000
  free_energy:        24.1183163
  entropy:            31.0276422
  heat_capacity:      38.5371857
  energy:             47.6993243

- temperature:       770.0000000
  free_energy:        23.8055103
  entropy:            31.5329914
  heat_capacity:      38.7794711
  energy:             48.0859137

- temperature:       780.0000000
  free_energy:        23.4876679
  entropy:            32.0349002
  heat_capacity:      39.0146510
  energy:             48.4748901

- temperature:       790.0000000
  free_energy:        23.1648237
  entropy:            32.5333672
  heat_capacity:      39.2429735
  energy:             48.8661838

- temperature:       800.0000000
  free_energy:        22.8370121
  entropy:            33.0283943
  heat_capacity:      39.4646778
  energy:             49.2597275

- temperature:       810.0000000
  free_energy:        22.5042673
  entropy:            33.5199861
  heat_capacity:      39.6799941
  energy:             49.6554561

- temperature:       820.0000000
  free_energy:        22.1666238
  entropy:            34.0081501
  heat_capacity:      39.8891444
  energy:             50.0533068

- temperature:       830.0000000
  free_energy:        21.8241157
  entropy:            34.4928957
  heat_capacity:      40.0923419
  energy:             50.4532191

- temperature:       840.0000000
  free_energy:        21.4767772
  entropy:            34.9742349
  heat_capacity:      40.2897922
  energy:             50.8551345

- temperature:       850.0000000
  free_energy:        21.1246423
  entropy:            35.4521814
  heat_capacity:      40.4816930
  energy:             51.2589965

- temperature:       860.0000000
  free_energy:        20.7677448
  entropy:            35.9267508
  heat_capacity:      40.6682345
  energy:             51.6647505

- temperature:       870.0000000
  free_energy:        20.4061185
  entropy:            36.3979602
  heat_capacity:      40.8495998
  energy:             52.0723439

- temperature:       880.0000000
  free_energy:        20.0397968
  entropy:            36.8658285
  heat_capacity:      41.0259650
  energy:             52.4817258

- temperature:       890.0000000
  free_energy:        19.6688130
  entropy:            37.3303754
  heat_capacity:      41.1974995
  energy:             52.8928471

- temperature:       900.0000000
  free_energy:        19.2932003
  entropy:            37.7916222
  heat_capacity:      41.3643663
  energy:             53.3056603

- temperature:       910.0000000
  free_energy:        18.9129915
  entropy:            38.2495911
  heat_capacity:      41.5267223
  energy:             53.7201194

- temperature:       920.0000000
  free_energy:        18.5282193
  entropy:            38.7043053
  heat_capacity:      41.6847183
  energy:             54.1361802

- temperature:       930.0000000
  free_energy:        18.1389161
  entropy:            39.1557888
  heat_capacity:      41.8384994
  energy:             54.5537997

- temperature:       940.0000000
  free_energy:        17.7451142
  entropy:            39.6040664
  heat_capacity:      41.9882054
  energy:             54.9729366

- temperature:       950.0000000
  free_energy:        17.3468454
  entropy:            40.0491634
  heat_capacity:      42.1339706
  energy:             55.3935507

- temperature:       960.0000000
  free_energy:        16.9441414
  entropy:            40.4911061
  heat_capacity:      42.2759243
  energy:             55.8156033

- temperature:       970.0000000
  free_energy:        16.5370337
  entropy:            40.9299208
  heat_capacity:      42.4141910
  energy:             56.2390569

- temperature:       980.0000000
  free_energy:        16.1255534
  entropy:            41.3656345
  heat_capacity:      42.5488904
  energy:             56.6638752

- temperature:       990.0000000
  free_energy:        15.7097313
  entropy:            41.7982747
  heat_capacity:      42.6801377
  energy:             57.0900232

- temperature:      1000.0000000
  free_energy:        15.2895980
  entropy:            42.2278688
  heat_capacity:      42.8080441
  energy:             57.5174668
