diamond                                 
           1
    11.468896    0.000000    0.000000
     0.000000    8.022124    0.000000
     0.000000    0.000000    8.017129
   H    C 
  64  16
Direct configuration=     1
   0.07280000  0.78549999  0.18230000
   0.92720002  0.21450001  0.81770003
   0.92720002  0.71450001  0.68229997
   0.07280000  0.28549999  0.31770000
   0.92720002  0.28549999  0.31770000
   0.07280000  0.71450001  0.68229997
   0.07280000  0.21450001  0.81770003
   0.92720002  0.78549999  0.18230000
   0.57279998  0.28549999  0.18230000
   0.42719999  0.71450001  0.81770003
   0.42719999  0.21450001  0.68229997
   0.57279998  0.78549999  0.31770000
   0.42719999  0.78549999  0.31770000
   0.57279998  0.21450001  0.68229997
   0.57279998  0.71450001  0.81770003
   0.42719999  0.28549999  0.18230000
   0.80100000  0.57950002  0.93360001
   0.19900000  0.42049998  0.06639999
   0.19900000  0.92049998  0.43360001
   0.80100000  0.07950002  0.56639999
   0.19900000  0.07950002  0.56639999
   0.80100000  0.92049998  0.43360001
   0.80100000  0.42049998  0.06639999
   0.19900000  0.57950002  0.93360001
   0.30100000  0.07950002  0.93360001
   0.69900000  0.92049998  0.06639999
   0.69900000  0.42049998  0.43360001
   0.30100000  0.57950002  0.56639999
   0.69900000  0.57950002  0.56639999
   0.30100000  0.42049998  0.43360001
   0.30100000  0.92049998  0.06639999
   0.69900000  0.07950002  0.93360001
   0.69859999  0.56629997  0.07959998
   0.30140001  0.43370003  0.92040002
   0.30140001  0.93370003  0.57959998
   0.69859999  0.06629997  0.42040002
   0.30140001  0.06629997  0.42040002
   0.69859999  0.93370003  0.57959998
   0.69859999  0.43370003  0.92040002
   0.30140001  0.56629997  0.07959998
   0.19859999  0.06629997  0.07959998
   0.80140001  0.93370003  0.92040002
   0.80140001  0.43370003  0.57959998
   0.19859999  0.56629997  0.42040002
   0.80140001  0.56629997  0.42040002
   0.19859999  0.43370003  0.57959998
   0.19859999  0.93370003  0.92040002
   0.80140001  0.06629997  0.07959998
   0.00000000  0.60589999  0.19920000
   0.00000000  0.39410001  0.80079997
   0.00000000  0.89410001  0.69920003
   0.00000000  0.10589999  0.30080000
   0.50000000  0.10589999  0.19920000
   0.50000000  0.89410001  0.80079997
   0.50000000  0.39410001  0.69920003
   0.50000000  0.60589999  0.30080000
   0.00000000  0.74159998  0.78549999
   0.00000000  0.25840002  0.21450001
   0.00000000  0.75840002  0.28549999
   0.00000000  0.24159998  0.71450001
   0.50000000  0.24159998  0.78549999
   0.50000000  0.75840002  0.21450001
   0.50000000  0.25840002  0.28549999
   0.50000000  0.74159998  0.71450001
   0.00000000  0.72960001  0.23029999
   0.00000000  0.27039999  0.76969999
   0.00000000  0.77039999  0.73030001
   0.00000000  0.22960001  0.26969999
   0.50000000  0.22960001  0.23029999
   0.50000000  0.77039999  0.76969999
   0.50000000  0.27039999  0.73030001
   0.50000000  0.72960001  0.26969999
   0.74980003  0.50000000  0.00000000
   0.25019997  0.50000000  0.00000000
   0.25019997  0.00000000  0.50000000
   0.74980003  0.00000000  0.50000000
   0.24980003  0.00000000  0.00000000
   0.75019997  0.00000000  0.00000000
   0.75019997  0.50000000  0.50000000
   0.24980003  0.50000000  0.50000000
Direct configuration=     2
   0.08165187  0.79087612  0.16918399
   0.91834815  0.20912388  0.83081604
   0.91834815  0.70912388  0.66918396
   0.08165187  0.29087612  0.33081601
   0.91834815  0.29087612  0.33081601
   0.08165187  0.70912388  0.66918396
   0.08165187  0.20912388  0.83081604
   0.91834815  0.79087612  0.16918399
   0.58165185  0.29087612  0.16918399
   0.41834812  0.70912388  0.83081604
   0.41834812  0.20912388  0.66918396
   0.58165185  0.79087612  0.33081601
   0.41834812  0.79087612  0.33081601
   0.58165185  0.20912388  0.66918396
   0.58165185  0.70912388  0.83081604
   0.41834812  0.29087612  0.16918399
   0.80874377  0.59151662  0.92366018
   0.19125623  0.40848338  0.07633982
   0.19125623  0.90848338  0.42366018
   0.80874377  0.09151662  0.57633982
   0.19125623  0.09151662  0.57633982
   0.80874377  0.90848338  0.42366018
   0.80874377  0.40848338  0.07633982
   0.19125623  0.59151662  0.92366018
   0.30874377  0.09151662  0.92366018
   0.69125623  0.90848338  0.07633982
   0.69125623  0.40848338  0.42366018
   0.30874377  0.59151662  0.57633982
   0.69125623  0.59151662  0.57633982
   0.30874377  0.40848338  0.42366018
   0.30874377  0.90848338  0.07633982
   0.69125623  0.09151662  0.92366018
   0.69086886  0.57631199  0.09154352
   0.30913114  0.42368801  0.90845648
   0.30913114  0.92368801  0.59154352
   0.69086886  0.07631199  0.40845648
   0.30913114  0.07631199  0.40845648
   0.69086886  0.92368801  0.59154352
   0.69086886  0.42368801  0.90845648
   0.30913114  0.57631199  0.09154352
   0.19086886  0.07631199  0.09154352
   0.80913114  0.92368801  0.90845648
   0.80913114  0.42368801  0.59154352
   0.19086886  0.57631199  0.40845648
   0.80913114  0.57631199  0.40845648
   0.19086886  0.42368801  0.59154352
   0.19086886  0.92368801  0.90845648
   0.80913114  0.07631199  0.09154352
  -0.00000000  0.59226377  0.20095038
  -0.00000000  0.40773623  0.79904959
  -0.00000000  0.90773623  0.70095041
  -0.00000000  0.09226377  0.29904962
   0.50000000  0.09226377  0.20095038
   0.50000000  0.90773623  0.79904959
   0.50000000  0.40773623  0.70095041
   0.50000000  0.59226377  0.29904962
  -0.00000000  0.28968776  0.70679206
  -0.00000000  0.71031224 -0.70679206
  -0.00000000  0.21031224  0.20679206
  -0.00000000 -0.21031224 -0.20679206
   0.50000000 -0.21031224  0.70679206
   0.50000000  0.21031224 -0.70679206
   0.50000000  0.71031224  0.20679206
   0.50000000  0.28968776 -0.20679206
  -0.00000000  0.28055831 -0.66653441
  -0.00000000  0.71944169  0.66653440
  -0.00000000  0.21944169 -0.16653440
  -0.00000000 -0.21944169  0.16653440
   0.50000000 -0.21944169 -0.66653441
   0.50000000  0.21944169  0.66653440
   0.50000000  0.71944169 -0.16653440
   0.50000000  0.28055831  0.16653440
   0.74980202  0.50000000 -0.00000000
   0.25019798  0.50000000 -0.00000000
   0.25019798  0.00000000  0.50000000
   0.74980202  0.00000000  0.50000000
   0.24980202  0.00000000 -0.00000000
   0.75019798  0.00000000 -0.00000000
   0.75019798  0.50000000  0.50000000
   0.24980202  0.50000000  0.50000000
Direct configuration=     3
   0.08182314  0.79098014  0.16893022
   0.91817688  0.20901986  0.83106981
   0.91817688  0.70901986  0.66893019
   0.08182314  0.29098014  0.33106978
   0.91817688  0.29098014  0.33106978
   0.08182314  0.70901986  0.66893019
   0.08182314  0.20901986  0.83106981
   0.91817688  0.79098014  0.16893022
   0.58182312  0.29098014  0.16893022
   0.41817685  0.70901986  0.83106981
   0.41817685  0.20901986  0.66893019
   0.58182312  0.79098014  0.33106978
   0.41817685  0.79098014  0.33106978
   0.58182312  0.20901986  0.66893019
   0.58182312  0.70901986  0.83106981
   0.41817685  0.29098014  0.16893022
   0.80889359  0.59174913  0.92346786
   0.19110641  0.40825087  0.07653214
   0.19110641  0.90825087  0.42346786
   0.80889359  0.09174913  0.57653214
   0.19110641  0.09174913  0.57653214
   0.80889359  0.90825087  0.42346786
   0.80889359  0.40825087  0.07653214
   0.19110641  0.59174913  0.92346786
   0.30889359  0.09174913  0.92346786
   0.69110641  0.90825087  0.07653214
   0.69110641  0.40825087  0.42346786
   0.30889359  0.59174913  0.57653214
   0.69110641  0.59174913  0.57653214
   0.30889359  0.40825087  0.42346786
   0.30889359  0.90825087  0.07653214
   0.69110641  0.09174913  0.92346786
   0.69071927  0.57650570  0.09177460
   0.30928073  0.42349430  0.90822540
   0.30928073  0.92349430  0.59177460
   0.69071927  0.07650570  0.40822540
   0.30928073  0.07650570  0.40822540
   0.69071927  0.92349430  0.59177460
   0.69071927  0.42349430  0.90822540
   0.30928073  0.57650570  0.09177460
   0.19071927  0.07650570  0.09177460
   0.80928073  0.92349430  0.90822540
   0.80928073  0.42349430  0.59177460
   0.19071927  0.57650570  0.40822540
   0.80928073  0.57650570  0.40822540
   0.19071927  0.42349430  0.59177460
   0.19071927  0.92349430  0.90822540
   0.80928073  0.07650570  0.09177460
  -0.00000000  0.59199994  0.20098424
  -0.00000000  0.40800006  0.79901573
  -0.00000000  0.90800006  0.70098427
  -0.00000000  0.09199994  0.29901576
   0.50000000  0.09199994  0.20098424
   0.50000000  0.90800006  0.79901573
   0.50000000  0.40800006  0.70098427
   0.50000000  0.59199994  0.29901576
  -0.00000000  0.28094402  0.72461751
  -0.00000000  0.71905598 -0.72461751
  -0.00000000  0.21905598  0.22461751
  -0.00000000 -0.21905598 -0.22461751
   0.50000000 -0.21905598  0.72461751
   0.50000000  0.21905598 -0.72461751
   0.50000000  0.71905598  0.22461751
   0.50000000  0.28094402 -0.22461751
  -0.00000000  0.27187010 -0.68388665
  -0.00000000  0.72812990  0.68388663
  -0.00000000  0.22812990 -0.18388663
  -0.00000000 -0.22812990  0.18388663
   0.50000000 -0.22812990 -0.68388665
   0.50000000  0.22812990  0.68388663
   0.50000000  0.72812990 -0.18388663
   0.50000000  0.27187010  0.18388663
   0.74980206  0.50000000 -0.00000000
   0.25019794  0.50000000 -0.00000000
   0.25019794  0.00000000  0.50000000
   0.74980206  0.00000000  0.50000000
   0.24980206  0.00000000 -0.00000000
   0.75019794  0.00000000 -0.00000000
   0.75019794  0.50000000  0.50000000
   0.24980206  0.50000000  0.50000000
Direct configuration=     4
   0.08168409  0.79089569  0.16913625
   0.91831593  0.20910431  0.83086378
   0.91831593  0.70910431  0.66913622
   0.08168409  0.29089569  0.33086375
   0.91831593  0.29089569  0.33086375
   0.08168409  0.70910431  0.66913622
   0.08168409  0.20910431  0.83086378
   0.91831593  0.79089569  0.16913625
   0.58168407  0.29089569  0.16913625
   0.41831590  0.70910431  0.83086378
   0.41831590  0.20910431  0.66913622
   0.58168407  0.79089569  0.33086375
   0.41831590  0.79089569  0.33086375
   0.58168407  0.20910431  0.66913622
   0.58168407  0.70910431  0.83086378
   0.41831590  0.29089569  0.16913625
   0.80877195  0.59156036  0.92362400
   0.19122805  0.40843964  0.07637600
   0.19122805  0.90843964  0.42362400
   0.80877195  0.09156036  0.57637600
   0.19122805  0.09156036  0.57637600
   0.80877195  0.90843964  0.42362400
   0.80877195  0.40843964  0.07637600
   0.19122805  0.59156036  0.92362400
   0.30877195  0.09156036  0.92362400
   0.69122805  0.90843964  0.07637600
   0.69122805  0.40843964  0.42362400
   0.30877195  0.59156036  0.57637600
   0.69122805  0.59156036  0.57637600
   0.30877195  0.40843964  0.42362400
   0.30877195  0.90843964  0.07637600
   0.69122805  0.09156036  0.92362400
   0.69084072  0.57634843  0.09158699
   0.30915928  0.42365157  0.90841301
   0.30915928  0.92365157  0.59158699
   0.69084072  0.07634843  0.40841301
   0.30915928  0.07634843  0.40841301
   0.69084072  0.92365157  0.59158699
   0.69084072  0.42365157  0.90841301
   0.30915928  0.57634843  0.09158699
   0.19084072  0.07634843  0.09158699
   0.80915928  0.92365157  0.90841301
   0.80915928  0.42365157  0.59158699
   0.19084072  0.57634843  0.40841301
   0.80915928  0.57634843  0.40841301
   0.19084072  0.42365157  0.59158699
   0.19084072  0.92365157  0.90841301
   0.80915928  0.07634843  0.09158699
  -0.00000000  0.59221414  0.20095675
  -0.00000000  0.40778586  0.79904322
  -0.00000000  0.90778586  0.70095678
  -0.00000000  0.09221414  0.29904325
   0.50000000  0.09221414  0.20095675
   0.50000000  0.90778586  0.79904322
   0.50000000  0.40778586  0.70095678
   0.50000000  0.59221414  0.29904325
  -0.00000000  0.28804287  0.71014543
  -0.00000000  0.71195713 -0.71014543
  -0.00000000  0.21195713  0.21014543
  -0.00000000 -0.21195713 -0.21014543
   0.50000000 -0.21195713  0.71014543
   0.50000000  0.21195713 -0.71014543
   0.50000000  0.71195713  0.21014543
   0.50000000  0.28804287 -0.21014543
  -0.00000000  0.27892386 -0.66979876
  -0.00000000  0.72107614  0.66979875
  -0.00000000  0.22107614 -0.16979875
  -0.00000000 -0.22107614  0.16979875
   0.50000000 -0.22107614 -0.66979876
   0.50000000  0.22107614  0.66979875
   0.50000000  0.72107614 -0.16979875
   0.50000000  0.27892386  0.16979875
   0.74980203  0.50000000 -0.00000000
   0.25019797  0.50000000 -0.00000000
   0.25019797  0.00000000  0.50000000
   0.74980203  0.00000000  0.50000000
   0.24980203  0.00000000 -0.00000000
   0.75019797  0.00000000 -0.00000000
   0.75019797  0.50000000  0.50000000
   0.24980203  0.50000000  0.50000000
Direct configuration=     5
   0.08174019  0.79092976  0.16905313
   0.91825983  0.20907024  0.83094690
   0.91825983  0.70907024  0.66905310
   0.08174019  0.29092976  0.33094687
   0.91825983  0.29092976  0.33094687
   0.08174019  0.70907024  0.66905310
   0.08174019  0.20907024  0.83094690
   0.91825983  0.79092976  0.16905313
   0.58174017  0.29092976  0.16905313
   0.41825981  0.70907024  0.83094690
   0.41825981  0.20907024  0.66905310
   0.58174017  0.79092976  0.33094687
   0.41825981  0.79092976  0.33094687
   0.58174017  0.20907024  0.66905310
   0.58174017  0.70907024  0.83094690
   0.41825981  0.29092976  0.16905313
   0.80882103  0.59163651  0.92356101
   0.19117897  0.40836349  0.07643899
   0.19117897  0.90836349  0.42356101
   0.80882103  0.09163651  0.57643899
   0.19117897  0.09163651  0.57643899
   0.80882103  0.90836349  0.42356101
   0.80882103  0.40836349  0.07643899
   0.19117897  0.59163651  0.92356101
   0.30882103  0.09163651  0.92356101
   0.69117897  0.90836349  0.07643899
   0.69117897  0.40836349  0.42356101
   0.30882103  0.59163651  0.57643899
   0.69117897  0.59163651  0.57643899
   0.30882103  0.40836349  0.42356101
   0.30882103  0.90836349  0.07643899
   0.69117897  0.09163651  0.92356101
   0.69079172  0.57641188  0.09166268
   0.30920828  0.42358812  0.90833732
   0.30920828  0.92358812  0.59166268
   0.69079172  0.07641188  0.40833732
   0.30920828  0.07641188  0.40833732
   0.69079172  0.92358812  0.59166268
   0.69079172  0.42358812  0.90833732
   0.30920828  0.57641188  0.09166268
   0.19079172  0.07641188  0.09166268
   0.80920828  0.92358812  0.90833732
   0.80920828  0.42358812  0.59166268
   0.19079172  0.57641188  0.40833732
   0.80920828  0.57641188  0.40833732
   0.19079172  0.42358812  0.59166268
   0.19079172  0.92358812  0.90833732
   0.80920828  0.07641188  0.09166268
  -0.00000000  0.59212773  0.20096784
  -0.00000000  0.40787227  0.79903213
  -0.00000000  0.90787227  0.70096787
  -0.00000000  0.09212773  0.29903216
   0.50000000  0.09212773  0.20096784
   0.50000000  0.90787227  0.79903213
   0.50000000  0.40787227  0.70096787
   0.50000000  0.59212773  0.29903216
  -0.00000000  0.28517903  0.71598381
  -0.00000000  0.71482097 -0.71598381
  -0.00000000  0.21482097  0.21598381
  -0.00000000 -0.21482097 -0.21598381
   0.50000000 -0.21482097  0.71598381
   0.50000000  0.21482097 -0.71598381
   0.50000000  0.71482097  0.21598381
   0.50000000  0.28517903 -0.21598381
  -0.00000000  0.27607821 -0.67548214
  -0.00000000  0.72392179  0.67548213
  -0.00000000  0.22392179 -0.17548213
  -0.00000000 -0.22392179  0.17548213
   0.50000000 -0.22392179 -0.67548214
   0.50000000  0.22392179  0.67548213
   0.50000000  0.72392179 -0.17548213
   0.50000000  0.27607821  0.17548213
   0.74980204  0.50000000 -0.00000000
   0.25019796  0.50000000 -0.00000000
   0.25019796  0.00000000  0.50000000
   0.74980204  0.00000000  0.50000000
   0.24980204  0.00000000 -0.00000000
   0.75019796  0.00000000 -0.00000000
   0.75019796  0.50000000  0.50000000
   0.24980204  0.50000000  0.50000000
Direct configuration=     6
   0.08171785  0.79091619  0.16908622
   0.91828217  0.20908381  0.83091381
   0.91828217  0.70908381  0.66908619
   0.08171785  0.29091619  0.33091378
   0.91828217  0.29091619  0.33091378
   0.08171785  0.70908381  0.66908619
   0.08171785  0.20908381  0.83091381
   0.91828217  0.79091619  0.16908622
   0.58171783  0.29091619  0.16908622
   0.41828214  0.70908381  0.83091381
   0.41828214  0.20908381  0.66908619
   0.58171783  0.79091619  0.33091378
   0.41828214  0.79091619  0.33091378
   0.58171783  0.20908381  0.66908619
   0.58171783  0.70908381  0.83091381
   0.41828214  0.29091619  0.16908622
   0.80880149  0.59160620  0.92358609
   0.19119851  0.40839380  0.07641391
   0.19119851  0.90839380  0.42358609
   0.80880149  0.09160620  0.57641391
   0.19119851  0.09160620  0.57641391
   0.80880149  0.90839380  0.42358609
   0.80880149  0.40839380  0.07641391
   0.19119851  0.59160620  0.92358609
   0.30880149  0.09160620  0.92358609
   0.69119851  0.90839380  0.07641391
   0.69119851  0.40839380  0.42358609
   0.30880149  0.59160620  0.57641391
   0.69119851  0.59160620  0.57641391
   0.30880149  0.40839380  0.42358609
   0.30880149  0.90839380  0.07641391
   0.69119851  0.09160620  0.92358609
   0.69081123  0.57638662  0.09163254
   0.30918877  0.42361338  0.90836746
   0.30918877  0.92361338  0.59163254
   0.69081123  0.07638662  0.40836746
   0.30918877  0.07638662  0.40836746
   0.69081123  0.92361338  0.59163254
   0.69081123  0.42361338  0.90836746
   0.30918877  0.57638662  0.09163254
   0.19081123  0.07638662  0.09163254
   0.80918877  0.92361338  0.90836746
   0.80918877  0.42361338  0.59163254
   0.19081123  0.57638662  0.40836746
   0.80918877  0.57638662  0.40836746
   0.19081123  0.42361338  0.59163254
   0.19081123  0.92361338  0.90836746
   0.80918877  0.07638662  0.09163254
  -0.00000000  0.59216213  0.20096342
  -0.00000000  0.40783787  0.79903655
  -0.00000000  0.90783787  0.70096345
  -0.00000000  0.09216213  0.29903658
   0.50000000  0.09216213  0.20096342
   0.50000000  0.90783787  0.79903655
   0.50000000  0.40783787  0.70096345
   0.50000000  0.59216213  0.29903658
  -0.00000000  0.28631919  0.71365941
  -0.00000000  0.71368081 -0.71365941
  -0.00000000  0.21368081  0.21365941
  -0.00000000 -0.21368081 -0.21365941
   0.50000000 -0.21368081  0.71365941
   0.50000000  0.21368081 -0.71365941
   0.50000000  0.71368081  0.21365941
   0.50000000  0.28631919 -0.21365941
  -0.00000000  0.27721113 -0.67321945
  -0.00000000  0.72278887  0.67321944
  -0.00000000  0.22278887 -0.17321944
  -0.00000000 -0.22278887  0.17321944
   0.50000000 -0.22278887 -0.67321945
   0.50000000  0.22278887  0.67321944
   0.50000000  0.72278887 -0.17321944
   0.50000000  0.27721113  0.17321944
   0.74980203  0.50000000 -0.00000000
   0.25019797  0.50000000 -0.00000000
   0.25019797  0.00000000  0.50000000
   0.74980203  0.00000000  0.50000000
   0.24980203  0.00000000 -0.00000000
   0.75019797  0.00000000 -0.00000000
   0.75019797  0.50000000  0.50000000
   0.24980203  0.50000000  0.50000000
Direct configuration=     7
   0.08172195  0.79091868  0.16908016
   0.91827808  0.20908132  0.83091987
   0.91827808  0.70908132  0.66908013
   0.08172195  0.29091868  0.33091984
   0.91827808  0.29091868  0.33091984
   0.08172195  0.70908132  0.66908013
   0.08172195  0.20908132  0.83091987
   0.91827808  0.79091868  0.16908016
   0.58172192  0.29091868  0.16908016
   0.41827805  0.70908132  0.83091987
   0.41827805  0.20908132  0.66908013
   0.58172192  0.79091868  0.33091984
   0.41827805  0.79091868  0.33091984
   0.58172192  0.20908132  0.66908013
   0.58172192  0.70908132  0.83091987
   0.41827805  0.29091868  0.16908016
   0.80880507  0.59161175  0.92358149
   0.19119493  0.40838825  0.07641851
   0.19119493  0.90838825  0.42358149
   0.80880507  0.09161175  0.57641851
   0.19119493  0.09161175  0.57641851
   0.80880507  0.90838825  0.42358149
   0.80880507  0.40838825  0.07641851
   0.19119493  0.59161175  0.92358149
   0.30880507  0.09161175  0.92358149
   0.69119493  0.90838825  0.07641851
   0.69119493  0.40838825  0.42358149
   0.30880507  0.59161175  0.57641851
   0.69119493  0.59161175  0.57641851
   0.30880507  0.40838825  0.42358149
   0.30880507  0.90838825  0.07641851
   0.69119493  0.09161175  0.92358149
   0.69080766  0.57639124  0.09163806
   0.30919234  0.42360876  0.90836194
   0.30919234  0.92360876  0.59163806
   0.69080766  0.07639124  0.40836194
   0.30919234  0.07639124  0.40836194
   0.69080766  0.92360876  0.59163806
   0.69080766  0.42360876  0.90836194
   0.30919234  0.57639124  0.09163806
   0.19080766  0.07639124  0.09163806
   0.80919234  0.92360876  0.90836194
   0.80919234  0.42360876  0.59163806
   0.19080766  0.57639124  0.40836194
   0.80919234  0.57639124  0.40836194
   0.19080766  0.42360876  0.59163806
   0.19080766  0.92360876  0.90836194
   0.80919234  0.07639124  0.09163806
  -0.00000000  0.59215583  0.20096423
  -0.00000000  0.40784417  0.79903574
  -0.00000000  0.90784417  0.70096426
  -0.00000000  0.09215583  0.29903577
   0.50000000  0.09215583  0.20096423
   0.50000000  0.90784417  0.79903574
   0.50000000  0.40784417  0.70096426
   0.50000000  0.59215583  0.29903577
  -0.00000000  0.28611029  0.71408528
  -0.00000000  0.71388971 -0.71408528
  -0.00000000  0.21388971  0.21408528
  -0.00000000 -0.21388971 -0.21408528
   0.50000000 -0.21388971  0.71408528
   0.50000000  0.21388971 -0.71408528
   0.50000000  0.71388971  0.21408528
   0.50000000  0.28611029 -0.21408528
  -0.00000000  0.27700356 -0.67363402
  -0.00000000  0.72299644  0.67363400
  -0.00000000  0.22299644 -0.17363400
  -0.00000000 -0.22299644  0.17363400
   0.50000000 -0.22299644 -0.67363402
   0.50000000  0.22299644  0.67363400
   0.50000000  0.72299644 -0.17363400
   0.50000000  0.27700356  0.17363400
   0.74980204  0.50000000 -0.00000000
   0.25019796  0.50000000 -0.00000000
   0.25019796  0.00000000  0.50000000
   0.74980204  0.00000000  0.50000000
   0.24980204  0.00000000 -0.00000000
   0.75019796  0.00000000 -0.00000000
   0.75019796  0.50000000  0.50000000
   0.24980204  0.50000000  0.50000000
Direct configuration=     8
   0.11070380  0.80466311  0.15788807
   0.88929622  0.19533689  0.84211196
   0.88929622  0.69533689  0.65788804
   0.11070380  0.30466311  0.34211193
   0.88929622  0.30466311  0.34211193
   0.11070380  0.69533689  0.65788804
   0.11070380  0.19533689  0.84211196
   0.88929622  0.80466311  0.15788807
   0.61070378  0.30466311  0.15788807
   0.38929620  0.69533689  0.84211196
   0.38929620  0.19533689  0.65788804
   0.61070378  0.80466311  0.34211193
   0.38929620  0.80466311  0.34211193
   0.61070378  0.19533689  0.65788804
   0.61070378  0.69533689  0.84211196
   0.38929620  0.30466311  0.15788807
   0.80412122  0.58375909  0.93024404
   0.19587878  0.41624091  0.06975596
   0.19587878  0.91624091  0.43024404
   0.80412122  0.08375909  0.56975596
   0.19587878  0.08375909  0.56975596
   0.80412122  0.91624091  0.43024404
   0.80412122  0.41624091  0.06975596
   0.19587878  0.58375909  0.93024404
   0.30412122  0.08375909  0.93024404
   0.69587878  0.91624091  0.06975596
   0.69587878  0.41624091  0.43024404
   0.30412122  0.58375909  0.56975596
   0.69587878  0.58375909  0.56975596
   0.30412122  0.41624091  0.43024404
   0.30412122  0.91624091  0.06975596
   0.69587878  0.08375909  0.93024404
   0.69556259  0.57004770  0.08396116
   0.30443741  0.42995230  0.91603884
   0.30443741  0.92995230  0.58396116
   0.69556259  0.07004770  0.41603884
   0.30443741  0.07004770  0.41603884
   0.69556259  0.92995230  0.58396116
   0.69556259  0.42995230  0.91603884
   0.30443741  0.57004770  0.08396116
   0.19556259  0.07004770  0.08396116
   0.80443741  0.92995230  0.91603884
   0.80443741  0.42995230  0.58396116
   0.19556259  0.57004770  0.41603884
   0.80443741  0.57004770  0.41603884
   0.19556259  0.42995230  0.58396116
   0.19556259  0.92995230  0.91603884
   0.80443741  0.07004770  0.08396116
  -0.00000000  0.60498053  0.18727800
  -0.00000000  0.39501947  0.81272197
  -0.00000000  0.89501947  0.68727803
  -0.00000000  0.10498053  0.31272200
   0.50000000  0.10498053  0.18727800
   0.50000000  0.89501947  0.81272197
   0.50000000  0.39501947  0.68727803
   0.50000000  0.60498053  0.31272200
  -0.00000000  0.28265166  0.68867463
  -0.00000000  0.71734834 -0.68867463
  -0.00000000  0.21734834  0.18867463
  -0.00000000 -0.21734834 -0.18867463
   0.50000000 -0.21734834  0.68867463
   0.50000000  0.21734834 -0.68867463
   0.50000000  0.71734834  0.18867463
   0.50000000  0.28265166 -0.18867463
  -0.00000000  0.23322498 -0.68418252
  -0.00000000  0.76677502  0.68418250
  -0.00000000  0.26677502 -0.18418250
  -0.00000000 -0.26677502  0.18418250
   0.50000000 -0.26677502 -0.68418252
   0.50000000  0.26677502  0.68418250
   0.50000000  0.76677502 -0.18418250
   0.50000000  0.23322498  0.18418250
   0.74979120  0.50000000 -0.00000000
   0.25020880  0.50000000 -0.00000000
   0.25020880  0.00000000  0.50000000
   0.74979120  0.00000000  0.50000000
   0.24979120  0.00000000 -0.00000000
   0.75020880  0.00000000 -0.00000000
   0.75020880  0.50000000  0.50000000
   0.24979120  0.50000000  0.50000000
Direct configuration=     9
   0.09927324  0.79924226  0.16230227
   0.90072678  0.20075774  0.83769776
   0.90072678  0.70075774  0.66230224
   0.09927324  0.29924226  0.33769773
   0.90072678  0.29924226  0.33769773
   0.09927324  0.70075774  0.66230224
   0.09927324  0.20075774  0.83769776
   0.90072678  0.79924226  0.16230227
   0.59927322  0.29924226  0.16230227
   0.40072675  0.70075774  0.83769776
   0.40072675  0.20075774  0.66230224
   0.59927322  0.79924226  0.33769773
   0.40072675  0.79924226  0.33769773
   0.59927322  0.20075774  0.66230224
   0.59927322  0.70075774  0.83769776
   0.40072675  0.29924226  0.16230227
   0.80596855  0.58685621  0.92761631
   0.19403145  0.41314379  0.07238369
   0.19403145  0.91314379  0.42761631
   0.80596855  0.08685621  0.57238369
   0.19403145  0.08685621  0.57238369
   0.80596855  0.91314379  0.42761631
   0.80596855  0.41314379  0.07238369
   0.19403145  0.58685621  0.92761631
   0.30596855  0.08685621  0.92761631
   0.69403145  0.91314379  0.07238369
   0.69403145  0.41314379  0.42761631
   0.30596855  0.58685621  0.57238369
   0.69403145  0.58685621  0.57238369
   0.30596855  0.41314379  0.42761631
   0.30596855  0.91314379  0.07238369
   0.69403145  0.08685621  0.92761631
   0.69368722  0.57254962  0.08698896
   0.30631278  0.42745038  0.91301104
   0.30631278  0.92745038  0.58698896
   0.69368722  0.07254962  0.41301104
   0.30631278  0.07254962  0.41301104
   0.69368722  0.92745038  0.58698896
   0.69368722  0.42745038  0.91301104
   0.30631278  0.57254962  0.08698896
   0.19368722  0.07254962  0.08698896
   0.80631278  0.92745038  0.91301104
   0.80631278  0.42745038  0.58698896
   0.19368722  0.57254962  0.41301104
   0.80631278  0.57254962  0.41301104
   0.19368722  0.42745038  0.58698896
   0.19368722  0.92745038  0.91301104
   0.80631278  0.07254962  0.08698896
  -0.00000000  0.59992242  0.19267590
  -0.00000000  0.40007758  0.80732407
  -0.00000000  0.90007758  0.69267593
  -0.00000000  0.09992242  0.30732410
   0.50000000  0.09992242  0.19267590
   0.50000000  0.90007758  0.80732407
   0.50000000  0.40007758  0.69267593
   0.50000000  0.59992242  0.30732410
  -0.00000000  0.28401576  0.69869669
  -0.00000000  0.71598424 -0.69869669
  -0.00000000  0.21598424  0.19869669
  -0.00000000 -0.21598424 -0.19869669
   0.50000000 -0.21598424  0.69869669
   0.50000000  0.21598424 -0.69869669
   0.50000000  0.71598424  0.19869669
   0.50000000  0.28401576 -0.19869669
  -0.00000000  0.25049142 -0.68002215
  -0.00000000  0.74950858  0.68002213
  -0.00000000  0.24950858 -0.18002213
  -0.00000000 -0.24950858  0.18002213
   0.50000000 -0.24950858 -0.68002215
   0.50000000  0.24950858  0.68002213
   0.50000000  0.74950858 -0.18002213
   0.50000000  0.25049142  0.18002213
   0.74979547  0.50000000 -0.00000000
   0.25020453  0.50000000 -0.00000000
   0.25020453  0.00000000  0.50000000
   0.74979547  0.00000000  0.50000000
   0.24979547  0.00000000 -0.00000000
   0.75020453  0.00000000 -0.00000000
   0.75020453  0.50000000  0.50000000
   0.24979547  0.50000000  0.50000000
Direct configuration=    10
   0.09414234  0.80035852  0.15691154
   0.90585768  0.19964148  0.84308849
   0.90585768  0.69964148  0.65691151
   0.09414234  0.30035852  0.34308846
   0.90585768  0.30035852  0.34308846
   0.09414234  0.69964148  0.65691151
   0.09414234  0.19964148  0.84308849
   0.90585768  0.80035852  0.15691154
   0.59414232  0.30035852  0.15691154
   0.40585766  0.69964148  0.84308849
   0.40585766  0.19964148  0.65691151
   0.59414232  0.80035852  0.34308846
   0.40585766  0.80035852  0.34308846
   0.59414232  0.19964148  0.65691151
   0.59414232  0.69964148  0.84308849
   0.40585766  0.30035852  0.15691154
   0.80377843  0.58288143  0.93103754
   0.19622157  0.41711857  0.06896246
   0.19622157  0.91711857  0.43103754
   0.80377843  0.08288143  0.56896246
   0.19622157  0.08288143  0.56896246
   0.80377843  0.91711857  0.43103754
   0.80377843  0.41711857  0.06896246
   0.19622157  0.58288143  0.93103754
   0.30377843  0.08288143  0.93103754
   0.69622157  0.91711857  0.06896246
   0.69622157  0.41711857  0.43103754
   0.30377843  0.58288143  0.56896246
   0.69622157  0.58288143  0.56896246
   0.30377843  0.41711857  0.43103754
   0.30377843  0.91711857  0.06896246
   0.69622157  0.08288143  0.93103754
   0.69605756  0.56938713  0.08311542
   0.30394244  0.43061287  0.91688458
   0.30394244  0.93061287  0.58311542
   0.69605756  0.06938713  0.41688458
   0.30394244  0.06938713  0.41688458
   0.69605756  0.93061287  0.58311542
   0.69605756  0.43061287  0.91688458
   0.30394244  0.56938713  0.08311542
   0.19605756  0.06938713  0.08311542
   0.80394244  0.93061287  0.91688458
   0.80394244  0.43061287  0.58311542
   0.19605756  0.56938713  0.41688458
   0.80394244  0.56938713  0.41688458
   0.19605756  0.43061287  0.58311542
   0.19605756  0.93061287  0.91688458
   0.80394244  0.06938713  0.08311542
  -0.00000000  0.61211052  0.17497424
  -0.00000000  0.38788948  0.82502573
  -0.00000000  0.88788948  0.67497427
  -0.00000000  0.11211052  0.32502576
   0.50000000  0.11211052  0.17497424
   0.50000000  0.88788948  0.82502573
   0.50000000  0.38788948  0.67497427
   0.50000000  0.61211052  0.32502576
  -0.00000000  0.27691191  0.66498490