diamond                                 
           1
     6.220372    0.000000    0.000000
     0.000000    6.220372    0.000000
     0.000000    0.000000    6.220372
   H    C 
  16   4
Direct configuration=     1
   0.60030001  0.52968001  0.15026000
   0.54931998  0.63409001  0.89600998
   0.56970000  0.35765001  0.93207002
   0.34876001  0.49586999  0.03313000
   0.96934003  0.10341001  0.13061000
   0.95473999  0.05858004  0.85507000
   0.16532004  0.94997001  0.00338000
   0.90644997  0.84893000  0.03353000
   0.07562006  0.53223002  0.66030997
   0.02463996  0.63664001  0.40605000
   0.04501998  0.36019999  0.44211999
   0.82406998  0.49842000  0.54316997
   0.57178003  0.02575004  0.62698001
   0.52079999  0.13015997  0.37272999
   0.54118002  0.85372001  0.40878999
   0.32023999  0.99194002  0.50984001
   0.51703000  0.50432998  0.00287000
   0.99896002  0.99023002  0.00565000
   0.99234003  0.50687998  0.51292002
   0.48850000  0.00039995  0.47959000
Direct configuration=     2
   0.62005587  0.53802614  0.19227853
   0.56219589  0.66794279  0.86592269
   0.58574060  0.32215183  0.91363099
   0.30682396  0.49665701  0.04010640
   0.95720930  0.12851426  0.15759358
   0.94097471  0.07992788  0.82022065
   0.20629292  0.93711595  0.00202167
   0.88352706  0.81611672  0.04936182
   0.09723198  0.53527280  0.69678728
   0.03453938  0.66693101  0.37615020
   0.05427853  0.32633452  0.42145924
   0.78224116  0.49362888  0.54852643
   0.58975219  0.03021693  0.66409050
   0.53454984  0.15958801  0.34507053
   0.55460458  0.82132566  0.39026260
   0.27687495  0.98732333  0.52188224
   0.51576412  0.50357413  0.00216306
   0.99973992  0.99087720  0.00568308
   0.99272569  0.50693793  0.51363117
   0.48898743  0.00061709  0.47823728
Direct configuration=     3
   0.62314815  0.53933251  0.19885547
   0.56421129  0.67324159  0.86121328
   0.58825135  0.31659549  0.91074482
   0.30025993  0.49678019  0.04119838
   0.95531054  0.13244369  0.16181718
   0.93882010  0.08326935  0.81476586
   0.21270619  0.93510397  0.00180905
   0.87993905  0.81098063  0.05183989
   0.10061478  0.53574907  0.70249689
   0.03608888  0.67167231  0.37147014
   0.05572772  0.32103374  0.41822532
   0.77569391  0.49287895  0.54936485
   0.59256528  0.03091611  0.66989921
   0.53670203  0.16419423  0.34074114
   0.55670586  0.81625514  0.38736260
   0.27008724  0.98660070  0.52376715
   0.51556598  0.50345582  0.00205241
   0.99986200  0.99097850  0.00568825
   0.99278606  0.50694700  0.51374249
   0.48906373  0.00065108  0.47802555
Direct configuration=     4
   0.62933272  0.54194526  0.21200935
   0.56824209  0.68383919  0.85179446
   0.59327286  0.30548280  0.90497249
   0.28713186  0.49702657  0.04338234
   0.95151302  0.14030257  0.17026438
   0.93451088  0.08995229  0.80385629
   0.22553274  0.93108002  0.00138383
   0.87276304  0.80070844  0.05679603
   0.10738039  0.53670161  0.71391610
   0.03918789  0.68115489  0.36211002
   0.05862610  0.31043216  0.41175748
   0.76259942  0.49137909  0.55104169
   0.59819146  0.03231447  0.68151664
   0.54100641  0.17340667  0.33208236
   0.56090842  0.80611410  0.38156260
   0.25651183  0.98515545  0.52753697
   0.51516970  0.50321920  0.00183110
   0.00010615  0.99118110  0.00569861
   0.99290679  0.50696515  0.51396511
   0.48921632  0.00071906  0.47760208
Direct configuration=     5
   0.64170184  0.54717077  0.23831713
   0.57630369  0.70503439  0.83295683
   0.60331586  0.28325741  0.89342783
   0.26087573  0.49751931  0.04775026
   0.94391798  0.15602033  0.18715878
   0.92589244  0.10331816  0.78203714
   0.25118583  0.92303210  0.00053337
   0.85841101  0.78016407  0.06670832
   0.12091160  0.53860670  0.73675452
   0.04538591  0.70012007  0.34338978
   0.06442287  0.28922902  0.39882181
   0.73641042  0.48837937  0.55439537
   0.60944382  0.03511119  0.70475150
   0.54961518  0.19183155  0.31476479
   0.56931353  0.78583202  0.36996261
   0.22936101  0.98226494  0.53507660
   0.51437714  0.50274596  0.00138849
   0.00059445  0.99158630  0.00571932
   0.99314826  0.50700143  0.51441036
   0.48952150  0.00085501  0.47675515
Direct configuration=     6
   0.66644010  0.55762177  0.29093267
   0.59242689  0.74742480  0.79528156
   0.62340188  0.23880664  0.87033850
   0.20836346  0.49850481  0.05648610
   0.92872791  0.18745584  0.22094758
   0.90865558  0.13004990  0.73839883
   0.30249202  0.90693627 -0.00116753
   0.82970696  0.73907533  0.08653290
   0.14797403  0.54241686  0.78243136
   0.05778194  0.73805042  0.30594930
   0.07601640  0.24682273  0.37295045
   0.68403244  0.48237993  0.56110272
   0.63194854  0.04070462  0.75122121
   0.56683272  0.22868130  0.28012966
   0.58612376  0.74526786  0.34676263
   0.17505936  0.97648392  0.55015586
   0.51279201  0.50179949  0.00050326
   0.00157105  0.99239670  0.00576073
   0.99363119  0.50707399  0.51530087
   0.49013186  0.00112692  0.47506128
Direct configuration=     7
   0.71591662  0.57852378  0.39616375
   0.62467329  0.83220561  0.71993102
   0.66357391  0.14990510  0.82415984
   0.10333893  0.50047580  0.07395778
   0.89834775  0.25032685  0.28852519
   0.87418184  0.18351338  0.65112223
   0.40510439  0.87474461 -0.00456934
   0.77229887  0.65689784  0.12618206
   0.20209887  0.55003719  0.87378504
   0.08257401  0.81391113  0.23106834
   0.09920347  0.16201015  0.32120774
   0.57927646  0.47038106  0.57451742
   0.67695798  0.05189149  0.84416063
   0.60126779  0.30238080  0.21085940
   0.61974421  0.66413953  0.30036267
   0.06645606  0.96492188  0.58031439
   0.50962175  0.49990654 -0.00126720
   0.00352424  0.99401749  0.00584357
   0.99459705  0.50721912  0.51708187
   0.49135259  0.00167073  0.47167354
