diamond                                 
           1
    11.468896    0.000000    0.000000
     0.000000    8.022124    0.000000
     0.000000    0.000000    8.017129
   H    C 
  64  16
Direct configuration=     1
   0.07793219  0.79614303  0.15304361
   0.92206783  0.20385697  0.84695641
   0.92206783  0.70385697  0.65304359
   0.07793219  0.29614303  0.34695639
   0.92206783  0.29614303  0.34695639
   0.07793219  0.70385697  0.65304359
   0.07793219  0.20385697  0.84695641
   0.92206783  0.79614303  0.15304361
   0.57793217  0.29614303  0.15304361
   0.42206780  0.70385697  0.84695641
   0.42206780  0.20385697  0.65304359
   0.57793217  0.79614303  0.34695639
   0.42206780  0.79614303  0.34695639
   0.57793217  0.20385697  0.65304359
   0.57793217  0.70385697  0.84695641
   0.42206780  0.29614303  0.15304361
   0.80507352  0.58549220  0.92860698
   0.19492648  0.41450780  0.07139302
   0.19492648  0.91450780  0.42860698
   0.80507352  0.08549220  0.57139302
   0.19492648  0.08549220  0.57139302
   0.80507352  0.91450780  0.42860698
   0.80507352  0.41450780  0.07139302
   0.19492648  0.58549220  0.92860698
   0.30507352  0.08549220  0.92860698
   0.69492648  0.91450780  0.07139302
   0.69492648  0.41450780  0.42860698
   0.30507352  0.58549220  0.57139302
   0.69492648  0.58549220  0.57139302
   0.30507352  0.41450780  0.42860698
   0.30507352  0.91450780  0.07139302
   0.69492648  0.08549220  0.92860698
   0.69482269  0.57135807  0.08585552
   0.30517731  0.42864193  0.91414448
   0.30517731  0.92864193  0.58585552
   0.69482269  0.07135807  0.41414448
   0.30517731  0.07135807  0.41414448
   0.69482269  0.92864193  0.58585552
   0.69482269  0.42864193  0.91414448
   0.30517731  0.57135807  0.08585552
   0.19482269  0.07135807  0.08585552
   0.80517731  0.92864193  0.91414448
   0.80517731  0.42864193  0.58585552
   0.19482269  0.57135807  0.41414448
   0.80517731  0.57135807  0.41414448
   0.19482269  0.42864193  0.58585552
   0.19482269  0.92864193  0.91414448
   0.80517731  0.07135807  0.08585552
   0.00000000  0.60303314  0.15760425
   0.00000000  0.39696686  0.84239572
   0.00000000  0.89696686  0.65760428
   0.00000000  0.10303314  0.34239575
   0.50000000  0.10303314  0.15760425
   0.50000000  0.89696686  0.84239572
   0.50000000  0.39696686  0.65760428
   0.50000000  0.60303314  0.34239575
   0.00000000  0.26402835  0.66321851
   0.00000000  0.73597165  0.33678149
   0.00000000  0.23597165  0.16321851
   0.00000000  0.76402835  0.83678149
   0.50000000  0.76402835  0.66321851
   0.50000000  0.23597165  0.33678149
   0.50000000  0.73597165  0.16321851
   0.50000000  0.26402835  0.83678149
   0.00000000  0.23282870  0.29991552
   0.00000000  0.76717130  0.70008447
   0.00000000  0.26717130  0.79991553
   0.00000000  0.73282870  0.20008447
   0.50000000  0.73282870  0.29991552
   0.50000000  0.26717130  0.70008447
   0.50000000  0.76717130  0.79991553
   0.50000000  0.23282870  0.20008447
   0.74985799  0.50000000  0.00000000
   0.25014201  0.50000000  0.00000000
   0.25014201  0.00000000  0.50000000
   0.74985799  0.00000000  0.50000000
   0.24985799  0.00000000  0.00000000
   0.75014201  0.00000000  0.00000000
   0.75014201  0.50000000  0.50000000
   0.24985799  0.50000000  0.50000000
Direct configuration=     2
   0.07794957  0.79615289  0.15310161
   0.92205045  0.20384711  0.84689842
   0.92205045  0.70384711  0.65310158
   0.07794957  0.29615289  0.34689839
   0.92205045  0.29615289  0.34689839
   0.07794957  0.70384711  0.65310158
   0.07794957  0.20384711  0.84689842
   0.92205045  0.79615289  0.15310161
   0.57794955  0.29615289  0.15310161
   0.42205042  0.70384711  0.84689842
   0.42205042  0.20384711  0.65310158
   0.57794955  0.79615289  0.34689839
   0.42205042  0.79615289  0.34689839
   0.57794955  0.20384711  0.65310158
   0.57794955  0.70384711  0.84689842
   0.42205042  0.29615289  0.15310161
   0.80506879  0.58552356  0.92857336
   0.19493121  0.41447644  0.07142664
   0.19493121  0.91447644  0.42857336
   0.80506879  0.08552356  0.57142664
   0.19493121  0.08552356  0.57142664
   0.80506879  0.91447644  0.42857336
   0.80506879  0.41447644  0.07142664
   0.19493121  0.58552356  0.92857336
   0.30506879  0.08552356  0.92857336
   0.69493121  0.91447644  0.07142664
   0.69493121  0.41447644  0.42857336
   0.30506879  0.58552356  0.57142664
   0.69493121  0.58552356  0.57142664
   0.30506879  0.41447644  0.42857336
   0.30506879  0.91447644  0.07142664
   0.69493121  0.08552356  0.92857336
   0.69483162  0.57137666  0.08589670
   0.30516838  0.42862334  0.91410330
   0.30516838  0.92862334  0.58589670
   0.69483162  0.07137666  0.41410330
   0.30516838  0.07137666  0.41410330
   0.69483162  0.92862334  0.58589670
   0.69483162  0.42862334  0.91410330
   0.30516838  0.57137666  0.08589670
   0.19483162  0.07137666  0.08589670
   0.80516838  0.92862334  0.91410330
   0.80516838  0.42862334  0.58589670
   0.19483162  0.57137666  0.41410330
   0.80516838  0.57137666  0.41410330
   0.19483162  0.42862334  0.58589670
   0.19483162  0.92862334  0.91410330
   0.80516838  0.07137666  0.08589670
   0.00000000  0.60306404  0.15770801
   0.00000000  0.39693596  0.84229196
   0.00000000  0.89693596  0.65770804
   0.00000000  0.10306404  0.34229199
   0.50000000  0.10306404  0.15770801
   0.50000000  0.89693596  0.84229196
   0.50000000  0.39693596  0.65770804
   0.50000000  0.60306404  0.34229199
   0.00000000  0.26406967  0.66327522
   0.00000000  0.73593033  0.33672478
   0.00000000  0.23593033  0.16327522
   0.00000000  0.76406967  0.83672478
   0.50000000  0.76406967  0.66327522
   0.50000000  0.23593033  0.33672478
   0.50000000  0.73593033  0.16327522
   0.50000000  0.26406967  0.83672478
   0.00000000  0.23274481  0.29976789
   0.00000000  0.76725519  0.70023210
   0.00000000  0.26725519  0.79976790
   0.00000000  0.73274481  0.20023210
   0.50000000  0.73274481  0.29976789
   0.50000000  0.26725519  0.70023210
   0.50000000  0.76725519  0.79976790
   0.50000000  0.23274481  0.20023210
   0.74986084  0.50000000  0.00000000
   0.25013916  0.50000000  0.00000000
   0.25013916  0.00000000  0.50000000
   0.74986084  0.00000000  0.50000000
   0.24986084  0.00000000  0.00000000
   0.75013916  0.00000000  0.00000000
   0.75013916  0.50000000  0.50000000
   0.24986084  0.50000000  0.50000000
Direct configuration=     3
   0.07794168  0.79614841  0.15307527
   0.92205835  0.20385159  0.84692476
   0.92205835  0.70385159  0.65307524
   0.07794168  0.29614841  0.34692473
   0.92205835  0.29614841  0.34692473
   0.07794168  0.70385159  0.65307524
   0.07794168  0.20385159  0.84692476
   0.92205835  0.79614841  0.15307527
   0.57794165  0.29614841  0.15307527
   0.42205832  0.70385159  0.84692476
   0.42205832  0.20385159  0.65307524
   0.57794165  0.79614841  0.34692473
   0.42205832  0.79614841  0.34692473
   0.57794165  0.20385159  0.65307524
   0.57794165  0.70385159  0.84692476
   0.42205832  0.29614841  0.15307527
   0.80507094  0.58550931  0.92858863
   0.19492906  0.41449069  0.07141137
   0.19492906  0.91449069  0.42858863
   0.80507094  0.08550931  0.57141137
   0.19492906  0.08550931  0.57141137
   0.80507094  0.91449069  0.42858863
   0.80507094  0.41449069  0.07141137
   0.19492906  0.58550931  0.92858863
   0.30507094  0.08550931  0.92858863
   0.69492906  0.91449069  0.07141137
   0.69492906  0.41449069  0.42858863
   0.30507094  0.58550931  0.57141137
   0.69492906  0.58550931  0.57141137
   0.30507094  0.41449069  0.42858863
   0.30507094  0.91449069  0.07141137
   0.69492906  0.08550931  0.92858863
   0.69482757  0.57136821  0.08587800
   0.30517243  0.42863179  0.91412200
   0.30517243  0.92863179  0.58587800
   0.69482757  0.07136821  0.41412200
   0.30517243  0.07136821  0.41412200
   0.69482757  0.92863179  0.58587800
   0.69482757  0.42863179  0.91412200
   0.30517243  0.57136821  0.08587800
   0.19482757  0.07136821  0.08587800
   0.80517243  0.92863179  0.91412200
   0.80517243  0.42863179  0.58587800
   0.19482757  0.57136821  0.41412200
   0.80517243  0.57136821  0.41412200
   0.19482757  0.42863179  0.58587800
   0.19482757  0.92863179  0.91412200
   0.80517243  0.07136821  0.08587800
   0.00000000  0.60305000  0.15766088
   0.00000000  0.39695000  0.84233909
   0.00000000  0.89695000  0.65766091
   0.00000000  0.10305000  0.34233912
   0.50000000  0.10305000  0.15766088
   0.50000000  0.89695000  0.84233909
   0.50000000  0.39695000  0.65766091
   0.50000000  0.60305000  0.34233912
   0.00000000  0.26405090  0.66324946
   0.00000000  0.73594910  0.33675054
   0.00000000  0.23594910  0.16324946
   0.00000000  0.76405090  0.83675054
   0.50000000  0.76405090  0.66324946
   0.50000000  0.23594910  0.33675054
   0.50000000  0.73594910  0.16324946
   0.50000000  0.26405090  0.83675054
   0.00000000  0.23278291  0.29983494
   0.00000000  0.76721709  0.70016505
   0.00000000  0.26721709  0.79983495
   0.00000000  0.73278291  0.20016505
   0.50000000  0.73278291  0.29983494
   0.50000000  0.26721709  0.70016505
   0.50000000  0.76721709  0.79983495
   0.50000000  0.23278291  0.20016505
   0.74985955  0.50000000  0.00000000
   0.25014045  0.50000000  0.00000000
   0.25014045  0.00000000  0.50000000
   0.74985955  0.00000000  0.50000000
   0.24985955  0.00000000  0.00000000
   0.75014045  0.00000000  0.00000000
   0.75014045  0.50000000  0.50000000
   0.24985955  0.50000000  0.50000000
