diamond                                 
           1
    11.468896    0.000000    0.000000
     0.000000    8.022124    0.000000
     0.000000    0.000000    8.017129
   H    C 
  56  16
Direct configuration=     1
   0.80100000  0.57950002  0.93360001
   0.19900000  0.42049998  0.06639999
   0.19900000  0.92049998  0.43360001
   0.80100000  0.07950002  0.56639999
   0.19900000  0.07950002  0.56639999
   0.80100000  0.92049998  0.43360001
   0.80100000  0.42049998  0.06639999
   0.19900000  0.57950002  0.93360001
   0.30100000  0.07950002  0.93360001
   0.69900000  0.92049998  0.06639999
   0.69900000  0.42049998  0.43360001
   0.30100000  0.57950002  0.56639999
   0.69900000  0.57950002  0.56639999
   0.30100000  0.42049998  0.43360001
   0.30100000  0.92049998  0.06639999
   0.69900000  0.07950002  0.93360001
   0.69859999  0.56629997  0.07959998
   0.30140001  0.43370003  0.92040002
   0.30140001  0.93370003  0.57959998
   0.69859999  0.06629997  0.42040002
   0.30140001  0.06629997  0.42040002
   0.69859999  0.93370003  0.57959998
   0.69859999  0.43370003  0.92040002
   0.30140001  0.56629997  0.07959998
   0.19859999  0.06629997  0.07959998
   0.80140001  0.93370003  0.92040002
   0.80140001  0.43370003  0.57959998
   0.19859999  0.56629997  0.42040002
   0.80140001  0.56629997  0.42040002
   0.19859999  0.43370003  0.57959998
   0.19859999  0.93370003  0.92040002
   0.80140001  0.06629997  0.07959998
   0.07280000  0.78549999  0.18230000
   0.92720002  0.21450001  0.81770003
   0.92720002  0.71450001  0.68229997
   0.07280000  0.28549999  0.31770000
   0.92720002  0.28549999  0.31770000
   0.07280000  0.71450001  0.68229997
   0.07280000  0.21450001  0.81770003
   0.92720002  0.78549999  0.18230000
   0.57279998  0.28549999  0.18230000
   0.42719999  0.71450001  0.81770003
   0.42719999  0.21450001  0.68229997
   0.57279998  0.78549999  0.31770000
   0.42719999  0.78549999  0.31770000
   0.57279998  0.21450001  0.68229997
   0.57279998  0.71450001  0.81770003
   0.42719999  0.28549999  0.18230000
   0.00000000  0.60589999  0.19920000
   0.00000000  0.39410001  0.80079997
   0.00000000  0.89410001  0.69920003
   0.00000000  0.10589999  0.30080000
   0.50000000  0.10589999  0.19920000
   0.50000000  0.89410001  0.80079997
   0.50000000  0.39410001  0.69920003
   0.50000000  0.60589999  0.30080000
   0.00000000  0.72960001  0.23029999
   0.00000000  0.27039999  0.76969999
   0.00000000  0.77039999  0.73030001
   0.00000000  0.22960001  0.26969999
   0.50000000  0.22960001  0.23029999
   0.50000000  0.77039999  0.76969999
   0.50000000  0.27039999  0.73030001
   0.50000000  0.72960001  0.26969999
   0.74980003  0.50000000  0.00000000
   0.25019997  0.50000000  0.00000000
   0.25019997  0.00000000  0.50000000
   0.74980003  0.00000000  0.50000000
   0.24980003  0.00000000  0.00000000
   0.75019997  0.00000000  0.00000000
   0.75019997  0.50000000  0.50000000
   0.24980003  0.50000000  0.50000000
Direct configuration=     2
   0.80882552  0.59151684  0.92370825
   0.19117448  0.40848316  0.07629175
   0.19117448  0.90848316  0.42370825
   0.80882552  0.09151684  0.57629175
   0.19117448  0.09151684  0.57629175
   0.80882552  0.90848316  0.42370825
   0.80882552  0.40848316  0.07629175
   0.19117448  0.59151684  0.92370825
   0.30882552  0.09151684  0.92370825
   0.69117448  0.90848316  0.07629175
   0.69117448  0.40848316  0.42370825
   0.30882552  0.59151684  0.57629175
   0.69117448  0.59151684  0.57629175
   0.30882552  0.40848316  0.42370825
   0.30882552  0.90848316  0.07629175
   0.69117448  0.09151684  0.92370825
   0.69079101  0.57639553  0.09156164
   0.30920899  0.42360447  0.90843836
   0.30920899  0.92360447  0.59156164
   0.69079101  0.07639553  0.40843836
   0.30920899  0.07639553  0.40843836
   0.69079101  0.92360447  0.59156164
   0.69079101  0.42360447  0.90843836
   0.30920899  0.57639553  0.09156164
   0.19079101  0.07639553  0.09156164
   0.80920899  0.92360447  0.90843836
   0.80920899  0.42360447  0.59156164
   0.19079101  0.57639553  0.40843836
   0.80920899  0.57639553  0.40843836
   0.19079101  0.42360447  0.59156164
   0.19079101  0.92360447  0.90843836
   0.80920899  0.07639553  0.09156164
   0.08427392  0.79498715  0.18114772
   0.91572610  0.20501285  0.81885231
   0.91572610  0.70501285  0.68114769
   0.08427392  0.29498715  0.31885228
   0.91572610  0.29498715  0.31885228
   0.08427392  0.70501285  0.68114769
   0.08427392  0.20501285  0.81885231
   0.91572610  0.79498715  0.18114772
   0.58427390  0.29498715  0.18114772
   0.41572607  0.70501285  0.81885231
   0.41572607  0.20501285  0.68114769
   0.58427390  0.79498715  0.31885228
   0.41572607  0.79498715  0.31885228
   0.58427390  0.20501285  0.68114769
   0.58427390  0.70501285  0.81885231
   0.41572607  0.29498715  0.18114772
  -0.00000000  0.58704204  0.20077600
  -0.00000000  0.41295796  0.79922397
  -0.00000000  0.91295796  0.70077603
  -0.00000000  0.08704204  0.29922400
   0.50000000  0.08704204  0.20077600
   0.50000000  0.91295796  0.79922397
   0.50000000  0.41295796  0.70077603
   0.50000000  0.58704204  0.29922400
  -0.00000000  0.72982765  0.23094769
  -0.00000000  0.27017235  0.76905229
  -0.00000000  0.77017235  0.73094771
  -0.00000000  0.22982765  0.26905229
   0.50000000  0.22982765  0.23094769
   0.50000000  0.77017235  0.76905229
   0.50000000  0.27017235  0.73094771
   0.50000000  0.72982765  0.26905229
   0.74974979  0.50000000  0.00000000
   0.25025021  0.50000000  0.00000000
   0.25025021  0.00000000  0.50000000
   0.74974979  0.00000000  0.50000000
   0.24974979  0.00000000  0.00000000
   0.75025021  0.00000000  0.00000000
   0.75025021  0.50000000  0.50000000
   0.24974979  0.50000000  0.50000000
Direct configuration=     3
   0.80509825  0.58579327  0.92841966
   0.19490175  0.41420673  0.07158034
   0.19490175  0.91420673  0.42841966
   0.80509825  0.08579327  0.57158034
   0.19490175  0.08579327  0.57158034
   0.80509825  0.91420673  0.42841966
   0.80509825  0.41420673  0.07158034
   0.19490175  0.58579327  0.92841966
   0.30509825  0.08579327  0.92841966
   0.69490175  0.91420673  0.07158034
   0.69490175  0.41420673  0.42841966
   0.30509825  0.58579327  0.57158034
   0.69490175  0.58579327  0.57158034
   0.30509825  0.41420673  0.42841966
   0.30509825  0.91420673  0.07158034
   0.69490175  0.08579327  0.92841966
   0.69451041  0.57158705  0.08586434
   0.30548959  0.42841295  0.91413566
   0.30548959  0.92841295  0.58586434
   0.69451041  0.07158705  0.41413566
   0.30548959  0.07158705  0.41413566
   0.69451041  0.92841295  0.58586434
   0.69451041  0.42841295  0.91413566
   0.30548959  0.57158705  0.08586434
   0.19451041  0.07158705  0.08586434
   0.80548959  0.92841295  0.91413566
   0.80548959  0.42841295  0.58586434
   0.19451041  0.57158705  0.41413566
   0.80548959  0.57158705  0.41413566
   0.19451041  0.42841295  0.58586434
   0.19451041  0.92841295  0.91413566
   0.80548959  0.07158705  0.08586434
   0.07880893  0.79046844  0.18169655
   0.92119109  0.20953156  0.81830348
   0.92119109  0.70953156  0.68169652
   0.07880893  0.29046844  0.31830345
   0.92119109  0.29046844  0.31830345
   0.07880893  0.70953156  0.68169652
   0.07880893  0.20953156  0.81830348
   0.92119109  0.79046844  0.18169655
   0.57880891  0.29046844  0.18169655
   0.42119106  0.70953156  0.81830348
   0.42119106  0.20953156  0.68169652
   0.57880891  0.79046844  0.31830345
   0.42119106  0.79046844  0.31830345
   0.57880891  0.20953156  0.68169652
   0.57880891  0.70953156  0.81830348
   0.42119106  0.29046844  0.18169655
  -0.00000000  0.59602403  0.20002536
  -0.00000000  0.40397597  0.79997461
  -0.00000000  0.90397597  0.70002539
  -0.00000000  0.09602403  0.29997464
   0.50000000  0.09602403  0.20002536
   0.50000000  0.90397597  0.79997461
   0.50000000  0.40397597  0.70002539
   0.50000000  0.59602403  0.29997464
  -0.00000000  0.72971923  0.23063920
  -0.00000000  0.27028077  0.76936079
  -0.00000000  0.77028077  0.73063921
  -0.00000000  0.22971923  0.26936079
   0.50000000  0.22971923  0.23063920
   0.50000000  0.77028077  0.76936079
   0.50000000  0.27028077  0.73063921
   0.50000000  0.72971923  0.26936079
   0.74977372  0.50000000  0.00000000
   0.25022628  0.50000000  0.00000000
   0.25022628  0.00000000  0.50000000
   0.74977372  0.00000000  0.50000000
   0.24977372  0.00000000  0.00000000
   0.75022628  0.00000000  0.00000000
   0.75022628  0.50000000  0.50000000
   0.24977372  0.50000000  0.50000000
Direct configuration=     4
   0.80562503  0.58647354  0.92800376
   0.19437497  0.41352646  0.07199624
   0.19437497  0.91352646  0.42800376
   0.80562503  0.08647354  0.57199624
   0.19437497  0.08647354  0.57199624
   0.80562503  0.91352646  0.42800376
   0.80562503  0.41352646  0.07199624
   0.19437497  0.58647354  0.92800376
   0.30562503  0.08647354  0.92800376
   0.69437497  0.91352646  0.07199624
   0.69437497  0.41352646  0.42800376
   0.30562503  0.58647354  0.57199624
   0.69437497  0.58647354  0.57199624
   0.30562503  0.41352646  0.42800376
   0.30562503  0.91352646  0.07199624
   0.69437497  0.08647354  0.92800376
   0.69398243  0.57224456  0.08649308
   0.30601757  0.42775544  0.91350692
   0.30601757  0.92775544  0.58649308
   0.69398243  0.07224456  0.41350692
   0.30601757  0.07224456  0.41350692
   0.69398243  0.92775544  0.58649308
   0.69398243  0.42775544  0.91350692
   0.30601757  0.57224456  0.08649308
   0.19398243  0.07224456  0.08649308
   0.80601757  0.92775544  0.91350692
   0.80601757  0.42775544  0.58649308
   0.19398243  0.57224456  0.41350692
   0.80601757  0.57224456  0.41350692
   0.19398243  0.42775544  0.58649308
   0.19398243  0.92775544  0.91350692
   0.80601757  0.07224456  0.08649308
   0.08014129  0.79201255  0.18534183
   0.91985873  0.20798745  0.81465820
   0.91985873  0.70798745  0.68534180
   0.08014129  0.29201255  0.31465817
   0.91985873  0.29201255  0.31465817
   0.08014129  0.70798745  0.68534180
   0.08014129  0.20798745  0.81465820
   0.91985873  0.79201255  0.18534183
   0.58014127  0.29201255  0.18534183
   0.41985871  0.70798745  0.81465820
   0.41985871  0.20798745  0.68534180
   0.58014127  0.79201255  0.31465817
   0.41985871  0.79201255  0.31465817
   0.58014127  0.20798745  0.68534180
   0.58014127  0.70798745  0.81465820
   0.41985871  0.29201255  0.18534183
  -0.00000000  0.59427024  0.20411340
  -0.00000000  0.40572976  0.79588657
  -0.00000000  0.90572976  0.70411343
  -0.00000000  0.09427024  0.29588660
   0.50000000  0.09427024  0.20411340
   0.50000000  0.90572976  0.79588657
   0.50000000  0.40572976  0.70411343
   0.50000000  0.59427024  0.29588660
  -0.00000000  0.72868950  0.21906127
  -0.00000000  0.27131050  0.78093872
  -0.00000000  0.77131050  0.71906128
  -0.00000000  0.22868950  0.28093872
   0.50000000  0.22868950  0.21906127
   0.50000000  0.77131050  0.78093872
   0.50000000  0.27131050  0.71906128
   0.50000000  0.72868950  0.28093872
   0.74975037  0.50000000  0.00000000
   0.25024963  0.50000000  0.00000000
   0.25024963  0.00000000  0.50000000
   0.74975037  0.00000000  0.50000000
   0.24975037  0.00000000  0.00000000
   0.75024963  0.00000000  0.00000000
   0.75024963  0.50000000  0.50000000
   0.24975037  0.50000000  0.50000000
Direct configuration=     5
   0.80605519  0.58702903  0.92766415
   0.19394481  0.41297097  0.07233585
   0.19394481  0.91297097  0.42766415
   0.80605519  0.08702903  0.57233585
   0.19394481  0.08702903  0.57233585
   0.80605519  0.91297097  0.42766415
   0.80605519  0.41297097  0.07233585
   0.19394481  0.58702903  0.92766415
   0.30605519  0.08702903  0.92766415
   0.69394481  0.91297097  0.07233585
   0.69394481  0.41297097  0.42766415
   0.30605519  0.58702903  0.57233585
   0.69394481  0.58702903  0.57233585
   0.30605519  0.41297097  0.42766415
   0.30605519  0.91297097  0.07233585
   0.69394481  0.08702903  0.92766415
   0.69355129  0.57278146  0.08700649
   0.30644871  0.42721854  0.91299351
   0.30644871  0.92721854  0.58700649
   0.69355129  0.07278146  0.41299351
   0.30644871  0.07278146  0.41299351
   0.69355129  0.92721854  0.58700649
   0.69355129  0.42721854  0.91299351
   0.30644871  0.57278146  0.08700649
   0.19355129  0.07278146  0.08700649
   0.80644871  0.92721854  0.91299351
   0.80644871  0.42721854  0.58700649
   0.19355129  0.57278146  0.41299351
   0.80644871  0.57278146  0.41299351
   0.19355129  0.42721854  0.58700649
   0.19355129  0.92721854  0.91299351
   0.80644871  0.07278146  0.08700649
   0.08122926  0.79327342  0.18831849
   0.91877076  0.20672658  0.81168154
   0.91877076  0.70672658  0.68831846
   0.08122926  0.29327342  0.31168151
   0.91877076  0.29327342  0.31168151
   0.08122926  0.70672658  0.68831846
   0.08122926  0.20672658  0.81168154
   0.91877076  0.79327342  0.18831849
   0.58122924  0.29327342  0.18831849
   0.41877074  0.70672658  0.81168154
   0.41877074  0.20672658  0.68831846
   0.58122924  0.79327342  0.31168151
   0.41877074  0.79327342  0.31168151
   0.58122924  0.20672658  0.68831846
   0.58122924  0.70672658  0.81168154
   0.41877074  0.29327342  0.18831849
  -0.00000000  0.59283813  0.20745160
  -0.00000000  0.40716187  0.79254837
  -0.00000000  0.90716187  0.70745163
  -0.00000000  0.09283813  0.29254840
   0.50000000  0.09283813  0.20745160
   0.50000000  0.90716187  0.79254837
   0.50000000  0.40716187  0.70745163
   0.50000000  0.59283813  0.29254840
  -0.00000000  0.72784865  0.20960701
  -0.00000000  0.27215135  0.79039297
  -0.00000000  0.77215135  0.70960703
  -0.00000000  0.22784865  0.29039297
   0.50000000  0.22784865  0.20960701
   0.50000000  0.77215135  0.79039297
   0.50000000  0.27215135  0.70960703
   0.50000000  0.72784865  0.29039297
   0.74973131  0.50000000  0.00000000
   0.25026869  0.50000000  0.00000000
   0.25026869  0.00000000  0.50000000
   0.74973131  0.00000000  0.50000000
   0.24973131  0.00000000  0.00000000
   0.75026869  0.00000000  0.00000000
   0.75026869  0.50000000  0.50000000
   0.24973131  0.50000000  0.50000000
Direct configuration=     6
   0.80626425  0.58729901  0.92749910
   0.19373575  0.41270099  0.07250090
   0.19373575  0.91270099  0.42749910
   0.80626425  0.08729901  0.57250090
   0.19373575  0.08729901  0.57250090
   0.80626425  0.91270099  0.42749910
   0.80626425  0.41270099  0.07250090
   0.19373575  0.58729901  0.92749910
   0.30626425  0.08729901  0.92749910
   0.69373575  0.91270099  0.07250090
   0.69373575  0.41270099  0.42749910
   0.30626425  0.58729901  0.57250090
   0.69373575  0.58729901  0.57250090
   0.30626425  0.41270099  0.42749910
   0.30626425  0.91270099  0.07250090
   0.69373575  0.08729901  0.92749910
   0.69334176  0.57304240  0.08725601
   0.30665824  0.42695760  0.91274399
   0.30665824  0.92695760  0.58725601
   0.69334176  0.07304240  0.41274399
   0.30665824  0.07304240  0.41274399
   0.69334176  0.92695760  0.58725601
   0.69334176  0.42695760  0.91274399
   0.30665824  0.57304240  0.08725601
   0.19334176  0.07304240  0.08725601
   0.80665824  0.92695760  0.91274399
   0.80665824  0.42695760  0.58725601
   0.19334176  0.57304240  0.41274399
   0.80665824  0.57304240  0.41274399
   0.19334176  0.42695760  0.58725601
   0.19334176  0.92695760  0.91274399
   0.80665824  0.07304240  0.08725601
   0.08175801  0.79388621  0.18976515
   0.91824201  0.20611379  0.81023488
   0.91824201  0.70611379  0.68976512
   0.08175801  0.29388621  0.31023485
   0.91824201  0.29388621  0.31023485
   0.08175801  0.70611379  0.68976512
   0.08175801  0.20611379  0.81023488
   0.91824201  0.79388621  0.18976515
   0.58175799  0.29388621  0.18976515
   0.41824198  0.70611379  0.81023488
   0.41824198  0.20611379  0.68976512
   0.58175799  0.79388621  0.31023485
   0.41824198  0.79388621  0.31023485
   0.58175799  0.20611379  0.68976512
   0.58175799  0.70611379  0.81023488
   0.41824198  0.29388621  0.18976515
  -0.00000000  0.59214213  0.20907398
  -0.00000000  0.40785787  0.79092599
  -0.00000000  0.90785787  0.70907401
  -0.00000000  0.09214213  0.29092602
   0.50000000  0.09214213  0.20907398
   0.50000000  0.90785787  0.79092599
   0.50000000  0.40785787  0.70907401
   0.50000000  0.59214213  0.29092602
  -0.00000000  0.72744000  0.20501221
  -0.00000000  0.27256000  0.79498777
  -0.00000000  0.77256000  0.70501223
  -0.00000000  0.22744000  0.29498777
   0.50000000  0.22744000  0.20501221
   0.50000000  0.77256000  0.79498777
   0.50000000  0.27256000  0.70501223
   0.50000000  0.72744000  0.29498777
   0.74972205  0.50000000  0.00000000
   0.25027795  0.50000000  0.00000000
   0.25027795  0.00000000  0.50000000
   0.74972205  0.00000000  0.50000000
   0.24972205  0.00000000  0.00000000
   0.75027795  0.00000000  0.00000000
   0.75027795  0.50000000  0.50000000
   0.24972205  0.50000000  0.50000000
Direct configuration=     7
   0.80461316  0.58462428  0.92996275
   0.19538684  0.41537572  0.07003725
   0.19538684  0.91537572  0.42996275
   0.80461316  0.08462428  0.57003725
   0.19538684  0.08462428  0.57003725
   0.80461316  0.91537572  0.42996275
   0.80461316  0.41537572  0.07003725
   0.19538684  0.58462428  0.92996275
   0.30461316  0.08462428  0.92996275
   0.69538684  0.91537572  0.07003725
   0.69538684  0.41537572  0.42996275
   0.30461316  0.58462428  0.57003725
   0.69538684  0.58462428  0.57003725
   0.30461316  0.41537572  0.42996275
   0.30461316  0.91537572  0.07003725
   0.69538684  0.08462428  0.92996275
   0.69504146  0.57082119  0.08438826
   0.30495854  0.42917881  0.91561174
   0.30495854  0.92917881  0.58438826
   0.69504146  0.07082119  0.41561174
   0.30495854  0.07082119  0.41561174
   0.69504146  0.92917881  0.58438826
   0.69504146  0.42917881  0.91561174
   0.30495854  0.57082119  0.08438826
   0.19504146  0.07082119  0.08438826
   0.80495854  0.92917881  0.91561174
   0.80495854  0.42917881  0.58438826
   0.19504146  0.57082119  0.41561174
   0.80495854  0.57082119  0.41561174
   0.19504146  0.42917881  0.58438826
   0.19504146  0.92917881  0.91561174
   0.80495854  0.07082119  0.08438826
   0.08219633  0.79439018  0.19096786
   0.91780369  0.20560982  0.80903217
   0.91780369  0.70560982  0.69096783
   0.08219633  0.29439018  0.30903214
   0.91780369  0.29439018  0.30903214
   0.08219633  0.70560982  0.69096783
   0.08219633  0.20560982  0.80903217
   0.91780369  0.79439018  0.19096786
   0.58219631  0.29439018  0.19096786
   0.41780366  0.70560982  0.80903217
   0.41780366  0.20560982  0.69096783
   0.58219631  0.79439018  0.30903214
   0.41780366  0.79439018  0.30903214
   0.58219631  0.20560982  0.69096783
   0.58219631  0.70560982  0.80903217
   0.41780366  0.29439018  0.19096786
  -0.00000000  0.59161504  0.21040849
  -0.00000000  0.40838496  0.78959148
  -0.00000000  0.90838496  0.71040852
  -0.00000000  0.09161504  0.28959151
   0.50000000  0.09161504  0.21040849
   0.50000000  0.90838496  0.78959148
   0.50000000  0.40838496  0.71040852
   0.50000000  0.59161504  0.28959151
  -0.00000000  0.72740086  0.20085924
  -0.00000000  0.27259914  0.79914075
  -0.00000000  0.77259914  0.70085925
  -0.00000000  0.22740086  0.29914075
   0.50000000  0.22740086  0.20085924
   0.50000000  0.77259914  0.79914075
   0.50000000  0.27259914  0.70085925
   0.50000000  0.72740086  0.29914075
   0.74954133  0.50000000  0.00000000
   0.25045867  0.50000000  0.00000000
   0.25045867  0.00000000  0.50000000
   0.74954133  0.00000000  0.50000000
   0.24954133  0.00000000  0.00000000
   0.75045867  0.00000000  0.00000000
   0.75045867  0.50000000  0.50000000
   0.24954133  0.50000000  0.50000000
Direct configuration=     8
   0.80517421  0.58553316  0.92912559
   0.19482579  0.41446684  0.07087441
   0.19482579  0.91446684  0.42912559
   0.80517421  0.08553316  0.57087441
   0.19482579  0.08553316  0.57087441
   0.80517421  0.91446684  0.42912559
   0.80517421  0.41446684  0.07087441
   0.19482579  0.58553316  0.92912559
   0.30517421  0.08553316  0.92912559
   0.69482579  0.91446684  0.07087441
   0.69482579  0.41446684  0.42912559
   0.30517421  0.58553316  0.57087441
   0.69482579  0.58553316  0.57087441
   0.30517421  0.41446684  0.42912559
   0.30517421  0.91446684  0.07087441
   0.69482579  0.08553316  0.92912559
   0.69446390  0.57157597  0.08536273
   0.30553610  0.42842403  0.91463727
   0.30553610  0.92842403  0.58536273
   0.69446390  0.07157597  0.41463727
   0.30553610  0.07157597  0.41463727
   0.69446390  0.92842403  0.58536273
   0.69446390  0.42842403  0.91463727
   0.30553610  0.57157597  0.08536273
   0.19446390  0.07157597  0.08536273
   0.80553610  0.92842403  0.91463727
   0.80553610  0.42842403  0.58536273
   0.19446390  0.57157597  0.41463727
   0.80553610  0.57157597  0.41463727
   0.19446390  0.42842403  0.58536273
   0.19446390  0.92842403  0.91463727
   0.80553610  0.07157597  0.08536273
   0.08204739  0.79421893  0.19055917
   0.91795263  0.20578107  0.80944086
   0.91795263  0.70578107  0.69055914
   0.08204739  0.29421893  0.30944083
   0.91795263  0.29421893  0.30944083
   0.08204739  0.70578107  0.69055914
   0.08204739  0.20578107  0.80944086
   0.91795263  0.79421893  0.19055917
   0.58204737  0.29421893  0.19055917
   0.41795260  0.70578107  0.80944086
   0.41795260  0.20578107  0.69055914
   0.58204737  0.79421893  0.30944083
   0.41795260  0.79421893  0.30944083
   0.58204737  0.20578107  0.69055914
   0.58204737  0.70578107  0.80944086
   0.41795260  0.29421893  0.19055917
  -0.00000000  0.59179414  0.20995502
  -0.00000000  0.40820586  0.79004495
  -0.00000000  0.90820586  0.70995505
  -0.00000000  0.09179414  0.29004498
   0.50000000  0.09179414  0.20995502
   0.50000000  0.90820586  0.79004495
   0.50000000  0.40820586  0.70995505
   0.50000000  0.59179414  0.29004498
  -0.00000000  0.72741416  0.20227044
  -0.00000000  0.27258584  0.79772955
  -0.00000000  0.77258584  0.70227045
  -0.00000000  0.22741416  0.29772955
   0.50000000  0.22741416  0.20227044
   0.50000000  0.77258584  0.79772955
   0.50000000  0.27258584  0.70227045
   0.50000000  0.72741416  0.29772955
   0.74960274  0.50000000  0.00000000
   0.25039726  0.50000000  0.00000000
   0.25039726  0.00000000  0.50000000
   0.74960274  0.00000000  0.50000000
   0.24960274  0.00000000  0.00000000
   0.75039726  0.00000000  0.00000000
   0.75039726  0.50000000  0.50000000
   0.24960274  0.50000000  0.50000000
Direct configuration=     9
   0.80515792  0.58547506  0.92931326
   0.19484208  0.41452494  0.07068674
   0.19484208  0.91452494  0.42931326
   0.80515792  0.08547506  0.57068674
   0.19484208  0.08547506  0.57068674
   0.80515792  0.91452494  0.42931326
   0.80515792  0.41452494  0.07068674
   0.19484208  0.58547506  0.92931326
   0.30515792  0.08547506  0.92931326
   0.69484208  0.91452494  0.07068674
   0.69484208  0.41452494  0.42931326
   0.30515792  0.58547506  0.57068674
   0.69484208  0.58547506  0.57068674
   0.30515792  0.41452494  0.42931326
   0.30515792  0.91452494  0.07068674
   0.69484208  0.08547506  0.92931326
   0.69437577  0.57165835  0.08535509
   0.30562423  0.42834165  0.91464491
   0.30562423  0.92834165  0.58535509
   0.69437577  0.07165835  0.41464491
   0.30562423  0.07165835  0.41464491
   0.69437577  0.92834165  0.58535509
   0.69437577  0.42834165  0.91464491
   0.30562423  0.57165835  0.08535509
   0.19437577  0.07165835  0.08535509
   0.80562423  0.92834165  0.91464491
   0.80562423  0.42834165  0.58535509
   0.19437577  0.57165835  0.41464491
   0.80562423  0.57165835  0.41464491
   0.19437577  0.42834165  0.58535509
   0.19437577  0.92834165  0.91464491
   0.80562423  0.07165835  0.08535509
   0.08192943  0.79418889  0.19076845
   0.91807060  0.20581111  0.80923158
   0.91807060  0.70581111  0.69076842
   0.08192943  0.29418889  0.30923155
   0.91807060  0.29418889  0.30923155
   0.08192943  0.70581111  0.69076842
   0.08192943  0.20581111  0.80923158
   0.91807060  0.79418889  0.19076845
   0.58192940  0.29418889  0.19076845
   0.41807057  0.70581111  0.80923158
   0.41807057  0.20581111  0.69076842
   0.58192940  0.79418889  0.30923155
   0.41807057  0.79418889  0.30923155
   0.58192940  0.20581111  0.69076842
   0.58192940  0.70581111  0.80923158
   0.41807057  0.29418889  0.19076845
  -0.00000000  0.59253331  0.21010487
  -0.00000000  0.40746669  0.78989510
  -0.00000000  0.90746669  0.71010490
  -0.00000000  0.09253331  0.28989513
   0.50000000  0.09253331  0.21010487
   0.50000000  0.90746669  0.78989510
   0.50000000  0.40746669  0.71010490
   0.50000000  0.59253331  0.28989513
  -0.00000000  0.72709343  0.20137838
  -0.00000000  0.27290657  0.79862160
  -0.00000000  0.77290657  0.70137840
  -0.00000000  0.22709343  0.29862160
   0.50000000  0.22709343  0.20137838
   0.50000000  0.77290657  0.79862160
   0.50000000  0.27290657  0.70137840
   0.50000000  0.72709343  0.29862160
   0.74973554  0.50000000  0.00000000
   0.25026446  0.50000000  0.00000000
   0.25026446  0.00000000  0.50000000
   0.74973554  0.00000000  0.50000000
   0.24973554  0.00000000  0.00000000
   0.75026446  0.00000000  0.00000000
   0.75026446  0.50000000  0.50000000
   0.24973554  0.50000000  0.50000000
Direct configuration=    10
   0.80516320  0.58549390  0.92925241
   0.19483680  0.41450610  0.07074759
   0.19483680  0.91450610  0.42925241
   0.80516320  0.08549390  0.57074759
   0.19483680  0.08549390  0.57074759
   0.80516320  0.91450610  0.42925241
   0.80516320  0.41450610  0.07074759
   0.19483680  0.58549390  0.92925241
   0.30516320  0.08549390  0.92925241
   0.69483680  0.91450610  0.07074759
   0.69483680  0.41450610  0.42925241
   0.30516320  0.58549390  0.57074759
   0.69483680  0.58549390  0.57074759
   0.30516320  0.41450610  0.42925241
   0.30516320  0.91450610  0.07074759
   0.69483680  0.08549390  0.92925241
   0.69440434  0.57163164  0.08535757
   0.30559566  0.42836836  0.91464243
   0.30559566  0.92836836  0.58535757
   0.69440434  0.07163164  0.41464243
   0.30559566  0.07163164  0.41464243
   0.69440434  0.92836836  0.58535757
   0.69440434  0.42836836  0.91464243
   0.30559566  0.57163164  0.08535757
   0.19440434  0.07163164  0.08535757
   0.80559566  0.92836836  0.91464243
   0.80559566  0.42836836  0.58535757
   0.19440434  0.57163164  0.41464243
   0.80559566  0.57163164  0.41464243
   0.19440434  0.42836836  0.58535757
   0.19440434  0.92836836  0.91464243
   0.80559566  0.07163164  0.08535757
   0.08196767  0.79419863  0.19070059
   0.91803235  0.20580137  0.80929943
   0.91803235  0.70580137  0.69070057
   0.08196767  0.29419863  0.30929941
   0.91803235  0.29419863  0.30929941
   0.08196767  0.70580137  0.69070057
   0.08196767  0.20580137  0.80929943
   0.91803235  0.79419863  0.19070059
   0.58196765  0.29419863  0.19070059
   0.41803232  0.70580137  0.80929943
   0.41803232  0.20580137  0.69070057
   0.58196765  0.79419863  0.30929941
   0.41803232  0.79419863  0.30929941
   0.58196765  0.20580137  0.69070057
   0.58196765  0.70580137  0.80929943
   0.41803232  0.29419863  0.19070059
  -0.00000000  0.59229364  0.21005629
  -0.00000000  0.40770636  0.78994368
  -0.00000000  0.90770636  0.71005632
  -0.00000000  0.09229364  0.28994371
   0.50000000  0.09229364  0.21005629
   0.50000000  0.90770636  0.78994368
   0.50000000  0.40770636  0.71005632
   0.50000000  0.59229364  0.28994371
  -0.00000000  0.72719743  0.20166762
  -0.00000000  0.27280257  0.79833236
  -0.00000000  0.77280257  0.70166764
  -0.00000000  0.22719743  0.29833236
   0.50000000  0.22719743  0.20166762
   0.50000000  0.77280257  0.79833236
   0.50000000  0.27280257  0.70166764
   0.50000000  0.72719743  0.29833236
   0.74969248  0.50000000  0.00000000
   0.25030752  0.50000000  0.00000000
   0.25030752  0.00000000  0.50000000
   0.74969248  0.00000000  0.50000000
   0.24969248  0.00000000  0.00000000
   0.75030752  0.00000000  0.00000000
   0.75030752  0.50000000  0.50000000
   0.24969248  0.50000000  0.50000000
Direct configuration=    11
   0.80523091  0.58556792  0.92930513
   0.19476909  0.41443208  0.07069487
   0.19476909  0.91443208  0.42930513
   0.80523091  0.08556792  0.57069487
   0.19476909  0.08556792  0.57069487
   0.80523091  0.91443208  0.42930513
   0.80523091  0.41443208  0.07069487
   0.19476909  0.58556792  0.92930513
   0.30523091  0.08556792  0.92930513
   0.69476909  0.91443208  0.07069487
   0.69476909  0.41443208  0.42930513
   0.30523091  0.58556792  0.57069487
   0.69476909  0.58556792  0.57069487
   0.30523091  0.41443208  0.42930513
   0.30523091  0.91443208  0.07069487
   0.69476909  0.08556792  0.92930513
   0.69434027  0.57169466  0.08535344
   0.30565973  0.42830534  0.91464656
   0.30565973  0.92830534  0.58535344
   0.69434027  0.07169466  0.41464656
   0.30565973  0.07169466  0.41464656
   0.69434027  0.92830534  0.58535344
   0.69434027  0.42830534  0.91464656
   0.30565973  0.57169466  0.08535344
   0.19434027  0.07169466  0.08535344
   0.80565973  0.92830534  0.91464656
   0.80565973  0.42830534  0.58535344
   0.19434027  0.57169466  0.41464656
   0.80565973  0.57169466  0.41464656
   0.19434027  0.42830534  0.58535344
   0.19434027  0.92830534  0.91464656
   0.80565973  0.07169466  0.08535344
   0.08187947  0.79416850  0.19085303
   0.91812056  0.20583150  0.80914700
   0.91812056  0.70583150  0.69085300
   0.08187947  0.29416850  0.30914697
   0.91812056  0.29416850  0.30914697
   0.08187947  0.70583150  0.69085300
   0.08187947  0.20583150  0.80914700
   0.91812056  0.79416850  0.19085303
   0.58187944  0.29416850  0.19085303
   0.41812053  0.70583150  0.80914700
   0.41812053  0.20583150  0.69085300
   0.58187944  0.79416850  0.30914697
   0.41812053  0.79416850  0.30914697
   0.58187944  0.20583150  0.69085300
   0.58187944  0.70583150  0.80914700
   0.41812053  0.29416850  0.19085303
  -0.00000000  0.59247172  0.21018248
  -0.00000000  0.40752828  0.78981749
  -0.00000000  0.90752828  0.71018251
  -0.00000000  0.09247172  0.28981752
   0.50000000  0.09247172  0.21018248
   0.50000000  0.90752828  0.78981749
   0.50000000  0.40752828  0.71018251
   0.50000000  0.59247172  0.28981752