graphite                                
           1
     2.562886    0.000000    0.000000
     1.281443    2.219525    0.000000
     1.281443    0.739842    2.092588
   C 
   2
Direct configuration=     1
   0.00000000  0.00000000  0.00000000
   0.25000000  0.25000000  0.24999999
