32   
4    

1    
  0.0033672570199121  -0.0000013101345137   0.0094160277423869
  -0.2141726600    0.0092473100   -0.1324004700
   0.0312913200    0.0083413900   -0.0033964900
  -0.0043434100   -0.0122628800   -0.0033248700
  -0.0044498500    0.0290438500   -0.0035551000
  -0.0175617900    0.0077708300    0.0037718500
  -0.0175363000    0.0077717200    0.0037902200
  -0.0175462000    0.0077652100    0.0037901600
  -0.0175454900    0.0077760000    0.0037903300
   0.0149198900   -0.0102446200   -0.0038345700
   0.0147672700   -0.0103272900   -0.0038858500
   0.0149140000   -0.0101522000   -0.0038577000
   0.0147709600   -0.0102541200   -0.0034897500
   0.0144907000   -0.0062976700   -0.0039220200
   0.0146167600   -0.0063680100   -0.0038755000
   0.0146110100   -0.0064482900   -0.0038995000
   0.0144709000   -0.0063780100   -0.0033711000
   0.0037235800   -0.0072037800    0.0118515200
   0.0303899600   -0.0078986100    0.0473415800
   0.0749071800    0.0183947700    0.0477268500
   0.0750010300   -0.0329856400    0.0468811400
   0.0157412200   -0.0068456900   -0.0005316500
   0.0157410800   -0.0068456500   -0.0005207700
   0.0157434000   -0.0068443700   -0.0005224000
   0.0157427300   -0.0068469400   -0.0005163400
  -0.0136988700    0.0093536100    0.0008762800
  -0.0132455900    0.0094338100    0.0008939400
  -0.0135422000    0.0090137300    0.0008953100
  -0.0133974000    0.0092634000    0.0003198800
  -0.0120302500    0.0051169300    0.0009008300
  -0.0123611900    0.0052032100    0.0008684600
  -0.0122739100    0.0054497600    0.0008717500
  -0.0121379000    0.0052582400    0.0003339600

1    
 -0.0033672570199121   0.0000013101345137  -0.0094160277423869
   0.1865709400    0.0087264600    0.1325500400
  -0.0589054200    0.0078349100    0.0035695000
  -0.0231638300    0.0284778600    0.0036387200
  -0.0232706000   -0.0128312300    0.0035875300
  -0.0116248500    0.0085221900   -0.0036119100
  -0.0116494800    0.0085220800   -0.0036327500
  -0.0116402200    0.0085268900   -0.0036327700
  -0.0116399300    0.0085163100   -0.0036329200
   0.0144003500   -0.0106741600    0.0037278100
   0.0145324700   -0.0105958400    0.0037737800
   0.0144013600   -0.0107507400    0.0037486900
   0.0145358600   -0.0106611500    0.0032220800
   0.0139187500   -0.0061060400    0.0037006400
   0.0137780800   -0.0060368700    0.0036485100
   0.0137891700   -0.0059382900    0.0036761700
   0.0139120600   -0.0060073300    0.0032980900
   0.0202181900   -0.0069239900   -0.0118680300
  -0.0064505400   -0.0074048300   -0.0473607300
  -0.0512388000   -0.0327369900   -0.0469625700
  -0.0507873500    0.0186391700   -0.0476798100
   0.0097001000   -0.0073198800    0.0005311600
   0.0096997100   -0.0073204800    0.0005205300
   0.0096987300   -0.0073207000    0.0005192100
   0.0096978600   -0.0073187200    0.0005183400
  -0.0129715700    0.0096032600   -0.0008481100
  -0.0133109800    0.0095254600   -0.0008745900
  -0.0130711900    0.0098461400   -0.0008715000
  -0.0132131200    0.0096620900   -0.0003124600
  -0.0116971800    0.0050561900   -0.0009139600
  -0.0112625100    0.0049731800   -0.0008566200
  -0.0114077700    0.0046285200   -0.0008557400
  -0.0115483000    0.0048865200   -0.0003163400

17   
  0.0033672570199121  -0.0000013101345137   0.0094160277423869
  -0.0233022500    0.0080467000    0.0088898800
   0.0033682300    0.0085359300    0.0443828600
   0.0481486200    0.0338421600    0.0439863900
   0.0477159000   -0.0175255200    0.0446960700
  -0.0111001300    0.0085606900   -0.0035078200
  -0.0111000900    0.0085616000   -0.0034970100
  -0.0110987900    0.0085620700   -0.0035016400
  -0.0110980700    0.0085595200   -0.0034891200
   0.0155563300   -0.0113977600    0.0038101100
   0.0156595900   -0.0113531900    0.0039266800
   0.0155739900   -0.0114099600    0.0038679400
   0.0156745600   -0.0113826200    0.0033081500
   0.0135099700   -0.0057069700    0.0039104600
   0.0134212200   -0.0055770000    0.0037543000
   0.0133576000   -0.0056193100    0.0038212200
   0.0135351300   -0.0056442700    0.0032754400
  -0.1869268300   -0.0078415600   -0.1354279400
   0.0583896900   -0.0069706700   -0.0070519600
   0.0230939500   -0.0273517300   -0.0071194000
   0.0232031300    0.0134597100   -0.0070804500
   0.0089638800   -0.0072997100    0.0005941200
   0.0089621600   -0.0072992300    0.0004503100
   0.0089638700   -0.0072990300    0.0004503200
   0.0089636500   -0.0073013900    0.0004515300
  -0.0145155800    0.0103956200   -0.0003194200
  -0.0142073500    0.0103926600   -0.0002693600
  -0.0143553500    0.0101413900   -0.0003272000
  -0.0143416800    0.0102958800   -0.0005209700
  -0.0108448500    0.0043164800   -0.0002140400
  -0.0111528700    0.0043123600   -0.0003798100
  -0.0109916500    0.0045782000   -0.0003344800
  -0.0110259700    0.0044189700   -0.0005351600

17   
 -0.0033672570199121   0.0000013101345137  -0.0094160277423869
  -0.0052432600    0.0086306900   -0.0086722800
  -0.0319079500    0.0093218200   -0.0441646300
  -0.0764295500   -0.0169602200   -0.0445502100
  -0.0765049000    0.0344043100   -0.0437068500
  -0.0179727200    0.0082564600    0.0037120900
  -0.0179713700    0.0082567300    0.0037016100
  -0.0179740600    0.0082534600    0.0036968200
  -0.0179739800    0.0082577600    0.0037028800
   0.0157326500   -0.0109358800   -0.0039995000
   0.0156381900   -0.0109715300   -0.0041196900
   0.0157127400   -0.0109134600   -0.0040496000
   0.0156144100   -0.0109459000   -0.0035051300
   0.0137820000   -0.0056502400   -0.0041292600
   0.0138710300   -0.0058006200   -0.0040064000
   0.0139519500   -0.0057506300   -0.0040654200
   0.0137746500   -0.0057276000   -0.0035033400
   0.2117664900   -0.0083797000    0.1353823100
  -0.0335376200   -0.0074701500    0.0070298100
   0.0016557700    0.0128829000    0.0069607200
   0.0017594500   -0.0279320400    0.0071980000
   0.0163236400   -0.0073474300   -0.0005973500
   0.0163218200   -0.0073464900   -0.0004515100
   0.0163210600   -0.0073476200   -0.0004515300
   0.0163222700   -0.0073463100   -0.0004525800
  -0.0142012500    0.0099182000    0.0003384500
  -0.0145022400    0.0099297600    0.0002938200
  -0.0143646200    0.0101835600    0.0003394900
  -0.0143743000    0.0100236000    0.0005314500
  -0.0115694600    0.0047295700    0.0002235700
  -0.0112537000    0.0047036600    0.0004058100
  -0.0113928900    0.0044576600    0.0003495000
  -0.0113742900    0.0046156900    0.0005589200
