# Thermal properties / unit cell (natom)

unit:
  temperature:   K
  free_energy:   kJ/mol
  entropy:       J/K/mol
  heat_capacity: J/K/mol

natom:     4
num_modes: 3888
num_integrated_modes: 3874

zero_point_energy:      65.2804497
high_T_entropy:        230.2090457

thermal_properties:
- temperature:         0.0000000
  free_energy:        65.2804497
  entropy:             0.0000000
  heat_capacity:       0.0000000
  energy:             65.2804497

- temperature:        10.0000000
  free_energy:        65.2804048
  entropy:             0.0190742
  heat_capacity:       0.0488795
  energy:             65.2805955

- temperature:        20.0000000
  free_energy:        65.2799398
  entropy:             0.0763055
  heat_capacity:       0.1289918
  energy:             65.2814659

- temperature:        30.0000000
  free_energy:        65.2788205
  entropy:             0.1515320
  heat_capacity:       0.2653658
  energy:             65.2833665

- temperature:        40.0000000
  free_energy:        65.2768042
  entropy:             0.2581699
  heat_capacity:       0.5078189
  energy:             65.2871310

- temperature:        50.0000000
  free_energy:        65.2735102
  entropy:             0.4086707
  heat_capacity:       0.8759817
  energy:             65.2939438

- temperature:        60.0000000
  free_energy:        65.2684601
  entropy:             0.6102594
  heat_capacity:       1.3717773
  energy:             65.3050757

- temperature:        70.0000000
  free_energy:        65.2611210
  entropy:             0.8670154
  heat_capacity:       1.9974368
  energy:             65.3218121

- temperature:        80.0000000
  free_energy:        65.2509265
  entropy:             1.1817564
  heat_capacity:       2.7557241
  energy:             65.3454670

- temperature:        90.0000000
  free_energy:        65.2372859
  entropy:             1.5564532
  heat_capacity:       3.6458803
  energy:             65.3773667

- temperature:       100.0000000
  free_energy:        65.2195941
  entropy:             1.9921148
  heat_capacity:       4.6621756
  energy:             65.4188055

- temperature:       110.0000000
  free_energy:        65.1972405
  entropy:             2.4886988
  heat_capacity:       5.7944918
  energy:             65.4709973

- temperature:       120.0000000
  free_energy:        65.1696204
  entropy:             3.0451480
  heat_capacity:       7.0295979
  energy:             65.5350382

- temperature:       130.0000000
  free_energy:        65.1361443
  entropy:             3.6595205
  heat_capacity:       8.3525057
  energy:             65.6118820

- temperature:       140.0000000
  free_energy:        65.0962457
  entropy:             4.3291678
  heat_capacity:       9.7476993
  energy:             65.7023292

- temperature:       150.0000000
  free_energy:        65.0493872
  entropy:             5.0509297
  heat_capacity:      11.2001426
  energy:             65.8070267

- temperature:       160.0000000
  free_energy:        64.9950650
  entropy:             5.8213227
  heat_capacity:      12.6960134
  energy:             65.9264766

- temperature:       170.0000000
  free_energy:        64.9328108
  entropy:             6.6367068
  heat_capacity:      14.2231500
  energy:             66.0610510

- temperature:       180.0000000
  free_energy:        64.8621931
  entropy:             7.4934232
  heat_capacity:      15.7712402
  energy:             66.2110093

- temperature:       190.0000000
  free_energy:        64.7828165
  entropy:             8.3878983
  heat_capacity:      17.3318065
  energy:             66.3765172

- temperature:       200.0000000
  free_energy:        64.6943207
  entropy:             9.3167175
  heat_capacity:      18.8980525
  energy:             66.5576642

- temperature:       210.0000000
  free_energy:        64.5963784
  entropy:            10.2766705
  heat_capacity:      20.4646310
  energy:             66.7544792

- temperature:       220.0000000
  free_energy:        64.4886935
  entropy:            11.2647749
  heat_capacity:      22.0273831
  energy:             66.9669439

- temperature:       230.0000000
  free_energy:        64.3709983
  entropy:            12.2782827
  heat_capacity:      23.5830827
  energy:             67.1950033

- temperature:       240.0000000
  free_energy:        64.2430515
  entropy:            13.3146753
  heat_capacity:      25.1292071
  energy:             67.4385736

- temperature:       250.0000000
  free_energy:        64.1046362
  entropy:            14.3716504
  heat_capacity:      26.6637455
  energy:             67.6975488

- temperature:       260.0000000
  free_energy:        63.9555570
  entropy:            15.4471054
  heat_capacity:      28.1850466
  energy:             67.9718044

- temperature:       270.0000000
  free_energy:        63.7956389
  entropy:            16.5391185
  heat_capacity:      29.6917043
  energy:             68.2612009

- temperature:       280.0000000
  free_energy:        63.6247253
  entropy:            17.6459294
  heat_capacity:      31.1824768
  energy:             68.5655855

- temperature:       290.0000000
  free_energy:        63.4426764
  entropy:            18.7659217
  heat_capacity:      32.6562318
  energy:             68.8847937

- temperature:       300.0000000
  free_energy:        63.2493679
  entropy:            19.8976067
  heat_capacity:      34.1119134
  energy:             69.2186499

- temperature:       310.0000000
  free_energy:        63.0446899
  entropy:            21.0396081
  heat_capacity:      35.5485241
  energy:             69.5669684

- temperature:       320.0000000
  free_energy:        62.8285456
  entropy:            22.1906501
  heat_capacity:      36.9651183
  energy:             69.9295536

- temperature:       330.0000000
  free_energy:        62.6008507
  entropy:            23.3495465
  heat_capacity:      38.3608013
  energy:             70.3062010

- temperature:       340.0000000
  free_energy:        62.3615322
  entropy:            24.5151911
  heat_capacity:      39.7347341
  energy:             70.6966972

- temperature:       350.0000000
  free_energy:        62.1105278
  entropy:            25.6865508
  heat_capacity:      41.0861390
  energy:             71.1008206

- temperature:       360.0000000
  free_energy:        61.8477853
  entropy:            26.8626587
  heat_capacity:      42.4143059
  energy:             71.5183425

- temperature:       370.0000000
  free_energy:        61.5732618
  entropy:            28.0426089
  heat_capacity:      43.7185980
  energy:             71.9490271

- temperature:       380.0000000
  free_energy:        61.2869232
  entropy:            29.2255521
  heat_capacity:      44.9984569
  energy:             72.3926330

- temperature:       390.0000000
  free_energy:        60.9887435
  entropy:            30.4106916
  heat_capacity:      46.2534051
  energy:             72.8489132

- temperature:       400.0000000
  free_energy:        60.6787045
  entropy:            31.5972805
  heat_capacity:      47.4830484
  energy:             73.3176167

- temperature:       410.0000000
  free_energy:        60.3567954
  entropy:            32.7846181
  heat_capacity:      48.6870752
  energy:             73.7984888

- temperature:       420.0000000
  free_energy:        60.0230119
  entropy:            33.9720481
  heat_capacity:      49.8652562
  energy:             74.2912721

- temperature:       430.0000000
  free_energy:        59.6773562
  entropy:            35.1589560
  heat_capacity:      51.0174412
  energy:             74.7957072

- temperature:       440.0000000
  free_energy:        59.3198364
  entropy:            36.3447672
  heat_capacity:      52.1435566
  energy:             75.3115340

- temperature:       450.0000000
  free_energy:        58.9504663
  entropy:            37.5289449
  heat_capacity:      53.2436007
  energy:             75.8384915

- temperature:       460.0000000
  free_energy:        58.5692646
  entropy:            38.7109884
  heat_capacity:      54.3176394
  energy:             76.3763193

- temperature:       470.0000000
  free_energy:        58.1762552
  entropy:            39.8904315
  heat_capacity:      55.3658011
  energy:             76.9247580

- temperature:       480.0000000
  free_energy:        57.7714661
  entropy:            41.0668408
  heat_capacity:      56.3882715
  energy:             77.4835497

- temperature:       490.0000000
  free_energy:        57.3549298
  entropy:            42.2398138
  heat_capacity:      57.3852884
  energy:             78.0524386

- temperature:       500.0000000
  free_energy:        56.9266825
  entropy:            43.4089780
  heat_capacity:      58.3571360
  energy:             78.6311715

- temperature:       510.0000000
  free_energy:        56.4867641
  entropy:            44.5739890
  heat_capacity:      59.3041403
  energy:             79.2194985

- temperature:       520.0000000
  free_energy:        56.0352177
  entropy:            45.7345290
  heat_capacity:      60.2266636
  energy:             79.8171727

- temperature:       530.0000000
  free_energy:        55.5720894
  entropy:            46.8903058
  heat_capacity:      61.1250998
  energy:             80.4239515

- temperature:       540.0000000
  free_energy:        55.0974283
  entropy:            48.0410510
  heat_capacity:      61.9998701
  energy:             81.0395958

- temperature:       550.0000000
  free_energy:        54.6112860
  entropy:            49.1865190
  heat_capacity:      62.8514185
  energy:             81.6638715

- temperature:       560.0000000
  free_energy:        54.1137163
  entropy:            50.3264858
  heat_capacity:      63.6802081
  energy:             82.2965484

- temperature:       570.0000000
  free_energy:        53.6047753
  entropy:            51.4607475
  heat_capacity:      64.4867171
  energy:             82.9374013

- temperature:       580.0000000
  free_energy:        53.0845210
  entropy:            52.5891191
  heat_capacity:      65.2714358
  energy:             83.5862101

- temperature:       590.0000000
  free_energy:        52.5530131
  entropy:            53.7114339
  heat_capacity:      66.0348634
  energy:             84.2427591

- temperature:       600.0000000
  free_energy:        52.0103130
  entropy:            54.8275418
  heat_capacity:      66.7775054
  energy:             84.9068380

- temperature:       610.0000000
  free_energy:        51.4564834
  entropy:            55.9373086
  heat_capacity:      67.4998711
  energy:             85.5782416

- temperature:       620.0000000
  free_energy:        50.8915883
  entropy:            57.0406149
  heat_capacity:      68.2024711
  energy:             86.2567696

- temperature:       630.0000000
  free_energy:        50.3156930
  entropy:            58.1373553
  heat_capacity:      68.8858157
  energy:             86.9422268

- temperature:       640.0000000
  free_energy:        49.7288634
  entropy:            59.2274375
  heat_capacity:      69.5504133
  energy:             87.6344234

- temperature:       650.0000000
  free_energy:        49.1311667
  entropy:            60.3107809
  heat_capacity:      70.1967682
  energy:             88.3331743

- temperature:       660.0000000
  free_energy:        48.5226705
  entropy:            61.3873168
  heat_capacity:      70.8253801
  energy:             89.0382996

- temperature:       670.0000000
  free_energy:        47.9034432
  entropy:            62.4569868
  heat_capacity:      71.4367423
  energy:             89.7496244

- temperature:       680.0000000
  free_energy:        47.2735538
  entropy:            63.5197423
  heat_capacity:      72.0313413
  energy:             90.4669786

- temperature:       690.0000000
  free_energy:        46.6330716
  entropy:            64.5755440
  heat_capacity:      72.6096555
  energy:             91.1901970

- temperature:       700.0000000
  free_energy:        45.9820662
  entropy:            65.6243611
  heat_capacity:      73.1721546
  energy:             91.9191190

- temperature:       710.0000000
  free_energy:        45.3206077
  entropy:            66.6661706
  heat_capacity:      73.7192993
  energy:             92.6535889

- temperature:       720.0000000
  free_energy:        44.6487662
  entropy:            67.7009570
  heat_capacity:      74.2515406
  energy:             93.3934553

- temperature:       730.0000000
  free_energy:        43.9666120
  entropy:            68.7287116
  heat_capacity:      74.7693193
  energy:             94.1385715

- temperature:       740.0000000
  free_energy:        43.2742154
  entropy:            69.7494317
  heat_capacity:      75.2730662
  energy:             94.8887949

- temperature:       750.0000000
  free_energy:        42.5716468
  entropy:            70.7631208
  heat_capacity:      75.7632014
  energy:             95.6439874

- temperature:       760.0000000
  free_energy:        41.8589764
  entropy:            71.7697875
  heat_capacity:      76.2401343
  energy:             96.4040149

- temperature:       770.0000000
  free_energy:        41.1362744
  entropy:            72.7694454
  heat_capacity:      76.7042637
  energy:             97.1687474

- temperature:       780.0000000
  free_energy:        40.4036108
  entropy:            73.7621128
  heat_capacity:      77.1559776
  energy:             97.9380588

- temperature:       790.0000000
  free_energy:        39.6610554
  entropy:            74.7478120
  heat_capacity:      77.5956533
  energy:             98.7118269

- temperature:       800.0000000
  free_energy:        38.9086777
  entropy:            75.7265691
  heat_capacity:      78.0236575
  energy:             99.4899330

- temperature:       810.0000000
  free_energy:        38.1465471
  entropy:            76.6984139
  heat_capacity:      78.4403460
  energy:            100.2722623

- temperature:       820.0000000
  free_energy:        37.3747324
  entropy:            77.6633792
  heat_capacity:      78.8460645
  energy:            101.0587033

- temperature:       830.0000000
  free_energy:        36.5933023
  entropy:            78.6215010
  heat_capacity:      79.2411483
  energy:            101.8491481

- temperature:       840.0000000
  free_energy:        35.8023250
  entropy:            79.5728177
  heat_capacity:      79.6259224
  energy:            102.6434919

- temperature:       850.0000000
  free_energy:        35.0018685
  entropy:            80.5173703
  heat_capacity:      80.0007020
  energy:            103.4416333

- temperature:       860.0000000
  free_energy:        34.1920000
  entropy:            81.4552019
  heat_capacity:      80.3657924
  energy:            104.2434737

- temperature:       870.0000000
  free_energy:        33.3727867
  entropy:            82.3863576
  heat_capacity:      80.7214895
  energy:            105.0489178

- temperature:       880.0000000
  free_energy:        32.5442950
  entropy:            83.3108842
  heat_capacity:      81.0680798
  energy:            105.8578731

- temperature:       890.0000000
  free_energy:        31.7065910
  entropy:            84.2288304
  heat_capacity:      81.4058406
  energy:            106.6702500

- temperature:       900.0000000
  free_energy:        30.8597401
  entropy:            85.1402458
  heat_capacity:      81.7350405
  energy:            107.4859614

- temperature:       910.0000000
  free_energy:        30.0038076
  entropy:            86.0451818
  heat_capacity:      82.0559393
  energy:            108.3049231

- temperature:       920.0000000
  free_energy:        29.1388579
  entropy:            86.9436907
  heat_capacity:      82.3687884
  energy:            109.1270533

- temperature:       930.0000000
  free_energy:        28.2649551
  entropy:            87.8358256
  heat_capacity:      82.6738311
  energy:            109.9522729

- temperature:       940.0000000
  free_energy:        27.3821625
  entropy:            88.7216407
  heat_capacity:      82.9713028
  energy:            110.7805047

- temperature:       950.0000000
  free_energy:        26.4905431
  entropy:            89.6011908
  heat_capacity:      83.2614310
  energy:            111.6116744

- temperature:       960.0000000
  free_energy:        25.5901594
  entropy:            90.4745315
  heat_capacity:      83.5444360
  energy:            112.4457096

- temperature:       970.0000000
  free_energy:        24.6810730
  entropy:            91.3417187
  heat_capacity:      83.8205305
  energy:            113.2825401

- temperature:       980.0000000
  free_energy:        23.7633453
  entropy:            92.2028087
  heat_capacity:      84.0899207
  energy:            114.1220979

- temperature:       990.0000000
  free_energy:        22.8370370
  entropy:            93.0578585
  heat_capacity:      84.3528054
  energy:            114.9643168

- temperature:      1000.0000000
  free_energy:        21.9022081
  entropy:            93.9069248
  heat_capacity:      84.6093774
  energy:            115.8091329
