   2   2   0   0
  0.6711523E+01  0.2667608E-09  0.2667608E-09  0.2667608E-09  0.5000000E-15
  1.000000000000000E-004
  CAR 
 graphite                                
     23.85354783    -13.88038222  301      7.50610876      1.00000000
    -13.880  0.0000E+00  0.0000E+00
    -13.755  0.0000E+00  0.0000E+00
    -13.629  0.0000E+00  0.0000E+00
    -13.503  0.0000E+00  0.0000E+00
    -13.377  0.0000E+00  0.0000E+00
    -13.251  0.0000E+00  0.0000E+00
    -13.126  0.0000E+00  0.0000E+00
    -13.000  0.0000E+00  0.0000E+00
    -12.874  0.0000E+00  0.0000E+00
    -12.748  0.0000E+00  0.0000E+00
    -12.623  0.0000E+00  0.0000E+00
    -12.497  0.0000E+00  0.0000E+00
    -12.371  0.0000E+00  0.0000E+00
    -12.245  0.0000E+00  0.0000E+00
    -12.119  0.0000E+00  0.0000E+00
    -11.994  0.0000E+00  0.0000E+00
    -11.868  0.1010E-05  0.4199E-08
    -11.742  0.1240E-03  0.5714E-05
    -11.616  0.2979E-03  0.3419E-04
    -11.491  0.3679E-03  0.7715E-04
    -11.365  0.4428E-03  0.1281E-03
    -11.239  0.5098E-03  0.1881E-03
    -11.113  0.5536E-03  0.2550E-03
    -10.987  0.6076E-03  0.3279E-03
    -10.862  0.6670E-03  0.4081E-03
    -10.736  0.7136E-03  0.4952E-03
    -10.610  0.7548E-03  0.5876E-03
    -10.484  0.7926E-03  0.6850E-03
    -10.359  0.8237E-03  0.7866E-03
    -10.233  0.8628E-03  0.8926E-03
    -10.107  0.9027E-03  0.1004E-02
     -9.981  0.9414E-03  0.1120E-02
     -9.855  0.9767E-03  0.1240E-02
     -9.730  0.1016E-02  0.1366E-02
     -9.604  0.1057E-02  0.1496E-02
     -9.478  0.1092E-02  0.1631E-02
     -9.352  0.1123E-02  0.1771E-02
     -9.227  0.1155E-02  0.1914E-02
     -9.101  0.1188E-02  0.2061E-02
     -8.975  0.1222E-02  0.2213E-02
     -8.849  0.1256E-02  0.2369E-02
     -8.723  0.1292E-02  0.2529E-02
     -8.598  0.1330E-02  0.2694E-02
     -8.472  0.1370E-02  0.2864E-02
     -8.346  0.1412E-02  0.3038E-02
     -8.220  0.1454E-02  0.3219E-02
     -8.095  0.1499E-02  0.3404E-02
     -7.969  0.1547E-02  0.3596E-02
     -7.843  0.1600E-02  0.3794E-02
     -7.717  0.1660E-02  0.3999E-02
     -7.591  0.1730E-02  0.4212E-02
     -7.466  0.1813E-02  0.4434E-02
     -7.340  0.1936E-02  0.4669E-02
     -7.214  0.2101E-02  0.4923E-02
     -7.088  0.2286E-02  0.5199E-02
     -6.962  0.2374E-02  0.5503E-02
     -6.837  0.2207E-02  0.5789E-02
     -6.711  0.2158E-02  0.6063E-02
     -6.585  0.2129E-02  0.6331E-02
     -6.459  0.2104E-02  0.6598E-02
     -6.334  0.2029E-02  0.6859E-02
     -6.208  0.1945E-02  0.7109E-02
     -6.082  0.1908E-02  0.7350E-02
     -5.956  0.1885E-02  0.7590E-02
     -5.830  0.1803E-02  0.7822E-02
     -5.705  0.1718E-02  0.8043E-02
     -5.579  0.1658E-02  0.8255E-02
     -5.453  0.1629E-02  0.8461E-02
     -5.327  0.1624E-02  0.8666E-02
     -5.202  0.1623E-02  0.8870E-02
     -5.076  0.1606E-02  0.9073E-02
     -4.950  0.1588E-02  0.9274E-02
     -4.824  0.1451E-02  0.9467E-02
     -4.698  0.1254E-02  0.9637E-02
     -4.573  0.1049E-02  0.9780E-02
     -4.447  0.5583E-03  0.9885E-02
     -4.321  0.3038E-03  0.9936E-02
     -4.195  0.1840E-03  0.9966E-02
     -4.070  0.1464E-03  0.9986E-02
     -3.944  0.2133E-03  0.1001E-01
     -3.818  0.4138E-03  0.1005E-01
     -3.692  0.6676E-03  0.1011E-01
     -3.566  0.1048E-02  0.1022E-01
     -3.441  0.1425E-02  0.1037E-01
     -3.315  0.2116E-02  0.1060E-01
     -3.189  0.2786E-02  0.1090E-01
     -3.063  0.3547E-02  0.1130E-01
     -2.938  0.4407E-02  0.1180E-01
     -2.812  0.4495E-02  0.1237E-01
     -2.686  0.3789E-02  0.1289E-01
     -2.560  0.3121E-02  0.1333E-01
     -2.434  0.2748E-02  0.1370E-01
     -2.309  0.2450E-02  0.1402E-01
     -2.183  0.2209E-02  0.1431E-01
     -2.057  0.2042E-02  0.1458E-01
     -1.931  0.1895E-02  0.1483E-01
     -1.806  0.1768E-02  0.1506E-01
     -1.680  0.1681E-02  0.1528E-01
     -1.554  0.1618E-02  0.1548E-01
     -1.428  0.1563E-02  0.1568E-01
     -1.302  0.1511E-02  0.1588E-01
     -1.177  0.1449E-02  0.1606E-01
     -1.051  0.1375E-02  0.1624E-01
     -0.925  0.1291E-02  0.1641E-01
     -0.799  0.1217E-02  0.1657E-01
     -0.674  0.1160E-02  0.1671E-01
     -0.548  0.1117E-02  0.1686E-01
     -0.422  0.1085E-02  0.1700E-01
     -0.296  0.1130E-02  0.1713E-01
     -0.170  0.1529E-02  0.1730E-01
     -0.045  0.2062E-02  0.1753E-01
      0.081  0.2876E-02  0.1784E-01
      0.207  0.3380E-02  0.1823E-01
      0.333  0.3420E-02  0.1867E-01
      0.459  0.3246E-02  0.1909E-01
      0.584  0.3149E-02  0.1949E-01
      0.710  0.3080E-02  0.1988E-01
      0.836  0.3077E-02  0.2027E-01
      0.962  0.3030E-02  0.2065E-01
      1.087  0.3017E-02  0.2103E-01
      1.213  0.3064E-02  0.2141E-01
      1.339  0.3131E-02  0.2180E-01
      1.465  0.3194E-02  0.2220E-01
      1.591  0.3458E-02  0.2262E-01
      1.716  0.3633E-02  0.2306E-01
      1.842  0.3730E-02  0.2353E-01
      1.968  0.3928E-02  0.2401E-01
      2.094  0.4282E-02  0.2452E-01
      2.219  0.4695E-02  0.2509E-01
      2.345  0.4748E-02  0.2569E-01
      2.471  0.4589E-02  0.2627E-01
      2.597  0.4564E-02  0.2685E-01
      2.723  0.4530E-02  0.2742E-01
      2.848  0.4483E-02  0.2799E-01
      2.974  0.4433E-02  0.2855E-01
      3.100  0.4375E-02  0.2910E-01
      3.226  0.4301E-02  0.2965E-01
      3.351  0.4231E-02  0.3019E-01
      3.477  0.4204E-02  0.3072E-01
      3.603  0.4195E-02  0.3124E-01
      3.729  0.4180E-02  0.3177E-01
      3.855  0.4145E-02  0.3230E-01
      3.980  0.4108E-02  0.3281E-01
      4.106  0.4069E-02  0.3333E-01
      4.232  0.4036E-02  0.3384E-01
      4.358  0.3998E-02  0.3434E-01
      4.483  0.3971E-02  0.3484E-01
      4.609  0.3922E-02  0.3534E-01
      4.735  0.3857E-02  0.3583E-01
      4.861  0.3832E-02  0.3631E-01
      4.987  0.3494E-02  0.3677E-01
      5.112  0.2942E-02  0.3718E-01
      5.238  0.2566E-02  0.3753E-01
      5.364  0.2280E-02  0.3783E-01
      5.490  0.2053E-02  0.3810E-01
      5.615  0.1905E-02  0.3835E-01
      5.741  0.1754E-02  0.3858E-01
      5.867  0.1591E-02  0.3879E-01
      5.993  0.1415E-02  0.3898E-01
      6.119  0.1276E-02  0.3915E-01
      6.244  0.1150E-02  0.3930E-01
      6.370  0.1025E-02  0.3944E-01
      6.496  0.9057E-03  0.3956E-01
      6.622  0.8180E-03  0.3967E-01
      6.747  0.7082E-03  0.3976E-01
      6.873  0.6015E-03  0.3985E-01
      6.999  0.4807E-03  0.3991E-01
      7.125  0.3067E-03  0.3996E-01
      7.251  0.1222E-03  0.3999E-01
      7.376  0.2084E-04  0.4000E-01
      7.502  0.0000E+00  0.4000E-01
      7.628  0.0000E+00  0.4000E-01
      7.754  0.0000E+00  0.4000E-01
      7.880  0.0000E+00  0.4000E-01
      8.005  0.0000E+00  0.4000E-01
      8.131  0.0000E+00  0.4000E-01
      8.257  0.0000E+00  0.4000E-01
      8.383  0.0000E+00  0.4000E-01
      8.508  0.0000E+00  0.4000E-01
      8.634  0.0000E+00  0.4000E-01
      8.760  0.0000E+00  0.4000E-01
      8.886  0.0000E+00  0.4000E-01
      9.012  0.0000E+00  0.4000E-01
      9.137  0.0000E+00  0.4000E-01
      9.263  0.0000E+00  0.4000E-01
      9.389  0.0000E+00  0.4000E-01
      9.515  0.0000E+00  0.4000E-01
      9.640  0.0000E+00  0.4000E-01
      9.766  0.0000E+00  0.4000E-01
      9.892  0.0000E+00  0.4000E-01
     10.018  0.0000E+00  0.4000E-01
     10.144  0.0000E+00  0.4000E-01
     10.269  0.0000E+00  0.4000E-01
     10.395  0.0000E+00  0.4000E-01
     10.521  0.0000E+00  0.4000E-01
     10.647  0.0000E+00  0.4000E-01
     10.772  0.0000E+00  0.4000E-01
     10.898  0.0000E+00  0.4000E-01
     11.024  0.0000E+00  0.4000E-01
     11.150  0.0000E+00  0.4000E-01
     11.276  0.1310E-05  0.4000E-01
     11.401  0.6327E-04  0.4000E-01
     11.527  0.2760E-03  0.4002E-01
     11.653  0.5299E-03  0.4007E-01
     11.779  0.7910E-03  0.4016E-01
     11.904  0.1028E-02  0.4027E-01
     12.030  0.1206E-02  0.4041E-01
     12.156  0.1370E-02  0.4057E-01
     12.282  0.1579E-02  0.4076E-01
     12.408  0.1789E-02  0.4097E-01
     12.533  0.2013E-02  0.4121E-01
     12.659  0.2326E-02  0.4148E-01
     12.785  0.2598E-02  0.4179E-01
     12.911  0.2714E-02  0.4213E-01
     13.036  0.2838E-02  0.4248E-01
     13.162  0.3013E-02  0.4285E-01
     13.288  0.3169E-02  0.4323E-01
     13.414  0.3336E-02  0.4364E-01
     13.540  0.3482E-02  0.4407E-01
     13.665  0.3676E-02  0.4452E-01
     13.791  0.3886E-02  0.4500E-01
     13.917  0.4150E-02  0.4550E-01
     14.043  0.4630E-02  0.4605E-01
     14.169  0.5504E-02  0.4668E-01
     14.294  0.6950E-02  0.4747E-01
     14.420  0.7804E-02  0.4841E-01
     14.546  0.7549E-02  0.4939E-01
     14.672  0.6267E-02  0.5026E-01
     14.797  0.4997E-02  0.5096E-01
     14.923  0.4531E-02  0.5155E-01
     15.049  0.4385E-02  0.5211E-01
     15.175  0.5117E-02  0.5270E-01
     15.301  0.5357E-02  0.5341E-01
     15.426  0.5133E-02  0.5407E-01
     15.552  0.5158E-02  0.5471E-01
     15.678  0.5361E-02  0.5537E-01
     15.804  0.5713E-02  0.5606E-01
     15.929  0.6079E-02  0.5681E-01
     16.055  0.5765E-02  0.5757E-01
     16.181  0.5464E-02  0.5826E-01
     16.307  0.5498E-02  0.5896E-01
     16.433  0.5149E-02  0.5963E-01
     16.558  0.4679E-02  0.6025E-01
     16.684  0.4099E-02  0.6080E-01
     16.810  0.3778E-02  0.6129E-01
     16.936  0.3642E-02  0.6176E-01
     17.061  0.3895E-02  0.6223E-01
     17.187  0.3975E-02  0.6273E-01
     17.313  0.3546E-02  0.6321E-01
     17.439  0.3182E-02  0.6363E-01
     17.565  0.3079E-02  0.6402E-01
     17.690  0.3852E-02  0.6448E-01
     17.816  0.4367E-02  0.6499E-01
     17.942  0.4716E-02  0.6557E-01
     18.068  0.5025E-02  0.6618E-01
     18.193  0.5188E-02  0.6682E-01
     18.319  0.5356E-02  0.6749E-01
     18.445  0.5686E-02  0.6819E-01
     18.571  0.5158E-02  0.6888E-01
     18.697  0.4531E-02  0.6948E-01
     18.822  0.4214E-02  0.7003E-01
     18.948  0.4173E-02  0.7056E-01
     19.074  0.3967E-02  0.7108E-01
     19.200  0.3853E-02  0.7157E-01
     19.325  0.3771E-02  0.7204E-01
     19.451  0.4020E-02  0.7253E-01
     19.577  0.4598E-02  0.7307E-01
     19.703  0.5387E-02  0.7369E-01
     19.829  0.6227E-02  0.7443E-01
     19.954  0.6486E-02  0.7524E-01
     20.080  0.5591E-02  0.7601E-01
     20.206  0.4704E-02  0.7665E-01
     20.332  0.4023E-02  0.7719E-01
     20.457  0.3587E-02  0.7767E-01
     20.583  0.3124E-02  0.7809E-01
     20.709  0.2726E-02  0.7846E-01
     20.835  0.2437E-02  0.7878E-01
     20.961  0.2244E-02  0.7908E-01
     21.086  0.2083E-02  0.7935E-01
     21.212  0.1796E-02  0.7959E-01
     21.338  0.1319E-02  0.7980E-01
     21.464  0.6542E-03  0.7992E-01
     21.590  0.2776E-03  0.7998E-01
     21.715  0.7610E-04  0.8000E-01
     21.841  0.6197E-06  0.8000E-01
     21.967  0.0000E+00  0.8000E-01
     22.093  0.0000E+00  0.8000E-01
     22.218  0.0000E+00  0.8000E-01
     22.344  0.0000E+00  0.8000E-01
     22.470  0.0000E+00  0.8000E-01
     22.596  0.0000E+00  0.8000E-01
     22.722  0.0000E+00  0.8000E-01
     22.847  0.0000E+00  0.8000E-01
     22.973  0.0000E+00  0.8000E-01
     23.099  0.0000E+00  0.8000E-01
     23.225  0.0000E+00  0.8000E-01
     23.350  0.0000E+00  0.8000E-01
     23.476  0.0000E+00  0.8000E-01
     23.602  0.0000E+00  0.8000E-01
     23.728  0.0000E+00  0.8000E-01
     23.854  0.0000E+00  0.8000E-01
