  80  80   0   0
  0.1078958E+02  0.1208583E-08  0.8453651E-09  0.8448387E-09  0.5000000E-15
  1.000000000000000E-004
  CAR 
 diamond                                 
      8.20377239    -16.91441245  301     -6.57409303      1.00000000
    -16.914  0.0000E+00  0.0000E+00
    -16.831  0.0000E+00  0.0000E+00
    -16.747  0.0000E+00  0.0000E+00
    -16.663  0.0000E+00  0.0000E+00
    -16.580  0.0000E+00  0.0000E+00
    -16.496  0.0000E+00  0.0000E+00
    -16.412  0.0000E+00  0.0000E+00
    -16.328  0.0000E+00  0.0000E+00
    -16.245  0.0000E+00  0.0000E+00
    -16.161  0.0000E+00  0.0000E+00
    -16.077  0.0000E+00  0.0000E+00
    -15.993  0.0000E+00  0.0000E+00
    -15.910  0.0000E+00  0.0000E+00
    -15.826  0.0000E+00  0.0000E+00
    -15.742  0.0000E+00  0.0000E+00
    -15.659  0.0000E+00  0.0000E+00
    -15.575  0.0000E+00  0.0000E+00
    -15.491  0.0000E+00  0.0000E+00
    -15.407  0.0000E+00  0.0000E+00
    -15.324  0.0000E+00  0.0000E+00
    -15.240  0.0000E+00  0.0000E+00
    -15.156  0.0000E+00  0.0000E+00
    -15.072  0.0000E+00  0.0000E+00
    -14.989  0.0000E+00  0.0000E+00
    -14.905  0.6087E-02  0.1918E-04
    -14.821  0.1264E+00  0.5907E-02
    -14.738  0.1514E+00  0.2127E-01
    -14.654  0.7120E+00  0.5112E-01
    -14.570  0.6555E+00  0.1039E+00
    -14.486  0.0000E+00  0.1600E+00
    -14.403  0.0000E+00  0.1600E+00
    -14.319  0.0000E+00  0.1600E+00
    -14.235  0.0000E+00  0.1600E+00
    -14.151  0.0000E+00  0.1600E+00
    -14.068  0.0000E+00  0.1600E+00
    -13.984  0.0000E+00  0.1600E+00
    -13.900  0.0000E+00  0.1600E+00
    -13.817  0.0000E+00  0.1600E+00
    -13.733  0.0000E+00  0.1600E+00
    -13.649  0.0000E+00  0.1600E+00
    -13.565  0.0000E+00  0.1600E+00
    -13.482  0.0000E+00  0.1600E+00
    -13.398  0.0000E+00  0.1600E+00
    -13.314  0.0000E+00  0.1600E+00
    -13.230  0.0000E+00  0.1600E+00
    -13.147  0.0000E+00  0.1600E+00
    -13.063  0.0000E+00  0.1600E+00
    -12.979  0.0000E+00  0.1600E+00
    -12.896  0.0000E+00  0.1600E+00
    -12.812  0.0000E+00  0.1600E+00
    -12.728  0.0000E+00  0.1600E+00
    -12.644  0.0000E+00  0.1600E+00
    -12.561  0.0000E+00  0.1600E+00
    -12.477  0.0000E+00  0.1600E+00
    -12.393  0.0000E+00  0.1600E+00
    -12.309  0.0000E+00  0.1600E+00
    -12.226  0.0000E+00  0.1600E+00
    -12.142  0.0000E+00  0.1600E+00
    -12.058  0.0000E+00  0.1600E+00
    -11.975  0.0000E+00  0.1600E+00
    -11.891  0.0000E+00  0.1600E+00
    -11.807  0.0000E+00  0.1600E+00
    -11.723  0.0000E+00  0.1600E+00
    -11.640  0.0000E+00  0.1600E+00
    -11.556  0.0000E+00  0.1600E+00
    -11.472  0.0000E+00  0.1600E+00
    -11.388  0.0000E+00  0.1600E+00
    -11.305  0.0000E+00  0.1600E+00
    -11.221  0.0000E+00  0.1600E+00
    -11.137  0.0000E+00  0.1600E+00
    -11.054  0.0000E+00  0.1600E+00
    -10.970  0.0000E+00  0.1600E+00
    -10.886  0.0000E+00  0.1600E+00
    -10.802  0.0000E+00  0.1600E+00
    -10.719  0.0000E+00  0.1600E+00
    -10.635  0.0000E+00  0.1600E+00
    -10.551  0.0000E+00  0.1600E+00
    -10.467  0.0000E+00  0.1600E+00
    -10.384  0.0000E+00  0.1600E+00
    -10.300  0.0000E+00  0.1600E+00
    -10.216  0.0000E+00  0.1600E+00
    -10.133  0.0000E+00  0.1600E+00
    -10.049  0.0000E+00  0.1600E+00
     -9.965  0.0000E+00  0.1600E+00
     -9.881  0.0000E+00  0.1600E+00
     -9.798  0.0000E+00  0.1600E+00
     -9.714  0.0000E+00  0.1600E+00
     -9.630  0.0000E+00  0.1600E+00
     -9.546  0.0000E+00  0.1600E+00
     -9.463  0.0000E+00  0.1600E+00
     -9.379  0.0000E+00  0.1600E+00
     -9.295  0.0000E+00  0.1600E+00
     -9.212  0.0000E+00  0.1600E+00
     -9.128  0.0000E+00  0.1600E+00
     -9.044  0.0000E+00  0.1600E+00
     -8.960  0.0000E+00  0.1600E+00
     -8.877  0.0000E+00  0.1600E+00
     -8.793  0.0000E+00  0.1600E+00
     -8.709  0.0000E+00  0.1600E+00
     -8.625  0.0000E+00  0.1600E+00
     -8.542  0.0000E+00  0.1600E+00
     -8.458  0.0000E+00  0.1600E+00
     -8.374  0.0000E+00  0.1600E+00
     -8.291  0.0000E+00  0.1600E+00
     -8.207  0.0000E+00  0.1600E+00
     -8.123  0.0000E+00  0.1600E+00
     -8.039  0.0000E+00  0.1600E+00
     -7.956  0.0000E+00  0.1600E+00
     -7.872  0.0000E+00  0.1600E+00
     -7.788  0.0000E+00  0.1600E+00
     -7.704  0.0000E+00  0.1600E+00
     -7.621  0.1231E+00  0.1621E+00
     -7.537  0.3272E+00  0.1829E+00
     -7.453  0.5357E+00  0.2198E+00
     -7.370  0.3508E+00  0.2569E+00
     -7.286  0.2593E+00  0.2854E+00
     -7.202  0.1950E+00  0.3083E+00
     -7.118  0.2951E+00  0.3276E+00
     -7.035  0.3512E+00  0.3563E+00
     -6.951  0.4895E+00  0.3861E+00
     -6.867  0.7429E+00  0.4479E+00
     -6.783  0.1069E+01  0.5225E+00
     -6.700  0.9015E+00  0.6005E+00
     -6.616  0.1501E-01  0.6399E+00
     -6.532  0.0000E+00  0.6400E+00
     -6.449  0.0000E+00  0.6400E+00
     -6.365  0.0000E+00  0.6400E+00
     -6.281  0.0000E+00  0.6400E+00
     -6.197  0.0000E+00  0.6400E+00
     -6.114  0.0000E+00  0.6400E+00
     -6.030  0.0000E+00  0.6400E+00
     -5.946  0.0000E+00  0.6400E+00
     -5.862  0.0000E+00  0.6400E+00
     -5.779  0.0000E+00  0.6400E+00
     -5.695  0.0000E+00  0.6400E+00
     -5.611  0.0000E+00  0.6400E+00
     -5.528  0.0000E+00  0.6400E+00
     -5.444  0.0000E+00  0.6400E+00
     -5.360  0.0000E+00  0.6400E+00
     -5.276  0.0000E+00  0.6400E+00
     -5.193  0.0000E+00  0.6400E+00
     -5.109  0.0000E+00  0.6400E+00
     -5.025  0.0000E+00  0.6400E+00
     -4.941  0.0000E+00  0.6400E+00
     -4.858  0.0000E+00  0.6400E+00
     -4.774  0.0000E+00  0.6400E+00
     -4.690  0.0000E+00  0.6400E+00
     -4.607  0.0000E+00  0.6400E+00
     -4.523  0.0000E+00  0.6400E+00
     -4.439  0.0000E+00  0.6400E+00
     -4.355  0.0000E+00  0.6400E+00
     -4.272  0.0000E+00  0.6400E+00
     -4.188  0.0000E+00  0.6400E+00
     -4.104  0.0000E+00  0.6400E+00
     -4.020  0.0000E+00  0.6400E+00
     -3.937  0.0000E+00  0.6400E+00
     -3.853  0.0000E+00  0.6400E+00
     -3.769  0.0000E+00  0.6400E+00
     -3.686  0.0000E+00  0.6400E+00
     -3.602  0.0000E+00  0.6400E+00
     -3.518  0.0000E+00  0.6400E+00
     -3.434  0.0000E+00  0.6400E+00
     -3.351  0.0000E+00  0.6400E+00
     -3.267  0.0000E+00  0.6400E+00
     -3.183  0.0000E+00  0.6400E+00
     -3.099  0.0000E+00  0.6400E+00
     -3.016  0.0000E+00  0.6400E+00
     -2.932  0.0000E+00  0.6400E+00
     -2.848  0.0000E+00  0.6400E+00
     -2.765  0.0000E+00  0.6400E+00
     -2.681  0.0000E+00  0.6400E+00
     -2.597  0.0000E+00  0.6400E+00
     -2.513  0.0000E+00  0.6400E+00
     -2.430  0.0000E+00  0.6400E+00
     -2.346  0.0000E+00  0.6400E+00
     -2.262  0.0000E+00  0.6400E+00
     -2.178  0.0000E+00  0.6400E+00
     -2.095  0.0000E+00  0.6400E+00
     -2.011  0.0000E+00  0.6400E+00
     -1.927  0.0000E+00  0.6400E+00
     -1.844  0.0000E+00  0.6400E+00
     -1.760  0.0000E+00  0.6400E+00
     -1.676  0.0000E+00  0.6400E+00
     -1.592  0.0000E+00  0.6400E+00
     -1.509  0.0000E+00  0.6400E+00
     -1.425  0.0000E+00  0.6400E+00
     -1.341  0.0000E+00  0.6400E+00
     -1.257  0.0000E+00  0.6400E+00
     -1.174  0.0000E+00  0.6400E+00
     -1.090  0.0000E+00  0.6400E+00
     -1.006  0.0000E+00  0.6400E+00
     -0.923  0.0000E+00  0.6400E+00
     -0.839  0.0000E+00  0.6400E+00
     -0.755  0.0000E+00  0.6400E+00
     -0.671  0.0000E+00  0.6400E+00
     -0.588  0.0000E+00  0.6400E+00
     -0.504  0.0000E+00  0.6400E+00
     -0.420  0.0000E+00  0.6400E+00
     -0.336  0.0000E+00  0.6400E+00
     -0.253  0.0000E+00  0.6400E+00
     -0.169  0.0000E+00  0.6400E+00
     -0.085  0.0000E+00  0.6400E+00
     -0.002  0.0000E+00  0.6400E+00
      0.082  0.0000E+00  0.6400E+00
      0.166  0.0000E+00  0.6400E+00
      0.250  0.0000E+00  0.6400E+00
      0.333  0.0000E+00  0.6400E+00
      0.417  0.0000E+00  0.6400E+00
      0.501  0.0000E+00  0.6400E+00
      0.585  0.0000E+00  0.6400E+00
      0.668  0.0000E+00  0.6400E+00
      0.752  0.0000E+00  0.6400E+00
      0.836  0.0000E+00  0.6400E+00
      0.919  0.0000E+00  0.6400E+00
      1.003  0.3418E-04  0.6400E+00
      1.087  0.1648E-02  0.6401E+00
      1.171  0.4980E-02  0.6403E+00
      1.254  0.8207E-02  0.6409E+00
      1.338  0.9575E-02  0.6416E+00
      1.422  0.1087E-01  0.6425E+00
      1.506  0.1259E-01  0.6435E+00
      1.589  0.1433E-01  0.6446E+00
      1.673  0.1711E-01  0.6459E+00
      1.757  0.2121E-01  0.6475E+00
      1.840  0.2633E-01  0.6495E+00
      1.924  0.3141E-01  0.6519E+00
      2.008  0.2800E-01  0.6545E+00
      2.092  0.2092E-01  0.6565E+00
      2.175  0.1957E-01  0.6582E+00
      2.259  0.2136E-01  0.6599E+00
      2.343  0.2766E-01  0.6618E+00
      2.427  0.4440E-01  0.6648E+00
      2.510  0.6721E-01  0.6696E+00
      2.594  0.5632E-01  0.6749E+00
      2.678  0.3467E-01  0.6788E+00
      2.761  0.3431E-01  0.6813E+00
      2.845  0.1210E+00  0.6879E+00
      2.929  0.7658E-01  0.6959E+00
      3.013  0.1117E+00  0.7030E+00
      3.096  0.1140E+00  0.7126E+00
      3.180  0.5770E-01  0.7204E+00
      3.264  0.6207E-01  0.7243E+00
      3.348  0.1062E+00  0.7329E+00
      3.431  0.7431E-01  0.7396E+00
      3.515  0.9260E-01  0.7462E+00
      3.599  0.1186E+00  0.7555E+00
      3.682  0.1110E+00  0.7649E+00
      3.766  0.9047E-01  0.7735E+00
      3.850  0.1822E+00  0.7836E+00
      3.934  0.8447E-01  0.7998E+00
      4.017  0.9906E-01  0.8059E+00
      4.101  0.1416E+00  0.8159E+00
      4.185  0.1399E+00  0.8301E+00
      4.269  0.8225E-01  0.8381E+00
      4.352  0.9744E-01  0.8454E+00
      4.436  0.1381E+00  0.8555E+00
      4.520  0.1821E+00  0.8699E+00
      4.603  0.6300E-01  0.8804E+00
      4.687  0.4269E+00  0.9028E+00
      4.771  0.3877E-01  0.9200E+00
      4.855  0.1036E+00  0.9269E+00
      4.938  0.9973E-01  0.9353E+00
      5.022  0.1324E+00  0.9459E+00
      5.106  0.8732E-01  0.9552E+00
      5.190  0.2276E+00  0.9655E+00
      5.273  0.1654E+00  0.9810E+00
      5.357  0.1015E+00  0.9935E+00
      5.441  0.1412E+00  0.1001E+01
      5.524  0.1578E+00  0.1016E+01
      5.608  0.1252E+00  0.1028E+01
      5.692  0.7660E-01  0.1036E+01
      5.776  0.1061E+00  0.1044E+01
      5.859  0.7045E-01  0.1051E+01
      5.943  0.3830E-01  0.1056E+01
      6.027  0.2331E-01  0.1059E+01
      6.111  0.6499E-02  0.1060E+01
      6.194  0.6775E-04  0.1060E+01
      6.278  0.0000E+00  0.1060E+01
      6.362  0.0000E+00  0.1060E+01
      6.445  0.0000E+00  0.1060E+01
      6.529  0.0000E+00  0.1060E+01
      6.613  0.0000E+00  0.1060E+01
      6.697  0.0000E+00  0.1060E+01
      6.780  0.0000E+00  0.1060E+01
      6.864  0.0000E+00  0.1060E+01
      6.948  0.0000E+00  0.1060E+01
      7.032  0.0000E+00  0.1060E+01
      7.115  0.0000E+00  0.1060E+01
      7.199  0.0000E+00  0.1060E+01
      7.283  0.0000E+00  0.1060E+01
      7.366  0.0000E+00  0.1060E+01
      7.450  0.0000E+00  0.1060E+01
      7.534  0.0000E+00  0.1060E+01
      7.618  0.0000E+00  0.1060E+01
      7.701  0.0000E+00  0.1060E+01
      7.785  0.0000E+00  0.1060E+01
      7.869  0.0000E+00  0.1060E+01
      7.953  0.0000E+00  0.1060E+01
      8.036  0.0000E+00  0.1060E+01
      8.120  0.0000E+00  0.1060E+01
      8.204  0.0000E+00  0.1060E+01
