  72  72   0   0
  0.1155248E+02  0.1193753E-08  0.8349915E-09  0.8344716E-09  0.5000000E-15
  1.000000000000000E-004
  CAR 
 diamond                                 
      7.94227303    -16.80762050  301     -2.18455841      1.00000000
    -16.808  0.0000E+00  0.0000E+00
    -16.725  0.0000E+00  0.0000E+00
    -16.643  0.0000E+00  0.0000E+00
    -16.560  0.0000E+00  0.0000E+00
    -16.478  0.0000E+00  0.0000E+00
    -16.395  0.0000E+00  0.0000E+00
    -16.313  0.0000E+00  0.0000E+00
    -16.230  0.0000E+00  0.0000E+00
    -16.148  0.0000E+00  0.0000E+00
    -16.065  0.0000E+00  0.0000E+00
    -15.983  0.0000E+00  0.0000E+00
    -15.900  0.0000E+00  0.0000E+00
    -15.818  0.0000E+00  0.0000E+00
    -15.735  0.0000E+00  0.0000E+00
    -15.653  0.0000E+00  0.0000E+00
    -15.570  0.0000E+00  0.0000E+00
    -15.488  0.0000E+00  0.0000E+00
    -15.405  0.0000E+00  0.0000E+00
    -15.323  0.0000E+00  0.0000E+00
    -15.240  0.0000E+00  0.0000E+00
    -15.158  0.0000E+00  0.0000E+00
    -15.075  0.0000E+00  0.0000E+00
    -14.993  0.0000E+00  0.0000E+00
    -14.910  0.0000E+00  0.0000E+00
    -14.828  0.0000E+00  0.0000E+00
    -14.745  0.1046E+00  0.3323E-02
    -14.663  0.1528E+00  0.1956E-01
    -14.580  0.6012E+00  0.5485E-01
    -14.498  0.4915E-01  0.7993E-01
    -14.415  0.0000E+00  0.8000E-01
    -14.333  0.1247E+00  0.8206E-01
    -14.250  0.1730E+00  0.1202E+00
    -14.168  0.0000E+00  0.1600E+00
    -14.085  0.0000E+00  0.1600E+00
    -14.003  0.0000E+00  0.1600E+00
    -13.920  0.0000E+00  0.1600E+00
    -13.838  0.0000E+00  0.1600E+00
    -13.755  0.0000E+00  0.1600E+00
    -13.673  0.0000E+00  0.1600E+00
    -13.590  0.0000E+00  0.1600E+00
    -13.508  0.0000E+00  0.1600E+00
    -13.425  0.0000E+00  0.1600E+00
    -13.343  0.0000E+00  0.1600E+00
    -13.260  0.0000E+00  0.1600E+00
    -13.178  0.0000E+00  0.1600E+00
    -13.095  0.0000E+00  0.1600E+00
    -13.013  0.0000E+00  0.1600E+00
    -12.930  0.0000E+00  0.1600E+00
    -12.848  0.0000E+00  0.1600E+00
    -12.765  0.0000E+00  0.1600E+00
    -12.683  0.0000E+00  0.1600E+00
    -12.600  0.0000E+00  0.1600E+00
    -12.518  0.0000E+00  0.1600E+00
    -12.435  0.0000E+00  0.1600E+00
    -12.353  0.0000E+00  0.1600E+00
    -12.270  0.0000E+00  0.1600E+00
    -12.188  0.0000E+00  0.1600E+00
    -12.105  0.0000E+00  0.1600E+00
    -12.023  0.0000E+00  0.1600E+00
    -11.940  0.0000E+00  0.1600E+00
    -11.858  0.0000E+00  0.1600E+00
    -11.775  0.0000E+00  0.1600E+00
    -11.693  0.0000E+00  0.1600E+00
    -11.610  0.0000E+00  0.1600E+00
    -11.528  0.0000E+00  0.1600E+00
    -11.445  0.0000E+00  0.1600E+00
    -11.363  0.0000E+00  0.1600E+00
    -11.280  0.0000E+00  0.1600E+00
    -11.198  0.0000E+00  0.1600E+00
    -11.115  0.0000E+00  0.1600E+00
    -11.033  0.0000E+00  0.1600E+00
    -10.950  0.0000E+00  0.1600E+00
    -10.868  0.0000E+00  0.1600E+00
    -10.785  0.0000E+00  0.1600E+00
    -10.703  0.0000E+00  0.1600E+00
    -10.620  0.0000E+00  0.1600E+00
    -10.538  0.0000E+00  0.1600E+00
    -10.455  0.0000E+00  0.1600E+00
    -10.373  0.0000E+00  0.1600E+00
    -10.290  0.0000E+00  0.1600E+00
    -10.208  0.0000E+00  0.1600E+00
    -10.125  0.0000E+00  0.1600E+00
    -10.043  0.0000E+00  0.1600E+00
     -9.960  0.0000E+00  0.1600E+00
     -9.878  0.0000E+00  0.1600E+00
     -9.795  0.0000E+00  0.1600E+00
     -9.713  0.0000E+00  0.1600E+00
     -9.630  0.0000E+00  0.1600E+00
     -9.548  0.0000E+00  0.1600E+00
     -9.465  0.0000E+00  0.1600E+00
     -9.383  0.0000E+00  0.1600E+00
     -9.300  0.0000E+00  0.1600E+00
     -9.218  0.0000E+00  0.1600E+00
     -9.135  0.0000E+00  0.1600E+00
     -9.053  0.0000E+00  0.1600E+00
     -8.970  0.0000E+00  0.1600E+00
     -8.888  0.0000E+00  0.1600E+00
     -8.805  0.0000E+00  0.1600E+00
     -8.723  0.0000E+00  0.1600E+00
     -8.640  0.0000E+00  0.1600E+00
     -8.558  0.0000E+00  0.1600E+00
     -8.475  0.0000E+00  0.1600E+00
     -8.393  0.0000E+00  0.1600E+00
     -8.310  0.0000E+00  0.1600E+00
     -8.228  0.1702E-01  0.1602E+00
     -8.145  0.1634E+00  0.1658E+00
     -8.063  0.4355E+00  0.1900E+00
     -7.980  0.5855E+00  0.2306E+00
     -7.898  0.4479E+00  0.2674E+00
     -7.815  0.1238E+00  0.2879E+00
     -7.733  0.1304E+00  0.2981E+00
     -7.650  0.2371E+00  0.3156E+00
     -7.568  0.0000E+00  0.3200E+00
     -7.485  0.0000E+00  0.3200E+00
     -7.403  0.0000E+00  0.3200E+00
     -7.320  0.0000E+00  0.3200E+00
     -7.238  0.1152E+00  0.3229E+00
     -7.155  0.4591E+00  0.3463E+00
     -7.073  0.3874E+00  0.3780E+00
     -6.990  0.9000E+00  0.4234E+00
     -6.908  0.4884E+00  0.4791E+00
     -6.825  0.4063E+00  0.5096E+00
     -6.743  0.4091E+00  0.5429E+00
     -6.660  0.3337E-01  0.5599E+00
     -6.578  0.0000E+00  0.5600E+00
     -6.495  0.0000E+00  0.5600E+00
     -6.413  0.0000E+00  0.5600E+00
     -6.330  0.0000E+00  0.5600E+00
     -6.248  0.0000E+00  0.5600E+00
     -6.165  0.0000E+00  0.5600E+00
     -6.083  0.0000E+00  0.5600E+00
     -6.000  0.0000E+00  0.5600E+00
     -5.918  0.0000E+00  0.5600E+00
     -5.835  0.0000E+00  0.5600E+00
     -5.753  0.0000E+00  0.5600E+00
     -5.670  0.0000E+00  0.5600E+00
     -5.588  0.0000E+00  0.5600E+00
     -5.505  0.0000E+00  0.5600E+00
     -5.423  0.0000E+00  0.5600E+00
     -5.340  0.0000E+00  0.5600E+00
     -5.258  0.0000E+00  0.5600E+00
     -5.175  0.0000E+00  0.5600E+00
     -5.093  0.0000E+00  0.5600E+00
     -5.010  0.0000E+00  0.5600E+00
     -4.928  0.0000E+00  0.5600E+00
     -4.845  0.0000E+00  0.5600E+00
     -4.763  0.0000E+00  0.5600E+00
     -4.680  0.0000E+00  0.5600E+00
     -4.598  0.0000E+00  0.5600E+00
     -4.515  0.0000E+00  0.5600E+00
     -4.433  0.0000E+00  0.5600E+00
     -4.350  0.0000E+00  0.5600E+00
     -4.268  0.0000E+00  0.5600E+00
     -4.185  0.0000E+00  0.5600E+00
     -4.103  0.0000E+00  0.5600E+00
     -4.020  0.0000E+00  0.5600E+00
     -3.938  0.0000E+00  0.5600E+00
     -3.855  0.0000E+00  0.5600E+00
     -3.773  0.0000E+00  0.5600E+00
     -3.690  0.0000E+00  0.5600E+00
     -3.608  0.0000E+00  0.5600E+00
     -3.525  0.0000E+00  0.5600E+00
     -3.443  0.0000E+00  0.5600E+00
     -3.360  0.0000E+00  0.5600E+00
     -3.278  0.0000E+00  0.5600E+00
     -3.195  0.0000E+00  0.5600E+00
     -3.113  0.0000E+00  0.5600E+00
     -3.030  0.0000E+00  0.5600E+00
     -2.948  0.0000E+00  0.5600E+00
     -2.865  0.0000E+00  0.5600E+00
     -2.783  0.0000E+00  0.5600E+00
     -2.700  0.3524E-03  0.5600E+00
     -2.618  0.2882E-01  0.5610E+00
     -2.535  0.8685E-01  0.5657E+00
     -2.453  0.1333E+00  0.5750E+00
     -2.370  0.1077E+00  0.5857E+00
     -2.288  0.9951E-01  0.5940E+00
     -2.205  0.1303E-02  0.6000E+00
     -2.123  0.6791E-01  0.6013E+00
     -2.040  0.8111E-01  0.6079E+00
     -1.958  0.8113E-01  0.6146E+00
     -1.875  0.1161E+00  0.6221E+00
     -1.793  0.1501E+00  0.6341E+00
     -1.710  0.0000E+00  0.6400E+00
     -1.628  0.0000E+00  0.6400E+00
     -1.545  0.0000E+00  0.6400E+00
     -1.463  0.0000E+00  0.6400E+00
     -1.380  0.0000E+00  0.6400E+00
     -1.298  0.0000E+00  0.6400E+00
     -1.215  0.0000E+00  0.6400E+00
     -1.133  0.0000E+00  0.6400E+00
     -1.050  0.0000E+00  0.6400E+00
     -0.968  0.0000E+00  0.6400E+00
     -0.885  0.0000E+00  0.6400E+00
     -0.803  0.0000E+00  0.6400E+00
     -0.720  0.0000E+00  0.6400E+00
     -0.638  0.0000E+00  0.6400E+00
     -0.555  0.0000E+00  0.6400E+00
     -0.473  0.0000E+00  0.6400E+00
     -0.390  0.0000E+00  0.6400E+00
     -0.308  0.0000E+00  0.6400E+00
     -0.225  0.0000E+00  0.6400E+00
     -0.143  0.0000E+00  0.6400E+00
     -0.060  0.0000E+00  0.6400E+00
      0.022  0.0000E+00  0.6400E+00
      0.105  0.0000E+00  0.6400E+00
      0.187  0.0000E+00  0.6400E+00
      0.270  0.0000E+00  0.6400E+00
      0.352  0.0000E+00  0.6400E+00
      0.435  0.0000E+00  0.6400E+00
      0.517  0.0000E+00  0.6400E+00
      0.600  0.0000E+00  0.6400E+00
      0.682  0.0000E+00  0.6400E+00
      0.765  0.0000E+00  0.6400E+00
      0.847  0.0000E+00  0.6400E+00
      0.930  0.0000E+00  0.6400E+00
      1.012  0.0000E+00  0.6400E+00
      1.095  0.0000E+00  0.6400E+00
      1.177  0.2853E-03  0.6400E+00
      1.260  0.2377E-02  0.6401E+00
      1.342  0.5590E-02  0.6404E+00
      1.425  0.8427E-02  0.6410E+00
      1.507  0.9848E-02  0.6418E+00
      1.590  0.1114E-01  0.6426E+00
      1.672  0.1280E-01  0.6436E+00
      1.755  0.1473E-01  0.6448E+00
      1.837  0.1767E-01  0.6461E+00
      1.920  0.2178E-01  0.6477E+00
      2.002  0.2831E-01  0.6498E+00
      2.085  0.3476E-01  0.6524E+00
      2.167  0.3001E-01  0.6551E+00
      2.250  0.2224E-01  0.6573E+00
      2.332  0.2085E-01  0.6590E+00
      2.415  0.2075E-01  0.6607E+00
      2.497  0.2836E-01  0.6626E+00
      2.580  0.4434E-01  0.6656E+00
      2.662  0.8556E-01  0.6711E+00
      2.745  0.6912E-01  0.6777E+00
      2.827  0.4918E-01  0.6818E+00
      2.910  0.1218E+00  0.6899E+00
      2.992  0.7044E-01  0.6977E+00
      3.075  0.8251E-01  0.7033E+00
      3.157  0.9246E-01  0.7108E+00
      3.240  0.4564E-01  0.7166E+00
      3.322  0.3025E-01  0.7195E+00
      3.405  0.6855E-01  0.7232E+00
      3.487  0.1055E+00  0.7299E+00
      3.570  0.7960E-01  0.7383E+00
      3.652  0.6679E-01  0.7440E+00
      3.735  0.8678E-01  0.7501E+00
      3.817  0.9100E-01  0.7578E+00
      3.900  0.5920E-01  0.7641E+00
      3.982  0.1309E+00  0.7703E+00
      4.065  0.2116E+00  0.7878E+00
      4.147  0.6770E-01  0.7988E+00
      4.230  0.9702E-01  0.8044E+00
      4.312  0.1282E+00  0.8155E+00
      4.395  0.1259E+00  0.8256E+00
      4.477  0.8180E-01  0.8348E+00
      4.560  0.1671E+00  0.8438E+00
      4.642  0.1709E+00  0.8588E+00
      4.725  0.1310E+00  0.8708E+00
      4.807  0.1351E+00  0.8819E+00
      4.890  0.1072E+00  0.8915E+00
      4.972  0.7141E-01  0.9000E+00
      5.055  0.1271E+00  0.9083E+00
      5.137  0.1047E+00  0.9177E+00
      5.220  0.2370E+00  0.9309E+00
      5.302  0.1284E+00  0.9456E+00
      5.385  0.1185E+00  0.9557E+00
      5.467  0.8446E-01  0.9641E+00
      5.550  0.5524E-01  0.9697E+00
      5.632  0.5818E-01  0.9741E+00
      5.715  0.3329E-01  0.9781E+00
      5.797  0.7209E-02  0.9797E+00
      5.880  0.9007E-03  0.9800E+00
      5.962  0.0000E+00  0.9800E+00
      6.045  0.0000E+00  0.9800E+00
      6.127  0.0000E+00  0.9800E+00
      6.210  0.0000E+00  0.9800E+00
      6.292  0.0000E+00  0.9800E+00
      6.375  0.0000E+00  0.9800E+00
      6.457  0.0000E+00  0.9800E+00
      6.540  0.0000E+00  0.9800E+00
      6.622  0.0000E+00  0.9800E+00
      6.705  0.0000E+00  0.9800E+00
      6.787  0.0000E+00  0.9800E+00
      6.870  0.0000E+00  0.9800E+00
      6.952  0.0000E+00  0.9800E+00
      7.035  0.0000E+00  0.9800E+00
      7.117  0.0000E+00  0.9800E+00
      7.200  0.0000E+00  0.9800E+00
      7.282  0.0000E+00  0.9800E+00
      7.365  0.0000E+00  0.9800E+00
      7.447  0.0000E+00  0.9800E+00
      7.530  0.0000E+00  0.9800E+00
      7.612  0.0000E+00  0.9800E+00
      7.695  0.0000E+00  0.9800E+00
      7.777  0.0000E+00  0.9800E+00
      7.860  0.0000E+00  0.9800E+00
      7.942  0.0000E+00  0.9800E+00
