  80  80   0   0
  0.1078958E+02  0.1208583E-08  0.8453651E-09  0.8448387E-09  0.5000000E-15
  1.000000000000000E-004
  CAR 
 diamond                                 
      8.21742446    -16.91429924  301     -6.58934942      1.00000000
    -16.914  0.0000E+00  0.0000E+00
    -16.831  0.0000E+00  0.0000E+00
    -16.747  0.0000E+00  0.0000E+00
    -16.663  0.0000E+00  0.0000E+00
    -16.579  0.0000E+00  0.0000E+00
    -16.495  0.0000E+00  0.0000E+00
    -16.412  0.0000E+00  0.0000E+00
    -16.328  0.0000E+00  0.0000E+00
    -16.244  0.0000E+00  0.0000E+00
    -16.160  0.0000E+00  0.0000E+00
    -16.077  0.0000E+00  0.0000E+00
    -15.993  0.0000E+00  0.0000E+00
    -15.909  0.0000E+00  0.0000E+00
    -15.825  0.0000E+00  0.0000E+00
    -15.741  0.0000E+00  0.0000E+00
    -15.658  0.0000E+00  0.0000E+00
    -15.574  0.0000E+00  0.0000E+00
    -15.490  0.0000E+00  0.0000E+00
    -15.406  0.0000E+00  0.0000E+00
    -15.323  0.0000E+00  0.0000E+00
    -15.239  0.0000E+00  0.0000E+00
    -15.155  0.0000E+00  0.0000E+00
    -15.071  0.0000E+00  0.0000E+00
    -14.988  0.0000E+00  0.0000E+00
    -14.904  0.7559E-02  0.2655E-04
    -14.820  0.1289E+00  0.6049E-02
    -14.736  0.1555E+00  0.2145E-01
    -14.652  0.7055E+00  0.5195E-01
    -14.569  0.6628E+00  0.1048E+00
    -14.485  0.0000E+00  0.1600E+00
    -14.401  0.0000E+00  0.1600E+00
    -14.317  0.0000E+00  0.1600E+00
    -14.234  0.0000E+00  0.1600E+00
    -14.150  0.0000E+00  0.1600E+00
    -14.066  0.0000E+00  0.1600E+00
    -13.982  0.0000E+00  0.1600E+00
    -13.898  0.0000E+00  0.1600E+00
    -13.815  0.0000E+00  0.1600E+00
    -13.731  0.0000E+00  0.1600E+00
    -13.647  0.0000E+00  0.1600E+00
    -13.563  0.0000E+00  0.1600E+00
    -13.480  0.0000E+00  0.1600E+00
    -13.396  0.0000E+00  0.1600E+00
    -13.312  0.0000E+00  0.1600E+00
    -13.228  0.0000E+00  0.1600E+00
    -13.145  0.0000E+00  0.1600E+00
    -13.061  0.0000E+00  0.1600E+00
    -12.977  0.0000E+00  0.1600E+00
    -12.893  0.0000E+00  0.1600E+00
    -12.809  0.0000E+00  0.1600E+00
    -12.726  0.0000E+00  0.1600E+00
    -12.642  0.0000E+00  0.1600E+00
    -12.558  0.0000E+00  0.1600E+00
    -12.474  0.0000E+00  0.1600E+00
    -12.391  0.0000E+00  0.1600E+00
    -12.307  0.0000E+00  0.1600E+00
    -12.223  0.0000E+00  0.1600E+00
    -12.139  0.0000E+00  0.1600E+00
    -12.055  0.0000E+00  0.1600E+00
    -11.972  0.0000E+00  0.1600E+00
    -11.888  0.0000E+00  0.1600E+00
    -11.804  0.0000E+00  0.1600E+00
    -11.720  0.0000E+00  0.1600E+00
    -11.637  0.0000E+00  0.1600E+00
    -11.553  0.0000E+00  0.1600E+00
    -11.469  0.0000E+00  0.1600E+00
    -11.385  0.0000E+00  0.1600E+00
    -11.302  0.0000E+00  0.1600E+00
    -11.218  0.0000E+00  0.1600E+00
    -11.134  0.0000E+00  0.1600E+00
    -11.050  0.0000E+00  0.1600E+00
    -10.966  0.0000E+00  0.1600E+00
    -10.883  0.0000E+00  0.1600E+00
    -10.799  0.0000E+00  0.1600E+00
    -10.715  0.0000E+00  0.1600E+00
    -10.631  0.0000E+00  0.1600E+00
    -10.548  0.0000E+00  0.1600E+00
    -10.464  0.0000E+00  0.1600E+00
    -10.380  0.0000E+00  0.1600E+00
    -10.296  0.0000E+00  0.1600E+00
    -10.213  0.0000E+00  0.1600E+00
    -10.129  0.0000E+00  0.1600E+00
    -10.045  0.0000E+00  0.1600E+00
     -9.961  0.0000E+00  0.1600E+00
     -9.877  0.0000E+00  0.1600E+00
     -9.794  0.0000E+00  0.1600E+00
     -9.710  0.0000E+00  0.1600E+00
     -9.626  0.0000E+00  0.1600E+00
     -9.542  0.0000E+00  0.1600E+00
     -9.459  0.0000E+00  0.1600E+00
     -9.375  0.0000E+00  0.1600E+00
     -9.291  0.0000E+00  0.1600E+00
     -9.207  0.0000E+00  0.1600E+00
     -9.123  0.0000E+00  0.1600E+00
     -9.040  0.0000E+00  0.1600E+00
     -8.956  0.0000E+00  0.1600E+00
     -8.872  0.0000E+00  0.1600E+00
     -8.788  0.0000E+00  0.1600E+00
     -8.705  0.0000E+00  0.1600E+00
     -8.621  0.0000E+00  0.1600E+00
     -8.537  0.0000E+00  0.1600E+00
     -8.453  0.0000E+00  0.1600E+00
     -8.370  0.0000E+00  0.1600E+00
     -8.286  0.0000E+00  0.1600E+00
     -8.202  0.0000E+00  0.1600E+00
     -8.118  0.0000E+00  0.1600E+00
     -8.034  0.0000E+00  0.1600E+00
     -7.951  0.0000E+00  0.1600E+00
     -7.867  0.0000E+00  0.1600E+00
     -7.783  0.0000E+00  0.1600E+00
     -7.699  0.0000E+00  0.1600E+00
     -7.616  0.1566E+00  0.1630E+00
     -7.532  0.3419E+00  0.1846E+00
     -7.448  0.5332E+00  0.2224E+00
     -7.364  0.3323E+00  0.2585E+00
     -7.280  0.2327E+00  0.2867E+00
     -7.197  0.1832E+00  0.3092E+00
     -7.113  0.2994E+00  0.3291E+00
     -7.029  0.3419E+00  0.3582E+00
     -6.945  0.4443E+00  0.3888E+00
     -6.862  0.8931E+00  0.4525E+00
     -6.778  0.1083E+01  0.5287E+00
     -6.694  0.9077E+00  0.6051E+00
     -6.610  0.7011E-02  0.6400E+00
     -6.527  0.0000E+00  0.6400E+00
     -6.443  0.0000E+00  0.6400E+00
     -6.359  0.0000E+00  0.6400E+00
     -6.275  0.0000E+00  0.6400E+00
     -6.191  0.0000E+00  0.6400E+00
     -6.108  0.0000E+00  0.6400E+00
     -6.024  0.0000E+00  0.6400E+00
     -5.940  0.0000E+00  0.6400E+00
     -5.856  0.0000E+00  0.6400E+00
     -5.773  0.0000E+00  0.6400E+00
     -5.689  0.0000E+00  0.6400E+00
     -5.605  0.0000E+00  0.6400E+00
     -5.521  0.0000E+00  0.6400E+00
     -5.437  0.0000E+00  0.6400E+00
     -5.354  0.0000E+00  0.6400E+00
     -5.270  0.0000E+00  0.6400E+00
     -5.186  0.0000E+00  0.6400E+00
     -5.102  0.0000E+00  0.6400E+00
     -5.019  0.0000E+00  0.6400E+00
     -4.935  0.0000E+00  0.6400E+00
     -4.851  0.0000E+00  0.6400E+00
     -4.767  0.0000E+00  0.6400E+00
     -4.684  0.0000E+00  0.6400E+00
     -4.600  0.0000E+00  0.6400E+00
     -4.516  0.0000E+00  0.6400E+00
     -4.432  0.0000E+00  0.6400E+00
     -4.348  0.0000E+00  0.6400E+00
     -4.265  0.0000E+00  0.6400E+00
     -4.181  0.0000E+00  0.6400E+00
     -4.097  0.0000E+00  0.6400E+00
     -4.013  0.0000E+00  0.6400E+00
     -3.930  0.0000E+00  0.6400E+00
     -3.846  0.0000E+00  0.6400E+00
     -3.762  0.0000E+00  0.6400E+00
     -3.678  0.0000E+00  0.6400E+00
     -3.594  0.0000E+00  0.6400E+00
     -3.511  0.0000E+00  0.6400E+00
     -3.427  0.0000E+00  0.6400E+00
     -3.343  0.0000E+00  0.6400E+00
     -3.259  0.0000E+00  0.6400E+00
     -3.176  0.0000E+00  0.6400E+00
     -3.092  0.0000E+00  0.6400E+00
     -3.008  0.0000E+00  0.6400E+00
     -2.924  0.0000E+00  0.6400E+00
     -2.841  0.0000E+00  0.6400E+00
     -2.757  0.0000E+00  0.6400E+00
     -2.673  0.0000E+00  0.6400E+00
     -2.589  0.0000E+00  0.6400E+00
     -2.505  0.0000E+00  0.6400E+00
     -2.422  0.0000E+00  0.6400E+00
     -2.338  0.0000E+00  0.6400E+00
     -2.254  0.0000E+00  0.6400E+00
     -2.170  0.0000E+00  0.6400E+00
     -2.087  0.0000E+00  0.6400E+00
     -2.003  0.0000E+00  0.6400E+00
     -1.919  0.0000E+00  0.6400E+00
     -1.835  0.0000E+00  0.6400E+00
     -1.751  0.0000E+00  0.6400E+00
     -1.668  0.0000E+00  0.6400E+00
     -1.584  0.0000E+00  0.6400E+00
     -1.500  0.0000E+00  0.6400E+00
     -1.416  0.0000E+00  0.6400E+00
     -1.333  0.0000E+00  0.6400E+00
     -1.249  0.0000E+00  0.6400E+00
     -1.165  0.0000E+00  0.6400E+00
     -1.081  0.0000E+00  0.6400E+00
     -0.998  0.0000E+00  0.6400E+00
     -0.914  0.0000E+00  0.6400E+00
     -0.830  0.0000E+00  0.6400E+00
     -0.746  0.0000E+00  0.6400E+00
     -0.662  0.0000E+00  0.6400E+00
     -0.579  0.0000E+00  0.6400E+00
     -0.495  0.0000E+00  0.6400E+00
     -0.411  0.0000E+00  0.6400E+00
     -0.327  0.0000E+00  0.6400E+00
     -0.244  0.0000E+00  0.6400E+00
     -0.160  0.0000E+00  0.6400E+00
     -0.076  0.0000E+00  0.6400E+00
      0.008  0.0000E+00  0.6400E+00
      0.092  0.0000E+00  0.6400E+00
      0.175  0.0000E+00  0.6400E+00
      0.259  0.0000E+00  0.6400E+00
      0.343  0.0000E+00  0.6400E+00
      0.427  0.0000E+00  0.6400E+00
      0.510  0.0000E+00  0.6400E+00
      0.594  0.0000E+00  0.6400E+00
      0.678  0.0000E+00  0.6400E+00
      0.762  0.0000E+00  0.6400E+00
      0.845  0.0000E+00  0.6400E+00
      0.929  0.0000E+00  0.6400E+00
      1.013  0.9900E-04  0.6400E+00
      1.097  0.1992E-02  0.6401E+00
      1.181  0.5443E-02  0.6404E+00
      1.264  0.8434E-02  0.6410E+00
      1.348  0.9717E-02  0.6417E+00
      1.432  0.1106E-01  0.6426E+00
      1.516  0.1278E-01  0.6436E+00
      1.599  0.1461E-01  0.6447E+00
      1.683  0.1753E-01  0.6461E+00
      1.767  0.2187E-01  0.6477E+00
      1.851  0.2680E-01  0.6498E+00
      1.934  0.3198E-01  0.6522E+00
      2.018  0.2711E-01  0.6548E+00
      2.102  0.2018E-01  0.6567E+00
      2.186  0.1976E-01  0.6584E+00
      2.270  0.2167E-01  0.6601E+00
      2.353  0.2929E-01  0.6621E+00
      2.437  0.4734E-01  0.6653E+00
      2.521  0.6755E-01  0.6703E+00
      2.605  0.5408E-01  0.6755E+00
      2.688  0.3188E-01  0.6792E+00
      2.772  0.3897E-01  0.6817E+00
      2.856  0.1076E+00  0.6891E+00
      2.940  0.7399E-01  0.6967E+00
      3.024  0.1168E+00  0.7043E+00
      3.107  0.1147E+00  0.7139E+00
      3.191  0.4897E-01  0.7210E+00
      3.275  0.7312E-01  0.7251E+00
      3.359  0.9466E-01  0.7340E+00
      3.442  0.7318E-01  0.7404E+00
      3.526  0.9727E-01  0.7473E+00
      3.610  0.1161E+00  0.7568E+00
      3.694  0.1119E+00  0.7661E+00
      3.777  0.9546E-01  0.7746E+00
      3.861  0.2162E+00  0.7860E+00
      3.945  0.7058E-01  0.8007E+00
      4.029  0.1053E+00  0.8071E+00
      4.113  0.1439E+00  0.8176E+00
      4.196  0.1231E+00  0.8316E+00
      4.280  0.8183E-01  0.8391E+00
      4.364  0.1017E+00  0.8465E+00
      4.448  0.1259E+00  0.8571E+00
      4.531  0.1624E+00  0.8719E+00
      4.615  0.9420E-01  0.8812E+00
      4.699  0.4407E+00  0.9081E+00
      4.783  0.5051E-01  0.9205E+00
      4.867  0.1023E+00  0.9281E+00
      4.950  0.1056E+00  0.9365E+00
      5.034  0.1279E+00  0.9474E+00
      5.118  0.8988E-01  0.9563E+00
      5.202  0.2202E+00  0.9682E+00
      5.285  0.1630E+00  0.9831E+00
      5.369  0.9264E-01  0.9947E+00
      5.453  0.1739E+00  0.1003E+01
      5.537  0.1531E+00  0.1018E+01
      5.620  0.1190E+00  0.1030E+01
      5.704  0.8647E-01  0.1037E+01
      5.788  0.1069E+00  0.1045E+01
      5.872  0.6663E-01  0.1052E+01
      5.956  0.3581E-01  0.1056E+01
      6.039  0.1918E-01  0.1059E+01
      6.123  0.5202E-02  0.1060E+01
      6.207  0.6496E-04  0.1060E+01
      6.291  0.0000E+00  0.1060E+01
      6.374  0.0000E+00  0.1060E+01
      6.458  0.0000E+00  0.1060E+01
      6.542  0.0000E+00  0.1060E+01
      6.626  0.0000E+00  0.1060E+01
      6.710  0.0000E+00  0.1060E+01
      6.793  0.0000E+00  0.1060E+01
      6.877  0.0000E+00  0.1060E+01
      6.961  0.0000E+00  0.1060E+01
      7.045  0.0000E+00  0.1060E+01
      7.128  0.0000E+00  0.1060E+01
      7.212  0.0000E+00  0.1060E+01
      7.296  0.0000E+00  0.1060E+01
      7.380  0.0000E+00  0.1060E+01
      7.463  0.0000E+00  0.1060E+01
      7.547  0.0000E+00  0.1060E+01
      7.631  0.0000E+00  0.1060E+01
      7.715  0.0000E+00  0.1060E+01
      7.799  0.0000E+00  0.1060E+01
      7.882  0.0000E+00  0.1060E+01
      7.966  0.0000E+00  0.1060E+01
      8.050  0.0000E+00  0.1060E+01
      8.134  0.0000E+00  0.1060E+01
      8.217  0.0000E+00  0.1060E+01
