  80  80   0   0
  0.1078958E+02  0.1208583E-08  0.8453651E-09  0.8448387E-09  0.5000000E-15
  1.000000000000000E-004
  CAR 
 diamond                                 
      8.22253867    -16.91519127  301     -6.58777388      1.00000000
    -16.915  0.0000E+00  0.0000E+00
    -16.831  0.0000E+00  0.0000E+00
    -16.748  0.0000E+00  0.0000E+00
    -16.664  0.0000E+00  0.0000E+00
    -16.580  0.0000E+00  0.0000E+00
    -16.496  0.0000E+00  0.0000E+00
    -16.412  0.0000E+00  0.0000E+00
    -16.329  0.0000E+00  0.0000E+00
    -16.245  0.0000E+00  0.0000E+00
    -16.161  0.0000E+00  0.0000E+00
    -16.077  0.0000E+00  0.0000E+00
    -15.993  0.0000E+00  0.0000E+00
    -15.910  0.0000E+00  0.0000E+00
    -15.826  0.0000E+00  0.0000E+00
    -15.742  0.0000E+00  0.0000E+00
    -15.658  0.0000E+00  0.0000E+00
    -15.575  0.0000E+00  0.0000E+00
    -15.491  0.0000E+00  0.0000E+00
    -15.407  0.0000E+00  0.0000E+00
    -15.323  0.0000E+00  0.0000E+00
    -15.239  0.0000E+00  0.0000E+00
    -15.156  0.0000E+00  0.0000E+00
    -15.072  0.0000E+00  0.0000E+00
    -14.988  0.0000E+00  0.0000E+00
    -14.904  0.8271E-02  0.3038E-04
    -14.820  0.1301E+00  0.6118E-02
    -14.737  0.1580E+00  0.2154E-01
    -14.653  0.7048E+00  0.5240E-01
    -14.569  0.6673E+00  0.1052E+00
    -14.485  0.0000E+00  0.1600E+00
    -14.401  0.0000E+00  0.1600E+00
    -14.318  0.0000E+00  0.1600E+00
    -14.234  0.0000E+00  0.1600E+00
    -14.150  0.0000E+00  0.1600E+00
    -14.066  0.0000E+00  0.1600E+00
    -13.982  0.0000E+00  0.1600E+00
    -13.899  0.0000E+00  0.1600E+00
    -13.815  0.0000E+00  0.1600E+00
    -13.731  0.0000E+00  0.1600E+00
    -13.647  0.0000E+00  0.1600E+00
    -13.563  0.0000E+00  0.1600E+00
    -13.480  0.0000E+00  0.1600E+00
    -13.396  0.0000E+00  0.1600E+00
    -13.312  0.0000E+00  0.1600E+00
    -13.228  0.0000E+00  0.1600E+00
    -13.145  0.0000E+00  0.1600E+00
    -13.061  0.0000E+00  0.1600E+00
    -12.977  0.0000E+00  0.1600E+00
    -12.893  0.0000E+00  0.1600E+00
    -12.809  0.0000E+00  0.1600E+00
    -12.726  0.0000E+00  0.1600E+00
    -12.642  0.0000E+00  0.1600E+00
    -12.558  0.0000E+00  0.1600E+00
    -12.474  0.0000E+00  0.1600E+00
    -12.390  0.0000E+00  0.1600E+00
    -12.307  0.0000E+00  0.1600E+00
    -12.223  0.0000E+00  0.1600E+00
    -12.139  0.0000E+00  0.1600E+00
    -12.055  0.0000E+00  0.1600E+00
    -11.971  0.0000E+00  0.1600E+00
    -11.888  0.0000E+00  0.1600E+00
    -11.804  0.0000E+00  0.1600E+00
    -11.720  0.0000E+00  0.1600E+00
    -11.636  0.0000E+00  0.1600E+00
    -11.552  0.0000E+00  0.1600E+00
    -11.469  0.0000E+00  0.1600E+00
    -11.385  0.0000E+00  0.1600E+00
    -11.301  0.0000E+00  0.1600E+00
    -11.217  0.0000E+00  0.1600E+00
    -11.134  0.0000E+00  0.1600E+00
    -11.050  0.0000E+00  0.1600E+00
    -10.966  0.0000E+00  0.1600E+00
    -10.882  0.0000E+00  0.1600E+00
    -10.798  0.0000E+00  0.1600E+00
    -10.715  0.0000E+00  0.1600E+00
    -10.631  0.0000E+00  0.1600E+00
    -10.547  0.0000E+00  0.1600E+00
    -10.463  0.0000E+00  0.1600E+00
    -10.379  0.0000E+00  0.1600E+00
    -10.296  0.0000E+00  0.1600E+00
    -10.212  0.0000E+00  0.1600E+00
    -10.128  0.0000E+00  0.1600E+00
    -10.044  0.0000E+00  0.1600E+00
     -9.960  0.0000E+00  0.1600E+00
     -9.877  0.0000E+00  0.1600E+00
     -9.793  0.0000E+00  0.1600E+00
     -9.709  0.0000E+00  0.1600E+00
     -9.625  0.0000E+00  0.1600E+00
     -9.541  0.0000E+00  0.1600E+00
     -9.458  0.0000E+00  0.1600E+00
     -9.374  0.0000E+00  0.1600E+00
     -9.290  0.0000E+00  0.1600E+00
     -9.206  0.0000E+00  0.1600E+00
     -9.122  0.0000E+00  0.1600E+00
     -9.039  0.0000E+00  0.1600E+00
     -8.955  0.0000E+00  0.1600E+00
     -8.871  0.0000E+00  0.1600E+00
     -8.787  0.0000E+00  0.1600E+00
     -8.704  0.0000E+00  0.1600E+00
     -8.620  0.0000E+00  0.1600E+00
     -8.536  0.0000E+00  0.1600E+00
     -8.452  0.0000E+00  0.1600E+00
     -8.368  0.0000E+00  0.1600E+00
     -8.285  0.0000E+00  0.1600E+00
     -8.201  0.0000E+00  0.1600E+00
     -8.117  0.0000E+00  0.1600E+00
     -8.033  0.0000E+00  0.1600E+00
     -7.949  0.0000E+00  0.1600E+00
     -7.866  0.0000E+00  0.1600E+00
     -7.782  0.0000E+00  0.1600E+00
     -7.698  0.0000E+00  0.1600E+00
     -7.614  0.1647E+00  0.1631E+00
     -7.530  0.3515E+00  0.1852E+00
     -7.447  0.5221E+00  0.2235E+00
     -7.363  0.3267E+00  0.2592E+00
     -7.279  0.2270E+00  0.2872E+00
     -7.195  0.1807E+00  0.3096E+00
     -7.111  0.3005E+00  0.3297E+00
     -7.028  0.3346E+00  0.3588E+00
     -6.944  0.4225E+00  0.3895E+00
     -6.860  0.9980E+00  0.4544E+00
     -6.776  0.1105E+01  0.5308E+00
     -6.693  0.8276E+00  0.6074E+00
     -6.609  0.2904E-02  0.6400E+00
     -6.525  0.0000E+00  0.6400E+00
     -6.441  0.0000E+00  0.6400E+00
     -6.357  0.0000E+00  0.6400E+00
     -6.274  0.0000E+00  0.6400E+00
     -6.190  0.0000E+00  0.6400E+00
     -6.106  0.0000E+00  0.6400E+00
     -6.022  0.0000E+00  0.6400E+00
     -5.938  0.0000E+00  0.6400E+00
     -5.855  0.0000E+00  0.6400E+00
     -5.771  0.0000E+00  0.6400E+00
     -5.687  0.0000E+00  0.6400E+00
     -5.603  0.0000E+00  0.6400E+00
     -5.519  0.0000E+00  0.6400E+00
     -5.436  0.0000E+00  0.6400E+00
     -5.352  0.0000E+00  0.6400E+00
     -5.268  0.0000E+00  0.6400E+00
     -5.184  0.0000E+00  0.6400E+00
     -5.100  0.0000E+00  0.6400E+00
     -5.017  0.0000E+00  0.6400E+00
     -4.933  0.0000E+00  0.6400E+00
     -4.849  0.0000E+00  0.6400E+00
     -4.765  0.0000E+00  0.6400E+00
     -4.681  0.0000E+00  0.6400E+00
     -4.598  0.0000E+00  0.6400E+00
     -4.514  0.0000E+00  0.6400E+00
     -4.430  0.0000E+00  0.6400E+00
     -4.346  0.0000E+00  0.6400E+00
     -4.263  0.0000E+00  0.6400E+00
     -4.179  0.0000E+00  0.6400E+00
     -4.095  0.0000E+00  0.6400E+00
     -4.011  0.0000E+00  0.6400E+00
     -3.927  0.0000E+00  0.6400E+00
     -3.844  0.0000E+00  0.6400E+00
     -3.760  0.0000E+00  0.6400E+00
     -3.676  0.0000E+00  0.6400E+00
     -3.592  0.0000E+00  0.6400E+00
     -3.508  0.0000E+00  0.6400E+00
     -3.425  0.0000E+00  0.6400E+00
     -3.341  0.0000E+00  0.6400E+00
     -3.257  0.0000E+00  0.6400E+00
     -3.173  0.0000E+00  0.6400E+00
     -3.089  0.0000E+00  0.6400E+00
     -3.006  0.0000E+00  0.6400E+00
     -2.922  0.0000E+00  0.6400E+00
     -2.838  0.0000E+00  0.6400E+00
     -2.754  0.0000E+00  0.6400E+00
     -2.670  0.0000E+00  0.6400E+00
     -2.587  0.0000E+00  0.6400E+00
     -2.503  0.0000E+00  0.6400E+00
     -2.419  0.0000E+00  0.6400E+00
     -2.335  0.0000E+00  0.6400E+00
     -2.252  0.0000E+00  0.6400E+00
     -2.168  0.0000E+00  0.6400E+00
     -2.084  0.0000E+00  0.6400E+00
     -2.000  0.0000E+00  0.6400E+00
     -1.916  0.0000E+00  0.6400E+00
     -1.833  0.0000E+00  0.6400E+00
     -1.749  0.0000E+00  0.6400E+00
     -1.665  0.0000E+00  0.6400E+00
     -1.581  0.0000E+00  0.6400E+00
     -1.497  0.0000E+00  0.6400E+00
     -1.414  0.0000E+00  0.6400E+00
     -1.330  0.0000E+00  0.6400E+00
     -1.246  0.0000E+00  0.6400E+00
     -1.162  0.0000E+00  0.6400E+00
     -1.078  0.0000E+00  0.6400E+00
     -0.995  0.0000E+00  0.6400E+00
     -0.911  0.0000E+00  0.6400E+00
     -0.827  0.0000E+00  0.6400E+00
     -0.743  0.0000E+00  0.6400E+00
     -0.659  0.0000E+00  0.6400E+00
     -0.576  0.0000E+00  0.6400E+00
     -0.492  0.0000E+00  0.6400E+00
     -0.408  0.0000E+00  0.6400E+00
     -0.324  0.0000E+00  0.6400E+00
     -0.240  0.0000E+00  0.6400E+00
     -0.157  0.0000E+00  0.6400E+00
     -0.073  0.0000E+00  0.6400E+00
      0.011  0.0000E+00  0.6400E+00
      0.095  0.0000E+00  0.6400E+00
      0.178  0.0000E+00  0.6400E+00
      0.262  0.0000E+00  0.6400E+00
      0.346  0.0000E+00  0.6400E+00
      0.430  0.0000E+00  0.6400E+00
      0.514  0.0000E+00  0.6400E+00
      0.597  0.0000E+00  0.6400E+00
      0.681  0.0000E+00  0.6400E+00
      0.765  0.0000E+00  0.6400E+00
      0.849  0.0000E+00  0.6400E+00
      0.933  0.0000E+00  0.6400E+00
      1.016  0.1252E-03  0.6400E+00
      1.100  0.2099E-02  0.6401E+00
      1.184  0.5587E-02  0.6404E+00
      1.268  0.8497E-02  0.6410E+00
      1.352  0.9762E-02  0.6418E+00
      1.435  0.1112E-01  0.6426E+00
      1.519  0.1284E-01  0.6436E+00
      1.603  0.1470E-01  0.6448E+00
      1.687  0.1766E-01  0.6461E+00
      1.771  0.2208E-01  0.6478E+00
      1.854  0.2694E-01  0.6499E+00
      1.938  0.3205E-01  0.6523E+00
      2.022  0.2683E-01  0.6549E+00
      2.106  0.1999E-01  0.6568E+00
      2.189  0.1982E-01  0.6584E+00
      2.273  0.2178E-01  0.6602E+00
      2.357  0.2984E-01  0.6622E+00
      2.441  0.4838E-01  0.6654E+00
      2.525  0.6746E-01  0.6706E+00
      2.608  0.5332E-01  0.6757E+00
      2.692  0.3114E-01  0.6793E+00
      2.776  0.4087E-01  0.6818E+00
      2.860  0.1058E+00  0.6895E+00
      2.944  0.7406E-01  0.6970E+00
      3.027  0.1185E+00  0.7047E+00
      3.111  0.1147E+00  0.7143E+00
      3.195  0.4720E-01  0.7211E+00
      3.279  0.7670E-01  0.7253E+00
      3.363  0.9123E-01  0.7343E+00
      3.446  0.7315E-01  0.7407E+00
      3.530  0.9909E-01  0.7476E+00
      3.614  0.1148E+00  0.7572E+00
      3.698  0.1111E+00  0.7665E+00
      3.782  0.9700E-01  0.7749E+00
      3.865  0.2274E+00  0.7867E+00
      3.949  0.6692E-01  0.8010E+00
      4.033  0.1071E+00  0.8074E+00
      4.117  0.1463E+00  0.8181E+00
      4.201  0.1178E+00  0.8320E+00
      4.284  0.8191E-01  0.8394E+00
      4.368  0.1030E+00  0.8469E+00
      4.452  0.1247E+00  0.8576E+00
      4.536  0.1567E+00  0.8725E+00
      4.619  0.1193E+00  0.8816E+00
      4.703  0.3925E+00  0.9097E+00
      4.787  0.5429E-01  0.9207E+00
      4.871  0.1018E+00  0.9285E+00
      4.955  0.1080E+00  0.9369E+00
      5.038  0.1293E+00  0.9479E+00
      5.122  0.8925E-01  0.9566E+00
      5.206  0.2150E+00  0.9691E+00
      5.290  0.1625E+00  0.9837E+00
      5.374  0.8960E-01  0.9951E+00
      5.457  0.1801E+00  0.1004E+01
      5.541  0.1524E+00  0.1018E+01
      5.625  0.1165E+00  0.1030E+01
      5.709  0.8790E-01  0.1037E+01
      5.793  0.1044E+00  0.1046E+01
      5.876  0.6573E-01  0.1052E+01
      5.960  0.3521E-01  0.1057E+01
      6.044  0.1829E-01  0.1059E+01
      6.128  0.4923E-02  0.1060E+01
      6.212  0.6649E-04  0.1060E+01
      6.295  0.0000E+00  0.1060E+01
      6.379  0.0000E+00  0.1060E+01
      6.463  0.0000E+00  0.1060E+01
      6.547  0.0000E+00  0.1060E+01
      6.630  0.0000E+00  0.1060E+01
      6.714  0.0000E+00  0.1060E+01
      6.798  0.0000E+00  0.1060E+01
      6.882  0.0000E+00  0.1060E+01
      6.966  0.0000E+00  0.1060E+01
      7.049  0.0000E+00  0.1060E+01
      7.133  0.0000E+00  0.1060E+01
      7.217  0.0000E+00  0.1060E+01
      7.301  0.0000E+00  0.1060E+01
      7.385  0.0000E+00  0.1060E+01
      7.468  0.0000E+00  0.1060E+01
      7.552  0.0000E+00  0.1060E+01
      7.636  0.0000E+00  0.1060E+01
      7.720  0.0000E+00  0.1060E+01
      7.804  0.0000E+00  0.1060E+01
      7.887  0.0000E+00  0.1060E+01
      7.971  0.0000E+00  0.1060E+01
      8.055  0.0000E+00  0.1060E+01
      8.139  0.0000E+00  0.1060E+01
      8.223  0.0000E+00  0.1060E+01
