   80   80  200    1
  0.1039724E+02  0.1193753E-08  0.8349915E-09  0.8344716E-09  0.5000000E-15
  1.000000000000000E-004
  CAR 
 diamond                                 
    128     27    106
 
  0.0000000E+00  0.0000000E+00  0.0000000E+00  0.1562500E-01
    1      -14.857901
    2      -14.688852
    3      -14.610052
    4      -14.577586
    5      -14.572818
    6      -14.560489
    7      -14.556108
    8      -14.518078
    9      -14.504945
   10      -14.497898
   11      -14.495258
   12      -14.458065
   13      -14.445009
   14      -14.423488
   15      -14.398216
   16      -14.396606
   17       -7.625914
   18       -7.612126
   19       -7.602636
   20       -7.554435
   21       -7.543784
   22       -7.540003
   23       -7.523753
   24       -7.466448
   25       -7.300020
   26       -7.263616
   27       -7.233190
   28       -7.220211
   29       -7.202754
   30       -7.096043
   31       -7.088387
   32       -7.084009
   33       -7.079587
   34       -7.018425
   35       -6.969549
   36       -6.946367
   37       -6.889863
   38       -6.864406
   39       -6.860528
   40       -6.828776
   41       -6.822938
   42       -6.816202
   43       -6.812570
   44       -6.801708
   45       -6.792440
   46       -6.700521
   47       -6.684780
   48       -6.678286
   49       -6.663601
   50       -6.634521
   51       -6.630289
   52       -6.628281
   53       -6.624972
   54       -6.615310
   55       -6.598005
   56       -6.596044
   57       -6.591214
   58       -6.591164
   59       -6.585370
   60       -6.584027
   61       -6.572368
   62       -6.530375
   63       -6.513424
   64       -6.472315
   65        1.137367
   66        2.444635
   67        2.484706
   68        2.819133
   69        2.935728
   70        3.029556
   71        3.238811
   72        3.258775
   73        3.340543
   74        3.358805
   75        3.412097
   76        3.576541
   77        3.634364
   78        3.651251
   79        3.672344
   80        3.845155
   81        4.159160
   82        4.333228
   83        4.465247
   84        4.545485
   85        4.622982
   86        4.673539
   87        4.725839
   88        4.803467
   89        4.853482
   90        4.903222
   91        4.905522
   92        4.923315
   93        4.943134
   94        5.033123
   95        5.398486
   96        5.413601
   97        5.433174
   98        5.498475
   99        5.515873
  100        5.643869
  101        5.657812
  102        5.870866
  103        5.873164
  104        6.029623
  105        6.104839
  106        6.162660
 
  0.2500000E+00  0.0000000E+00  0.0000000E+00  0.3125000E-01
    1      -14.843133
    2      -14.738688
    3      -14.576883
    4      -14.573502
    5      -14.559834
    6      -14.557699
    7      -14.556747
    8      -14.516144
    9      -14.506354
   10      -14.498590
   11      -14.496034
   12      -14.455575
   13      -14.446507
   14      -14.440981
   15      -14.397920
   16      -14.396653
   17       -7.600099
   18       -7.598906
   19       -7.582808
   20       -7.541777
   21       -7.534051
   22       -7.504464
   23       -7.502824
   24       -7.463238
   25       -7.368158
   26       -7.320509
   27       -7.301707
   28       -7.289171
   29       -7.281294
   30       -7.245314
   31       -7.031088
   32       -7.031045
   33       -6.996491
   34       -6.942664
   35       -6.941079
   36       -6.856579
   37       -6.851049
   38       -6.836086
   39       -6.835492
   40       -6.827083
   41       -6.813847
   42       -6.813774
   43       -6.803783
   44       -6.796117
   45       -6.785529
   46       -6.736422
   47       -6.692109
   48       -6.667148
   49       -6.653509
   50       -6.646515
   51       -6.643337
   52       -6.634808
   53       -6.630274
   54       -6.626920
   55       -6.607761
   56       -6.606625
   57       -6.603467
   58       -6.594553
   59       -6.592165
   60       -6.576418
   61       -6.574847
   62       -6.530595
   63       -6.524060
   64       -6.518903
   65        1.240009
   66        1.963597
   67        2.895341
   68        2.925641
   69        2.977232
   70        3.079808
   71        3.204926
   72        3.260186
   73        3.267702
   74        3.337374
   75        3.350958
   76        3.533508
   77        3.647205
   78        3.661328
   79        3.763580
   80        3.905528
   81        4.195851
   82        4.249447
   83        4.301968
   84        4.440861
   85        4.596568
   86        4.643256
   87        4.709795
   88        4.814277
   89        4.827744
   90        4.852545
   91        4.891454
   92        4.936124
   93        5.015718
   94        5.108831
   95        5.263349
   96        5.365526
   97        5.431437
   98        5.511282
   99        5.539599
  100        5.613002
  101        5.643345
  102        5.745539
  103        5.930314
  104        5.993191
  105        6.104766
  106        6.545588
 
  0.5000000E+00  0.0000000E+00  0.0000000E+00  0.1562500E-01
    1      -14.800947
    2      -14.800946
    3      -14.575196
    4      -14.575195
    5      -14.558296
    6      -14.558295
    7      -14.511238
    8      -14.511237
    9      -14.497764
   10      -14.497762
   11      -14.489407
   12      -14.489405
   13      -14.450613
   14      -14.450612
   15      -14.397212
   16      -14.397210
   17       -7.577016
   18       -7.577015
   19       -7.534697
   20       -7.534697
   21       -7.508133
   22       -7.508132
   23       -7.407035
   24       -7.407035
   25       -7.404637
   26       -7.404637
   27       -7.402175
   28       -7.402173
   29       -7.338686
   30       -7.338685
   31       -6.967511
   32       -6.967511
   33       -6.962178
   34       -6.962177
   35       -6.885521
   36       -6.885519
   37       -6.836615
   38       -6.836613
   39       -6.825280
   40       -6.825280
   41       -6.785726
   42       -6.785724
   43       -6.718573
   44       -6.718573
   45       -6.712555
   46       -6.712554
   47       -6.706391
   48       -6.706390
   49       -6.677618
   50       -6.677618
   51       -6.658525
   52       -6.658524
   53       -6.651455
   54       -6.651455
   55       -6.623915
   56       -6.623915
   57       -6.600059
   58       -6.600057
   59       -6.596343
   60       -6.596341
   61       -6.551813
   62       -6.551812
   63       -6.546424
   64       -6.546423
   65        1.531078
   66        1.531079
   67        3.083052
   68        3.083054
   69        3.084872
   70        3.084872
   71        3.209440
   72        3.209441
   73        3.222363
   74        3.222364
   75        3.362029
   76        3.362029
   77        3.694011
   78        3.694012
   79        4.005973
   80        4.005973
   81        4.072542
   82        4.072543
   83        4.298343
   84        4.298344
   85        4.605118
   86        4.605120
   87        4.768212
   88        4.768212
   89        4.774542
   90        4.774545
   91        4.796768
   92        4.796768
   93        5.244004
   94        5.244005
   95        5.316572
   96        5.316572
   97        5.418872
   98        5.418872
   99        5.631089
  100        5.631090
  101        5.677168
  102        5.677169
  103        5.796133
  104        5.796135
  105        6.235101
  106        6.737379
 
  0.0000000E+00  0.2500000E+00  0.0000000E+00  0.3125000E-01
    1      -14.828675
    2      -14.672508
    3      -14.647969
    4      -14.593741
    5      -14.590599
    6      -14.546651
    7      -14.543405
    8      -14.512599
    9      -14.509333
   10      -14.483481
   11      -14.482773
   12      -14.455058
   13      -14.452985
   14      -14.423458
   15      -14.412926
   16      -14.411803
   17       -7.638371
   18       -7.560671
   19       -7.551861
   20       -7.539198
   21       -7.504528
   22       -7.498211
   23       -7.479540
   24       -7.351123
   25       -7.347751
   26       -7.267848
   27       -7.225912
   28       -7.217155
   29       -7.161477
   30       -7.161296
   31       -7.127228
   32       -7.103253
   33       -7.091622
   34       -7.018298
   35       -6.953212
   36       -6.942625
   37       -6.920480
   38       -6.867621
   39       -6.823522
   40       -6.812396
   41       -6.805905
   42       -6.798795
   43       -6.784771
   44       -6.777761
   45       -6.776339
   46       -6.768392
   47       -6.722616
   48       -6.694497
   49       -6.673434
   50       -6.668757
   51       -6.667857
   52       -6.662816
   53       -6.647864
   54       -6.631548
   55       -6.626233
   56       -6.622712
   57       -6.607191
   58       -6.602116
   59       -6.593940
   60       -6.583791
   61       -6.568769
   62       -6.551208
   63       -6.521561
   64       -6.495491
   65        1.337979
   66        2.581793
   67        2.614901
   68        2.620723
   69        2.939052
   70        2.940079
   71        3.149054
   72        3.260402
   73        3.383896
   74        3.428928
   75        3.551053
   76        3.613768
   77        3.681161
   78        3.761432
   79        3.896023
   80        4.157012
   81        4.231712
   82        4.242463
   83        4.328922
   84        4.356811
   85        4.377280
   86        4.685301
   87        4.735579
   88        4.764673
   89        4.805201
   90        4.856425
   91        4.878210
   92        4.920627
   93        4.924850
   94        4.968078
   95        5.238425
   96        5.344605
   97        5.397815
   98        5.446132
   99        5.538866
  100        5.623330
  101        5.748640
  102        5.823938
  103        5.837397
  104        5.954248
  105        6.126567
  106        6.444709
 
  0.2500000E+00  0.2500000E+00  0.0000000E+00  0.6250000E-01
    1      -14.814837
    2      -14.717575
    3      -14.641747
    4      -14.602864
    5      -14.546815
    6      -14.546187
    7      -14.543761
    8      -14.507505
    9      -14.501037
   10      -14.492761
   11      -14.475927
   12      -14.458294
   13      -14.454693
   14      -14.439636
   15      -14.412690
   16      -14.411720
   17       -7.614937
   18       -7.569875
   19       -7.557889
   20       -7.537397
   21       -7.472330
   22       -7.459909
   23       -7.451074
   24       -7.401811
   25       -7.377197
   26       -7.317740
   27       -7.279586
   28       -7.243468
   29       -7.227354
   30       -7.180449
   31       -7.130738
   32       -7.053771
   33       -6.981871
   34       -6.965389
   35       -6.962547
   36       -6.906290
   37       -6.903248
   38       -6.852649
   39       -6.833794
   40       -6.819466
   41       -6.797633
   42       -6.797160
   43       -6.795178
   44       -6.762968
   45       -6.762728
   46       -6.748314
   47       -6.745919
   48       -6.732189
   49       -6.682504
   50       -6.681182
   51       -6.672374
   52       -6.671158
   53       -6.646522
   54       -6.645685
   55       -6.639472
   56       -6.631144
   57       -6.622936
   58       -6.593342
   59       -6.576806
   60       -6.575810
   61       -6.564785
   62       -6.545629
   63       -6.532233
   64       -6.495579
   65        1.433120
   66        2.114799
   67        2.637788
   68        2.836519
   69        3.010232
   70        3.068033
   71        3.187893
   72        3.339497
   73        3.356190
   74        3.468930
   75        3.525121
   76        3.572975
   77        3.671626
   78        3.825474
   79        3.951903
   80        4.054345
   81        4.213113
   82        4.216487
   83        4.234303
   84        4.268713
   85        4.400042
   86        4.632391
   87        4.689605
   88        4.700992
   89        4.802240
   90        4.842297
   91        4.848315
   92        4.866637
   93        5.105124
   94        5.134378
   95        5.201932
   96        5.334803
   97        5.391078
   98        5.514738
   99        5.521138
  100        5.552154
  101        5.656335
  102        5.691301
  103        5.766180
  104        6.011450
  105        6.520694
  106        6.737337
 
  0.5000000E+00  0.2500000E+00  0.0000000E+00  0.3125000E-01
    1      -14.775380
    2      -14.775379
    3      -14.624776
    4      -14.624775
    5      -14.545038
    6      -14.545038
    7      -14.501456
    8      -14.501455
    9      -14.484057
   10      -14.484056
   11      -14.482529
   12      -14.482527
   13      -14.458671
   14      -14.458670
   15      -14.412159
   16      -14.412156
   17       -7.568698
   18       -7.568697
   19       -7.556283
   20       -7.556282
   21       -7.457823
   22       -7.457822
   23       -7.397923
   24       -7.397922
   25       -7.362380
   26       -7.362380
   27       -7.339775
   28       -7.339775
   29       -7.240791
   30       -7.240789
   31       -7.064376
   32       -7.064375
   33       -6.913824
   34       -6.913824
   35       -6.906309
   36       -6.906308
   37       -6.860222
   38       -6.860222
   39       -6.816896
   40       -6.816895
   41       -6.816805
   42       -6.816804
   43       -6.780217
   44       -6.780217
   45       -6.756286
   46       -6.756285
   47       -6.733478
   48       -6.733478
   49       -6.719190
   50       -6.719189
   51       -6.681779
   52       -6.681778
   53       -6.659987
   54       -6.659986
   55       -6.644911
   56       -6.644910
   57       -6.587036
   58       -6.587035
   59       -6.576838
   60       -6.576837
   61       -6.551273
   62       -6.551272
   63       -6.517103
   64       -6.517103
   65        1.704940
   66        1.704941
   67        2.710832
   68        2.710833
   69        3.193007
   70        3.193010
   71        3.274310
   72        3.274310
   73        3.393727
   74        3.393728
   75        3.558737
   76        3.558738
   77        3.807990
   78        3.807990
   79        4.007783
   80        4.007784
   81        4.093272
   82        4.093273
   83        4.211568
   84        4.211569
   85        4.536885
   86        4.536887
   87        4.637854
   88        4.637855
   89        4.755248
   90        4.755249
   91        4.867621
   92        4.867622
   93        5.189445
   94        5.189445
   95        5.378510
   96        5.378510
   97        5.430981
   98        5.430981
   99        5.541853
  100        5.541854
  101        5.583372
  102        5.583374
  103        5.763831
  104        5.763837
  105        6.175582
  106        6.884868
 
  0.0000000E+00  0.5000000E+00  0.0000000E+00  0.1562500E-01
    1      -14.750087
    2      -14.750087
    3      -14.632201
    4      -14.632201
    5      -14.553715
    6      -14.553715
    7      -14.515693
    8      -14.515693
    9      -14.513026
   10      -14.513026
   11      -14.448074
   12      -14.448074
   13      -14.444351
   14      -14.444351
   15      -14.430265
   16      -14.430265
   17       -7.608693
   18       -7.608693
   19       -7.447039
   20       -7.447039
   21       -7.427152
   22       -7.427152
   23       -7.381375
   24       -7.381375
   25       -7.347436
   26       -7.347436
   27       -7.277861
   28       -7.277861
   29       -7.146563
   30       -7.146563
   31       -7.088771
   32       -7.088771
   33       -7.036722
   34       -7.036722
   35       -6.940943
   36       -6.940943
   37       -6.906064
   38       -6.906064
   39       -6.861657
   40       -6.861657
   41       -6.800726
   42       -6.800726
   43       -6.793491
   44       -6.793491
   45       -6.750329
   46       -6.750329
   47       -6.727284
   48       -6.727284
   49       -6.697143
   50       -6.697143
   51       -6.671418
   52       -6.671418
   53       -6.670435
   54       -6.670435
   55       -6.660801
   56       -6.660801
   57       -6.616712
   58       -6.616712
   59       -6.608048
   60       -6.608048
   61       -6.550965
   62       -6.550965
   63       -6.523967
   64       -6.523967
   65        1.876901
   66        1.876901
   67        2.836748
   68        2.836748
   69        2.947978
   70        2.947978
   71        3.217074
   72        3.217074
   73        3.461637
   74        3.461637
   75        3.863470
   76        3.863470
   77        3.902638
   78        3.902638
   79        3.914702
   80        3.914702
   81        3.937789
   82        3.937789
   83        4.478731
   84        4.478731
   85        4.491395
   86        4.491395
   87        4.619887
   88        4.619887
   89        4.644941
   90        4.644941
   91        4.848988
   92        4.848988
   93        5.058514
   94        5.058514
   95        5.218858
   96        5.218858
   97        5.407314
   98        5.407360
   99        5.691865
  100        5.691865
  101        5.860240
  102        5.898445
  103        5.898463
  104        6.431744
  105        6.432104
  106        7.268434
 
  0.2500000E+00  0.5000000E+00  0.0000000E+00  0.3125000E-01
    1      -14.739053
    2      -14.739053
    3      -14.663592
    4      -14.663592
    5      -14.521951
    6      -14.521951
    7      -14.514980
    8      -14.514980
    9      -14.513447
   10      -14.513447
   11      -14.448745
   12      -14.448745
   13      -14.444742
   14      -14.444742
   15      -14.440872
   16      -14.440872
   17       -7.595362
   18       -7.595362
   19       -7.504312
   20       -7.504312
   21       -7.398521
   22       -7.398521
   23       -7.392623
   24       -7.392623
   25       -7.355830
   26       -7.355830
   27       -7.198008
   28       -7.198008
   29       -7.188010
   30       -7.188010
   31       -7.048447
   32       -7.048447
   33       -7.012987
   34       -7.012987
   35       -6.952497
   36       -6.952497
   37       -6.943368
   38       -6.943368
   39       -6.864435
   40       -6.864435
   41       -6.824197
   42       -6.824197
   43       -6.786157
   44       -6.786157
   45       -6.767589
   46       -6.767589
   47       -6.726604
   48       -6.726604
   49       -6.708214
   50       -6.708214
   51       -6.691467
   52       -6.691467
   53       -6.682145
   54       -6.682145
   55       -6.676357
   56       -6.676357
   57       -6.587948
   58       -6.587948
   59       -6.570073
   60       -6.570073
   61       -6.539842
   62       -6.539842
   63       -6.526484
   64       -6.526484
   65        1.947965
   66        1.947965
   67        2.478448
   68        2.478448
   69        3.257424
   70        3.257424
   71        3.335925
   72        3.335925
   73        3.435373
   74        3.435373
   75        3.855153
   76        3.855153
   77        3.876149
   78        3.876149
   79        3.934008
   80        3.934008
   81        3.943942
   82        3.943942
   83        4.271067
   84        4.271067
   85        4.474772
   86        4.474772
   87        4.597923
   88        4.597923
   89        4.781551
   90        4.781551
   91        4.831662
   92        4.831662
   93        5.087297
   94        5.087298
   95        5.294283
   96        5.294284
   97        5.397923
   98        5.397923
   99        5.617242
  100        5.617242
  101        5.753605
  102        5.753672
  103        5.861991
  104        5.904634
  105        5.936138
  106        6.571141
 
  0.5000000E+00  0.5000000E+00  0.0000000E+00  0.1562500E-01
    1      -14.707920
    2      -14.707920
    3      -14.707919
    4      -14.707919
    5      -14.514446
    6      -14.514446
    7      -14.514446
    8      -14.514446
    9      -14.475753
   10      -14.475753
   11      -14.475751
   12      -14.475751
   13      -14.445614
   14      -14.445614
   15      -14.445611
   16      -14.445611
   17       -7.558374
   18       -7.558373
   19       -7.558373
   20       -7.558373
   21       -7.413075
   22       -7.413075
   23       -7.413074
   24       -7.413074
   25       -7.271619
   26       -7.271619
   27       -7.271618
   28       -7.271618
   29       -7.075211
   30       -7.075211
   31       -7.075210
   32       -7.075210
   33       -6.983383
   34       -6.983383
   35       -6.983382
   36       -6.983382
   37       -6.916954
   38       -6.916954
   39       -6.916953
   40       -6.916953
   41       -6.836634
   42       -6.836634
   43       -6.836634
   44       -6.836634
   45       -6.733566
   46       -6.733565
   47       -6.733565
   48       -6.733565
   49       -6.698671
   50       -6.698671
   51       -6.698670
   52       -6.698669
   53       -6.694522
   54       -6.694522
   55       -6.694522
   56       -6.694521
   57       -6.561799
   58       -6.561799
   59       -6.561798
   60       -6.561798
   61       -6.526937
   62       -6.526937
   63       -6.526936
   64       -6.526936
   65        2.154944
   66        2.154944
   67        2.154946
   68        2.154946
   69        3.349732
   70        3.349732
   71        3.349734
   72        3.349734
   73        3.714647
   74        3.714647
   75        3.714648
   76        3.714648
   77        3.879229
   78        3.879229
   79        3.879231
   80        3.879231
   81        4.055415
   82        4.055415
   83        4.055415
   84        4.055415
   85        4.508230
   86        4.508230
   87        4.508231
   88        4.508231
   89        4.818052
   90        4.818052
   91        4.818053
   92        4.818053
   93        5.284612
   94        5.284612
   95        5.284613
   96        5.284613
   97        5.446388
   98        5.446388
   99        5.446389
  100        5.446389
  101        5.712994
  102        5.712994
  103        5.713005
  104        5.713007
  105        6.038339
  106        6.038339
 
  0.0000000E+00  0.0000000E+00  0.2500000E+00  0.3125000E-01
    1      -14.827771
    2      -14.670295
    3      -14.640553
    4      -14.594097
    5      -14.576613
    6      -14.561458
    7      -14.556937
    8      -14.514832
    9      -14.496459
   10      -14.489188
   11      -14.481196
   12      -14.468979
   13      -14.443632
   14      -14.422433
   15      -14.413227
   16      -14.411395
   17       -7.570808
   18       -7.558919
   19       -7.534384
   20       -7.533868
   21       -7.497423
   22       -7.472971
   23       -7.446339
   24       -7.419455
   25       -7.308600
   26       -7.306287
   27       -7.256740
   28       -7.210673
   29       -7.208770
   30       -7.208413
   31       -7.196567
   32       -7.092691
   33       -7.027291
   34       -7.015366
   35       -6.954005
   36       -6.941982
   37       -6.906297
   38       -6.855811
   39       -6.815506
   40       -6.810207
   41       -6.809382
   42       -6.805964
   43       -6.798959
   44       -6.795410
   45       -6.733280
   46       -6.726492
   47       -6.726022
   48       -6.695657
   49       -6.689769
   50       -6.675619
   51       -6.670306
   52       -6.664097
   53       -6.649211
   54       -6.634953
   55       -6.622670
   56       -6.619743
   57       -6.607039
   58       -6.601723
   59       -6.598143
   60       -6.595268
   61       -6.590953
   62       -6.551664
   63       -6.515373
   64       -6.502467
   65        1.340392
   66        2.578336
   67        2.609108
   68        2.647575
   69        2.918138
   70        3.021073
   71        3.124716
   72        3.149887
   73        3.307728
   74        3.496134
   75        3.529836
   76        3.700195
   77        3.723320
   78        3.831856
   79        3.957631
   80        4.088768
   81        4.249398
   82        4.380843
   83        4.392883
   84        4.428692
   85        4.591586
   86        4.640247
   87        4.652883
   88        4.666043
   89        4.696128
   90        4.830353
   91        4.892122
   92        4.930635
   93        4.989626
   94        5.006962
   95        5.047702
   96        5.282383
   97        5.423131
   98        5.523194
   99        5.536636
  100        5.612450
  101        5.652091
  102        5.872167
  103        6.045885
  104        6.072737
  105        6.097341
  106        6.156883
 
  0.2500000E+00  0.0000000E+00  0.2500000E+00  0.6250000E-01
    1      -14.813869
    2      -14.716158
    3      -14.633948
    4      -14.591409
    5      -14.560956
    6      -14.557605
    7      -14.546102
    8      -14.504344
    9      -14.493123
   10      -14.491393
   11      -14.480821
   12      -14.467701
   13      -14.448734
   14      -14.438653
   15      -14.412887
   16      -14.411403
   17       -7.570283
   18       -7.545975
   19       -7.529608
   20       -7.482349
   21       -7.472017
   22       -7.456636
   23       -7.448688
   24       -7.434389
   25       -7.340715
   26       -7.317895
   27       -7.304745
   28       -7.300039
   29       -7.292032
   30       -7.260581
   31       -7.107541
   32       -7.025783
   33       -6.997702
   34       -6.969342
   35       -6.936128
   36       -6.933836
   37       -6.895784
   38       -6.848311
   39       -6.829204
   40       -6.804899
   41       -6.803473
   42       -6.793264
   43       -6.784477
   44       -6.784326
   45       -6.745465
   46       -6.732275
   47       -6.721719
   48       -6.695230
   49       -6.691424
   50       -6.687087
   51       -6.682245
   52       -6.672156
   53       -6.654127
   54       -6.643025
   55       -6.630672
   56       -6.630533
   57       -6.623922
   58       -6.617742
   59       -6.612341
   60       -6.567749
   61       -6.567247
   62       -6.558715
   63       -6.525840
   64       -6.500432
   65        1.435473
   66        2.113875
   67        2.666877
   68        2.846600
   69        3.032863
   70        3.045553
   71        3.148711
   72        3.290609
   73        3.347416
   74        3.442176
   75        3.506405
   76        3.705720
   77        3.718849
   78        3.798871
   79        4.011234
   80        4.037970
   81        4.268571
   82        4.273568
   83        4.308971
   84        4.392991
   85        4.474171
   86        4.510458
   87        4.604405
   88        4.774579
   89        4.858392
   90        4.890975
   91        4.904339
   92        4.930363
   93        4.953112
   94        4.997050
   95        5.211214
   96        5.294227
   97        5.337127
   98        5.436769
   99        5.481887
  100        5.554552
  101        5.606323
  102        5.887041
  103        5.901626
  104        5.955801
  105        6.142192
  106        6.190661
 
  0.5000000E+00  0.0000000E+00  0.2500000E+00  0.3125000E-01
    1      -14.774275
    2      -14.774274
    3      -14.615745
    4      -14.615744
    5      -14.559251
    6      -14.559250
    7      -14.496003
    8      -14.496003
    9      -14.483435
   10      -14.483434
   11      -14.483213
   12      -14.483211
   13      -14.460563
   14      -14.460562
   15      -14.412088
   16      -14.412086
   17       -7.551106
   18       -7.551106
   19       -7.485593
   20       -7.485591
   21       -7.425208
   22       -7.425207
   23       -7.408807
   24       -7.408806
   25       -7.401664
   26       -7.401663
   27       -7.346515
   28       -7.346515
   29       -7.326229
   30       -7.326228
   31       -7.026468
   32       -7.026467
   33       -6.975807
   34       -6.975807
   35       -6.912428
   36       -6.912427
   37       -6.834669
   38       -6.834668
   39       -6.802738
   40       -6.802737
   41       -6.787841
   42       -6.787841
   43       -6.782477
   44       -6.782476
   45       -6.753384
   46       -6.753383
   47       -6.735477
   48       -6.735476
   49       -6.701254
   50       -6.701254
   51       -6.679704
   52       -6.679704
   53       -6.651860
   54       -6.651860
   55       -6.641663
   56       -6.641661
   57       -6.625309
   58       -6.625309
   59       -6.590599
   60       -6.590597
   61       -6.550660
   62       -6.550659
   63       -6.517783
   64       -6.517783
   65        1.706608
   66        1.706609
   67        2.730550
   68        2.730551
   69        3.202017
   70        3.202017
   71        3.231078
   72        3.231081
   73        3.387275
   74        3.387276
   75        3.576291
   76        3.576292
   77        3.823454
   78        3.823455
   79        4.012961
   80        4.012962
   81        4.141951
   82        4.141952
   83        4.329022
   84        4.329022
   85        4.509677
   86        4.509677
   87        4.631304
   88        4.631305
   89        4.850052
   90        4.850054
   91        4.869619
   92        4.869619
   93        5.189873
   94        5.189873
   95        5.269343
   96        5.269343
   97        5.368301
   98        5.368302
   99        5.382716
  100        5.382717
  101        5.742730
  102        5.742731
  103        5.817993
  104        5.817994
  105        6.171383
  106        6.171384
 
  0.0000000E+00  0.2500000E+00  0.2500000E+00  0.6250000E-01
    1      -14.799611
    2      -14.654388
    3      -14.627034
    4      -14.620963
    5      -14.578089
    6      -14.573804
    7      -14.562820
    8      -14.511008
    9      -14.500128
   10      -14.498262
   11      -14.498249
   12      -14.448787
   13      -14.440469
   14      -14.426991
   15      -14.421474
   16      -14.413802
   17       -7.560096
   18       -7.502153
   19       -7.498502
   20       -7.497156
   21       -7.459045
   22       -7.446380
   23       -7.420368
   24       -7.325874
   25       -7.293841
   26       -7.285296
   27       -7.244680
   28       -7.224600
   29       -7.219302
   30       -7.175311
   31       -7.143605
   32       -7.138911
   33       -7.107251
   34       -6.999619
   35       -6.994201
   36       -6.951350
   37       -6.939493
   38       -6.868102
   39       -6.836157
   40       -6.800392
   41       -6.798394
   42       -6.796935
   43       -6.787687
   44       -6.786724
   45       -6.778534