   80   80  200    1
  0.1039724E+02  0.1193753E-08  0.8349915E-09  0.8344716E-09  0.5000000E-15
  1.000000000000000E-004
  CAR 
 diamond                                 
    128     27    106
 
  0.0000000E+00  0.0000000E+00  0.0000000E+00  0.1562500E-01
    1      -14.857081
    2      -14.689256
    3      -14.607425
    4      -14.578419
    5      -14.573653
    6      -14.560962
    7      -14.556605
    8      -14.517551
    9      -14.502678
   10      -14.495162
   11      -14.492452
   12      -14.458699
   13      -14.443935
   14      -14.422205
   15      -14.395424
   16      -14.393696
   17       -7.621248
   18       -7.611652
   19       -7.600826
   20       -7.554713
   21       -7.541431
   22       -7.537526
   23       -7.522454
   24       -7.466205
   25       -7.295464
   26       -7.264443
   27       -7.233365
   28       -7.216716
   29       -7.202644
   30       -7.093748
   31       -7.083198
   32       -7.082110
   33       -7.079845
   34       -7.014066
   35       -6.966901
   36       -6.944705
   37       -6.895366
   38       -6.862718
   39       -6.859130
   40       -6.830219
   41       -6.824397
   42       -6.816009
   43       -6.815575
   44       -6.797884
   45       -6.788753
   46       -6.702604
   47       -6.687869
   48       -6.677614
   49       -6.662790
   50       -6.634424
   51       -6.629919
   52       -6.625108
   53       -6.624830
   54       -6.612484
   55       -6.597883
   56       -6.593879
   57       -6.592781
   58       -6.589922
   59       -6.587987
   60       -6.583987
   61       -6.574737
   62       -6.530280
   63       -6.515548
   64       -6.471572
   65        1.136751
   66        2.446234
   67        2.482121
   68        2.819118
   69        2.936910
   70        3.029929
   71        3.240240
   72        3.258044
   73        3.336158
   74        3.362132
   75        3.411168
   76        3.574849
   77        3.632691
   78        3.646302
   79        3.679266
   80        3.844094
   81        4.155861
   82        4.341179
   83        4.458640
   84        4.538421
   85        4.619405
   86        4.669648
   87        4.725375
   88        4.803196
   89        4.859032
   90        4.904518
   91        4.906226
   92        4.930667
   93        4.943013
   94        5.037198
   95        5.409385
   96        5.411945
   97        5.433627
   98        5.493780
   99        5.531842
  100        5.635225
  101        5.661721
  102        5.870340
  103        5.873278
  104        6.014914
  105        6.062163
  106        6.108572
 
  0.2500000E+00  0.0000000E+00  0.0000000E+00  0.3125000E-01
    1      -14.842334
    2      -14.738249
    3      -14.577716
    4      -14.574338
    5      -14.560311
    6      -14.557242
    7      -14.555920
    8      -14.515468
    9      -14.504500
   10      -14.495854
   11      -14.493228
   12      -14.455788
   13      -14.445588
   14      -14.439620
   15      -14.395124
   16      -14.393801
   17       -7.598634
   18       -7.594450
   19       -7.582344
   20       -7.540589
   21       -7.534270
   22       -7.502050
   23       -7.500067
   24       -7.463000
   25       -7.363109
   26       -7.320526
   27       -7.301157
   28       -7.285655
   29       -7.281201
   30       -7.243461
   31       -7.030401
   32       -7.026687
   33       -6.994315
   34       -6.942637
   35       -6.940528
   36       -6.854689
   37       -6.847680
   38       -6.837331
   39       -6.835531
   40       -6.829173
   41       -6.815925
   42       -6.811484
   43       -6.800272
   44       -6.794399
   45       -6.787226
   46       -6.737973
   47       -6.693307
   48       -6.666582
   49       -6.652525
   50       -6.647393
   51       -6.640964
   52       -6.634575
   53       -6.629977
   54       -6.624736
   55       -6.609256
   56       -6.605359
   57       -6.605128
   58       -6.594536
   59       -6.590905
   60       -6.577102
   61       -6.575943
   62       -6.531032
   63       -6.526188
   64       -6.518147
   65        1.239356
   66        1.962896
   67        2.894705
   68        2.926088
   69        2.978166
   70        3.080085
   71        3.204507
   72        3.256314
   73        3.268543
   74        3.340408
   75        3.350370
   76        3.531544
   77        3.644100
   78        3.659889
   79        3.770234
   80        3.904058
   81        4.192164
   82        4.257113
   83        4.297351
   84        4.435090
   85        4.594365
   86        4.639718
   87        4.710642
   88        4.819597
   89        4.833293
   90        4.852331
   91        4.893772
   92        4.939423
   93        5.013444
   94        5.111560
   95        5.268306
   96        5.362219
   97        5.428835
   98        5.513523
   99        5.547310
  100        5.617205
  101        5.635473
  102        5.742177
  103        5.932736
  104        5.994357
  105        6.093438
  106        6.371500
 
  0.5000000E+00  0.0000000E+00  0.0000000E+00  0.1562500E-01
    1      -14.800232
    2      -14.800231
    3      -14.576029
    4      -14.576029
    5      -14.558782
    6      -14.558781
    7      -14.510109
    8      -14.510107
    9      -14.494968
   10      -14.494966
   11      -14.487919
   12      -14.487917
   13      -14.450151
   14      -14.450151
   15      -14.394401
   16      -14.394398
   17       -7.575853
   18       -7.575852
   19       -7.531911
   20       -7.531910
   21       -7.507742
   22       -7.507740
   23       -7.403786
   24       -7.403786
   25       -7.402515
   26       -7.402514
   27       -7.399952
   28       -7.399950
   29       -7.338343
   30       -7.338341
   31       -6.965940
   32       -6.965939
   33       -6.961004
   34       -6.961002
   35       -6.886003
   36       -6.886002
   37       -6.834024
   38       -6.834022
   39       -6.823767
   40       -6.823767
   41       -6.787135
   42       -6.787134
   43       -6.716187
   44       -6.716187
   45       -6.714505
   46       -6.714504
   47       -6.705536
   48       -6.705535
   49       -6.677814
   50       -6.677813
   51       -6.657145
   52       -6.657144
   53       -6.651991
   54       -6.651990
   55       -6.623965
   56       -6.623965
   57       -6.599427
   58       -6.599424
   59       -6.595412
   60       -6.595410
   61       -6.553798
   62       -6.553797
   63       -6.547108
   64       -6.547107
   65        1.530353
   66        1.530355
   67        3.080663
   68        3.080665
   69        3.085162
   70        3.085163
   71        3.209399
   72        3.209399
   73        3.224417
   74        3.224418
   75        3.361651
   76        3.361651
   77        3.692258
   78        3.692259
   79        4.012644
   80        4.012645
   81        4.069821
   82        4.069822
   83        4.293699
   84        4.293700
   85        4.602738
   86        4.602739
   87        4.773113
   88        4.773114
   89        4.776747
   90        4.776750
   91        4.798972
   92        4.798972
   93        5.242860
   94        5.242860
   95        5.313598
   96        5.313599
   97        5.422491
   98        5.422491
   99        5.625401
  100        5.625402
  101        5.681043
  102        5.681044
  103        5.799767
  104        5.799769
  105        6.224223
  106        6.224226
 
  0.0000000E+00  0.2500000E+00  0.0000000E+00  0.3125000E-01
    1      -14.827896
    2      -14.672961
    3      -14.647705
    4      -14.591331
    5      -14.591090
    6      -14.547219
    7      -14.544073
    8      -14.509822
    9      -14.509605
   10      -14.483427
   11      -14.480721
   12      -14.453739
   13      -14.451044
   14      -14.422155
   15      -14.410072
   16      -14.408922
   17       -7.635189
   18       -7.558793
   19       -7.550400
   20       -7.538702
   21       -7.502016
   22       -7.495691
   23       -7.479841
   24       -7.349536
   25       -7.344372
   26       -7.265297
   27       -7.226871
   28       -7.214538
   29       -7.161447
   30       -7.157810
   31       -7.126679
   32       -7.103086
   33       -7.088973
   34       -7.015406
   35       -6.952514
   36       -6.937782
   37       -6.921352
   38       -6.872981
   39       -6.825190
   40       -6.808189
   41       -6.805735
   42       -6.799157
   43       -6.781029
   44       -6.779609
   45       -6.775584
   46       -6.770375
   47       -6.723080
   48       -6.696035
   49       -6.671181
   50       -6.669171
   51       -6.667882
   52       -6.660766
   53       -6.648375
   54       -6.628786
   55       -6.623093
   56       -6.620899
   57       -6.605612
   58       -6.604701
   59       -6.595984
   60       -6.586072
   61       -6.570048
   62       -6.551275
   63       -6.521016
   64       -6.495066
   65        1.337412
   66        2.583528
   67        2.614414
   68        2.618145
   69        2.939804
   70        2.940624
   71        3.147737
   72        3.256321
   73        3.382853
   74        3.430256
   75        3.553687
   76        3.611804
   77        3.676668
   78        3.767114
   79        3.893273
   80        4.154034
   81        4.227490
   82        4.239699
   83        4.323287
   84        4.360590
   85        4.377526
   86        4.685041
   87        4.738843
   88        4.759914
   89        4.804345
   90        4.858826
   91        4.875008
   92        4.924653
   93        4.926173
   94        4.974848
   95        5.246609
   96        5.355633
   97        5.393234
   98        5.447892
   99        5.541305
  100        5.619149
  101        5.745492
  102        5.813924
  103        5.835449
  104        5.961135
  105        6.125519
  106        6.243977
 
  0.2500000E+00  0.2500000E+00  0.0000000E+00  0.6250000E-01
    1      -14.814080
    2      -14.717206
    3      -14.641530
    4      -14.603202
    5      -14.546769
    6      -14.545329
    7      -14.544075
    8      -14.507678
    9      -14.498635
   10      -14.492349
   11      -14.474076
   12      -14.457081
   13      -14.452873
   14      -14.438229
   15      -14.409847
   16      -14.408905
   17       -7.611870
   18       -7.568215
   19       -7.556458
   20       -7.536914
   21       -7.469914
   22       -7.457123
   23       -7.450214
   24       -7.399452
   25       -7.375770
   26       -7.316989
   27       -7.278084
   28       -7.240125
   29       -7.225333
   30       -7.180364
   31       -7.129515
   32       -7.051968
   33       -6.981185
   34       -6.963573
   35       -6.961356
   36       -6.904026
   37       -6.902247
   38       -6.851488
   39       -6.837519
   40       -6.820808
   41       -6.797112
   42       -6.796039
   43       -6.792988
   44       -6.764629
   45       -6.762948
   46       -6.748048
   47       -6.746050
   48       -6.733425
   49       -6.682106
   50       -6.680724
   51       -6.670725
   52       -6.668334
   53       -6.648445
   54       -6.645736
   55       -6.637747
   56       -6.629760
   57       -6.621221
   58       -6.594424
   59       -6.576921
   60       -6.576764
   61       -6.565598
   62       -6.545937
   63       -6.531780
   64       -6.495681
   65        1.432522
   66        2.114178
   67        2.637355
   68        2.836857
   69        3.009282
   70        3.068713
   71        3.186383
   72        3.335763
   73        3.355200
   74        3.470340
   75        3.527606
   76        3.569707
   77        3.671940
   78        3.830068
   79        3.949318
   80        4.051838
   81        4.207839
   82        4.212235
   83        4.230612
   84        4.272317
   85        4.400845
   86        4.633497
   87        4.687172
   88        4.703739
   89        4.805945
   90        4.846745
   91        4.847801
   92        4.865606
   93        5.103739
   94        5.137957
   95        5.206960
   96        5.329727
   97        5.396716
   98        5.518175
   99        5.522474
  100        5.548902
  101        5.653458
  102        5.691253
  103        5.766668
  104        6.004099
  105        6.061064
  106        6.307010
 
  0.5000000E+00  0.2500000E+00  0.0000000E+00  0.3125000E-01
    1      -14.774716
    2      -14.774715
    3      -14.624730
    4      -14.624729
    5      -14.545656
    6      -14.545656
    7      -14.501427
    8      -14.501426
    9      -14.482533
   10      -14.482531
   11      -14.480340
   12      -14.480339
   13      -14.457232
   14      -14.457231
   15      -14.409339
   16      -14.409337
   17       -7.567243
   18       -7.567242
   19       -7.554034
   20       -7.554033
   21       -7.456089
   22       -7.456088
   23       -7.395710
   24       -7.395708
   25       -7.359400
   26       -7.359400
   27       -7.339846
   28       -7.339845
   29       -7.239167
   30       -7.239165
   31       -7.063134
   32       -7.063134
   33       -6.911341
   34       -6.911341
   35       -6.905519
   36       -6.905519
   37       -6.860732
   38       -6.860731
   39       -6.816621
   40       -6.816620
   41       -6.815042
   42       -6.815041
   43       -6.782692
   44       -6.782692
   45       -6.756844
   46       -6.756843
   47       -6.733447
   48       -6.733447
   49       -6.717533
   50       -6.717532
   51       -6.682703
   52       -6.682702
   53       -6.657805
   54       -6.657805
   55       -6.644606
   56       -6.644604
   57       -6.586395
   58       -6.586394
   59       -6.576668
   60       -6.576666
   61       -6.551758
   62       -6.551757
   63       -6.517685
   64       -6.517685
   65        1.704285
   66        1.704286
   67        2.710572
   68        2.710573
   69        3.190306
   70        3.190309
   71        3.273558
   72        3.273558
   73        3.395256
   74        3.395257
   75        3.559656
   76        3.559658
   77        3.806937
   78        3.806937
   79        4.009152
   80        4.009153
   81        4.092127
   82        4.092128
   83        4.206152
   84        4.206154
   85        4.536958
   86        4.536960
   87        4.639505
   88        4.639506
   89        4.760537
   90        4.760538
   91        4.868015
   92        4.868016
   93        5.186174
   94        5.186174
   95        5.376926
   96        5.376926
   97        5.433022
   98        5.433022
   99        5.540058
  100        5.540059
  101        5.586033
  102        5.586035
  103        5.768441
  104        5.768442
  105        6.166642
  106        6.166643
 
  0.0000000E+00  0.5000000E+00  0.0000000E+00  0.1562500E-01
    1      -14.749448
    2      -14.749448
    3      -14.632779
    4      -14.632779
    5      -14.551002
    6      -14.551002
    7      -14.516839
    8      -14.516839
    9      -14.513823
   10      -14.513823
   11      -14.445255
   12      -14.445255
   13      -14.441287
   14      -14.441287
   15      -14.428876
   16      -14.428876
   17       -7.606648
   18       -7.606648
   19       -7.445010
   20       -7.445010
   21       -7.424638
   22       -7.424638
   23       -7.378768
   24       -7.378768
   25       -7.346988
   26       -7.346988
   27       -7.276921
   28       -7.276921
   29       -7.144114
   30       -7.144114
   31       -7.089445
   32       -7.089445
   33       -7.034156
   34       -7.034156
   35       -6.941825
   36       -6.941825
   37       -6.906598
   38       -6.906598
   39       -6.856943
   40       -6.856943
   41       -6.802209
   42       -6.802209
   43       -6.797589
   44       -6.797589
   45       -6.748943
   46       -6.748943
   47       -6.725920
   48       -6.725920
   49       -6.699508
   50       -6.699508
   51       -6.669722
   52       -6.669722
   53       -6.669023
   54       -6.669023
   55       -6.658040
   56       -6.658040
   57       -6.614741
   58       -6.614741
   59       -6.610161
   60       -6.610161
   61       -6.551779
   62       -6.551779
   63       -6.523548
   64       -6.523548
   65        1.876446
   66        1.876446
   67        2.838783
   68        2.838783
   69        2.945053
   70        2.945053
   71        3.215810
   72        3.215810
   73        3.457749
   74        3.457749
   75        3.858244
   76        3.858244
   77        3.901963
   78        3.901963
   79        3.917064
   80        3.917064
   81        3.940845
   82        3.940845
   83        4.477408
   84        4.477408
   85        4.491822
   86        4.491822
   87        4.615312
   88        4.615312
   89        4.644787
   90        4.644787
   91        4.853915
   92        4.853915
   93        5.059392
   94        5.059392
   95        5.219160
   96        5.219160
   97        5.405808
   98        5.405808
   99        5.689453
  100        5.689453
  101        5.852874
  102        5.852874
  103        5.907401
  104        5.907401
  105        5.968746
  106        5.968746
 
  0.2500000E+00  0.5000000E+00  0.0000000E+00  0.3125000E-01
    1      -14.738445
    2      -14.738445
    3      -14.663453
    4      -14.663453
    5      -14.520216
    6      -14.520216
    7      -14.515810
    8      -14.515810
    9      -14.514300
   10      -14.514300
   11      -14.445965
   12      -14.445965
   13      -14.441735
   14      -14.441735
   15      -14.439356
   16      -14.439356
   17       -7.593301
   18       -7.593301
   19       -7.502190
   20       -7.502190
   21       -7.396366
   22       -7.396366
   23       -7.391300
   24       -7.391300
   25       -7.353760
   26       -7.353760
   27       -7.197614
   28       -7.197614
   29       -7.185505
   30       -7.185505
   31       -7.048533
   32       -7.048533
   33       -7.011553
   34       -7.011553
   35       -6.952323
   36       -6.952323
   37       -6.942556
   38       -6.942556
   39       -6.861120
   40       -6.861120
   41       -6.826379
   42       -6.826379
   43       -6.785769
   44       -6.785769
   45       -6.771066
   46       -6.771066
   47       -6.727394
   48       -6.727394
   49       -6.705903
   50       -6.705903
   51       -6.693034
   52       -6.693034
   53       -6.679129
   54       -6.679129
   55       -6.673968
   56       -6.673968
   57       -6.586818
   58       -6.586818
   59       -6.571199
   60       -6.571199
   61       -6.540407
   62       -6.540407
   63       -6.525934
   64       -6.525934
   65        1.947499
   66        1.947499
   67        2.478147
   68        2.478147
   69        3.255775
   70        3.255775
   71        3.334935
   72        3.334935
   73        3.432743
   74        3.432743
   75        3.857227
   76        3.857227
   77        3.876719
   78        3.876719
   79        3.930250
   80        3.930250
   81        3.944653
   82        3.944653
   83        4.267361
   84        4.267361
   85        4.473221
   86        4.473221
   87        4.597172
   88        4.597172
   89        4.783339
   90        4.783339
   91        4.837512
   92        4.837512
   93        5.086582
   94        5.086582
   95        5.294438
   96        5.294438
   97        5.395229
   98        5.395229
   99        5.616011
  100        5.616011
  101        5.754270
  102        5.754270
  103        5.858610
  104        5.858610
  105        5.943880
  106        5.943880
 
  0.5000000E+00  0.5000000E+00  0.0000000E+00  0.1562500E-01
    1      -14.707430
    2      -14.707430
    3      -14.707429
    4      -14.707429
    5      -14.515426
    6      -14.515426
    7      -14.515425
    8      -14.515425
    9      -14.474048
   10      -14.474048
   11      -14.474047
   12      -14.474047
   13      -14.442778
   14      -14.442778
   15      -14.442776
   16      -14.442776
   17       -7.556284
   18       -7.556284
   19       -7.556283
   20       -7.556283
   21       -7.411491
   22       -7.411491
   23       -7.411491
   24       -7.411491
   25       -7.269269
   26       -7.269269
   27       -7.269268
   28       -7.269268
   29       -7.075397
   30       -7.075397
   31       -7.075397
   32       -7.075397
   33       -6.982045
   34       -6.982045
   35       -6.982044
   36       -6.982044
   37       -6.914864
   38       -6.914864
   39       -6.914863
   40       -6.914863
   41       -6.838247
   42       -6.838247
   43       -6.838247
   44       -6.838247
   45       -6.736418
   46       -6.736417
   47       -6.736417
   48       -6.736417
   49       -6.695354
   50       -6.695354
   51       -6.695352
   52       -6.695352
   53       -6.693456
   54       -6.693456
   55       -6.693455
   56       -6.693455
   57       -6.561851
   58       -6.561851
   59       -6.561850
   60       -6.561850
   61       -6.526891
   62       -6.526891
   63       -6.526890
   64       -6.526890
   65        2.154481
   66        2.154481
   67        2.154483
   68        2.154483
   69        3.346894
   70        3.346894
   71        3.346896
   72        3.346896
   73        3.717139
   74        3.717139
   75        3.717140
   76        3.717140
   77        3.880194
   78        3.880194
   79        3.880196
   80        3.880196
   81        4.049666
   82        4.049666
   83        4.049666
   84        4.049666
   85        4.507155
   86        4.507155
   87        4.507156
   88        4.507156
   89        4.823354
   90        4.823354
   91        4.823354
   92        4.823354
   93        5.282421
   94        5.282421
   95        5.282422
   96        5.282422
   97        5.446160
   98        5.446160
   99        5.446161
  100        5.446161
  101        5.710581
  102        5.710581
  103        5.710581
  104        5.710581
  105        6.042990
  106        6.042990
 
  0.0000000E+00  0.0000000E+00  0.2500000E+00  0.3125000E-01
    1      -14.826981
    2      -14.670702
    3      -14.640141
    4      -14.591456
    5      -14.577057
    6      -14.562331
    7      -14.557830
    8      -14.512113
    9      -14.495542
   10      -14.490536
   11      -14.478376
   12      -14.468251
   13      -14.441548
   14      -14.421081
   15      -14.410448
   16      -14.408503
   17       -7.570211
   18       -7.555085
   19       -7.533542
   20       -7.532530
   21       -7.494868
   22       -7.470201
   23       -7.446043
   24       -7.418402
   25       -7.306488
   26       -7.306197
   27       -7.257341
   28       -7.208205
   29       -7.206954
   30       -7.204563
   31       -7.194828
   32       -7.088348
   33       -7.026957
   34       -7.014516
   35       -6.952987
   36       -6.938713
   37       -6.903780
   38       -6.853615
   39       -6.815117
   40       -6.811691
   41       -6.810249
   42       -6.802309
   43       -6.798673
   44       -6.798285
   45       -6.731842
   46       -6.727753
   47       -6.725819
   48       -6.694677
   49       -6.692300
   50       -6.676283
   51       -6.669683
   52       -6.662447
   53       -6.647241
   54       -6.635013
   55       -6.621510
   56       -6.617678
   57       -6.606893
   58       -6.600624
   59       -6.599580
   60       -6.597128
   61       -6.593572
   62       -6.553736
   63       -6.517279
   64       -6.501795
   65        1.339661
   66        2.579577
   67        2.606860
   68        2.646313
   69        2.918046
   70        3.021429
   71        3.125886
   72        3.150279
   73        3.307111
   74        3.491775
   75        3.532781
   76        3.699782
   77        3.729209
   78        3.827100
   79        3.956773
   80        4.088995
   81        4.245231
   82        4.376961
   83        4.393871
   84        4.435154
   85        4.585622
   86        4.641826
   87        4.650271
   88        4.660729
   89        4.696770
   90        4.828912
   91        4.890913
   92        4.935833
   93        4.987472
   94        5.004170
   95        5.053620
   96        5.281093
   97        5.426296
   98        5.531426
   99        5.533850
  100        5.618110
  101        5.667785
  102        5.858087
  103        5.993114
  104        6.034059
  105        6.070964
  106        6.097233
 
  0.2500000E+00  0.0000000E+00  0.2500000E+00  0.6250000E-01
    1      -14.813099
    2      -14.715747
    3      -14.633553
    4      -14.591395
    5      -14.561835
    6      -14.558497
    7      -14.544276
    8      -14.503222
    9      -14.492308
   10      -14.491115
   11      -14.478292
   12      -14.466919
   13      -14.446782
   14      -14.437202
   15      -14.410107
   16      -14.408592
   17       -7.567537
   18       -7.545385
   19       -7.528811
   20       -7.479882
   21       -7.469515
   22       -7.453728
   23       -7.448364
   24       -7.433869
   25       -7.337775
   26       -7.317735
   27       -7.303150
   28       -7.299783
   29       -7.287813
   30       -7.259479
   31       -7.105053
   32       -7.022900
   33       -6.996696
   34       -6.969078
   35       -6.934900
   36       -6.930725
   37       -6.893357
   38       -6.846958
   39       -6.826561
   40       -6.806670
   41       -6.802936
   42       -6.792529
   43       -6.787528
   44       -6.783071
   45       -6.743763
   46       -6.733683
   47       -6.721420
   48       -6.694302
   49       -6.693044
   50       -6.686262
   51       -6.680659
   52       -6.669434
   53       -6.657067
   54       -6.642955
   55       -6.629149
   56       -6.628822
   57       -6.624988
   58       -6.620283
   59       -6.611585
   60       -6.568980
   61       -6.568409
   62       -6.559386
   63       -6.527838
   64       -6.500165
   65        1.434732
   66        2.113185
   67        2.665765
   68        2.846183
   69        3.033118
   70        3.045866
   71        3.149688
   72        3.290129
   73        3.347646
   74        3.439283
   75        3.508966
   76        3.702125
   77        3.717524
   78        3.804347
   79        4.010428
   80        4.037308
   81        4.269415
   82        4.270837
   83        4.306417
   84        4.392935
   85        4.474895
   86        4.509346
   87        4.599891
   88        4.774050
   89        4.857163
   90        4.894321
   91        4.909570
   92        4.928711
   93        4.951504
   94        4.996838
   95        5.208577
   96        5.294161
   97        5.339050
   98        5.446544
   99        5.477563
  100        5.559573
  101        5.614874
  102        5.847556
  103        5.901335
  104        5.957112
  105        6.072641
  106        6.132645
 
  0.5000000E+00  0.0000000E+00  0.2500000E+00  0.3125000E-01
    1      -14.773588
    2      -14.773587
    3      -14.615434
    4      -14.615433
    5      -14.560141
    6      -14.560141
    7      -14.496372
    8      -14.496372
    9      -14.481657
   10      -14.481655
   11      -14.480797
   12      -14.480795
   13      -14.459199
   14      -14.459198
   15      -14.409302
   16      -14.409299
   17       -7.549138
   18       -7.549137
   19       -7.485092
   20       -7.485090
   21       -7.424955
   22       -7.424954
   23       -7.405687
   24       -7.405686
   25       -7.399344
   26       -7.399343
   27       -7.343034
   28       -7.343033
   29       -7.325834
   30       -7.325833
   31       -7.025638
   32       -7.025638
   33       -6.973627
   34       -6.973626
   35       -6.910613
   36       -6.910613
   37       -6.831922
   38       -6.831921
   39       -6.801762
   40       -6.801762
   41       -6.789645
   42       -6.789645
   43       -6.779934
   44       -6.779933
   45       -6.755048
   46       -6.755048
   47       -6.734504
   48       -6.734503
   49       -6.701457
   50       -6.701457
   51       -6.678643
   52       -6.678643
   53       -6.654206
   54       -6.654206
   55       -6.640950
   56       -6.640948
   57       -6.624751
   58       -6.624751
   59       -6.590856
   60       -6.590854
   61       -6.552676
   62       -6.552675
   63       -6.517931
   64       -6.517930
   65        1.705858
   66        1.705860
   67        2.729798
   68        2.729799
   69        3.202637
   70        3.202637
   71        3.230344
   72        3.230347
   73        3.388543
   74        3.388544
   75        3.574916
   76        3.574916
   77        3.821540
   78        3.821541
   79        4.017424
   80        4.017425
   81        4.140459
   82        4.140461
   83        4.325804
   84        4.325804
   85        4.507255
   86        4.507255
   87        4.632569
   88        4.632570
   89        4.848654
   90        4.848655
   91        4.874030
   92        4.874030
   93        5.187888
   94        5.187888
   95        5.270351
   96        5.270351
   97        5.373304
   98        5.373305
   99        5.379306
  100        5.379307
  101        5.747733
  102        5.747735
  103        5.820863
  104        5.820863
  105        6.171943
  106        6.171943
 
  0.0000000E+00  0.2500000E+00  0.2500000E+00  0.6250000E-01
    1      -14.798864
    2      -14.654851
    3      -14.626803
    4      -14.620617
    5      -14.575423
    6      -14.574645
    7      -14.563471
    8      -14.511448
    9      -14.499575
   10      -14.497385
   11      -14.495469
   12      -14.447064
   13      -14.438302
   14      -14.424126
   15      -14.420113
   16      -14.411538
   17       -7.557170
   18       -7.501552
   19       -7.496558
   20       -7.495885
   21       -7.456388
   22       -7.444162
   23       -7.420191
   24       -7.324205
   25       -7.291962
   26       -7.283683
   27       -7.242406
   28       -7.220899
   29       -7.220178
   30       -7.172867
   31       -7.143057
   32       -7.136261
   33       -7.106277
   34       -6.998626
   35       -6.994153
   36       -6.949457
   37       -6.937241
   38       -6.867574
   39       -6.836763
   40       -6.799571
   41       -6.798223
   42       -6.796583
   43       -6.787351
   44       -6.784565
   45       -6.777095