   80   80  200    1
  0.1078958E+02  0.1208583E-08  0.8453651E-09  0.8448387E-09  0.5000000E-15
  1.000000000000000E-004
  CAR 
 diamond                                 
    128     27    106
 
  0.0000000E+00  0.0000000E+00  0.0000000E+00  0.1562500E-01
    1      -14.914412
    2      -14.764918
    3      -14.687945
    4      -14.665920
    5      -14.662026
    6      -14.650596
    7      -14.646980
    8      -14.608843
    9      -14.595661
   10      -14.588185
   11      -14.585937
   12      -14.558205
   13      -14.545040
   14      -14.524427
   15      -14.498933
   16      -14.497583
   17       -7.660411
   18       -7.648701
   19       -7.639467
   20       -7.597471
   21       -7.585137
   22       -7.583214
   23       -7.566043
   24       -7.515503
   25       -7.360595
   26       -7.329865
   27       -7.301395
   28       -7.285206
   29       -7.271738
   30       -7.173064
   31       -7.162776
   32       -7.162375
   33       -7.162199
   34       -7.101542
   35       -7.057626
   36       -7.036801
   37       -6.989063
   38       -6.960718
   39       -6.958065
   40       -6.929555
   41       -6.924631
   42       -6.916940
   43       -6.916868
   44       -6.901184
   45       -6.893823
   46       -6.812456
   47       -6.798943
   48       -6.788504
   49       -6.776529
   50       -6.750346
   51       -6.746827
   52       -6.744125
   53       -6.740624
   54       -6.731305
   55       -6.715273
   56       -6.713930
   57       -6.710201
   58       -6.708619
   59       -6.708342
   60       -6.702943
   61       -6.696345
   62       -6.653939
   63       -6.639610
   64       -6.602134
   65        0.989141
   66        2.267344
   67        2.301094
   68        2.731474
   69        2.812594
   70        2.900137
   71        3.082794
   72        3.106384
   73        3.210785
   74        3.220165
   75        3.250554
   76        3.373889
   77        3.426128
   78        3.514471
   79        3.553541
   80        3.738279
   81        4.057463
   82        4.207951
   83        4.319616
   84        4.393105
   85        4.419961
   86        4.545033
   87        4.578915
   88        4.650091
   89        4.666034
   90        4.700061
   91        4.743881
   92        4.760299
   93        4.783657
   94        4.810750
   95        5.207190
   96        5.217838
   97        5.246989
   98        5.314242
   99        5.333970
  100        5.426212
  101        5.529705
  102        5.696550
  103        5.728622
  104        5.794475
  105        5.880100
  106        5.930526
 
  0.2500000E+00  0.0000000E+00  0.0000000E+00  0.3125000E-01
    1      -14.901134
    2      -14.807905
    3      -14.665366
    4      -14.662591
    5      -14.650068
    6      -14.647481
    7      -14.642935
    8      -14.607001
    9      -14.597362
   10      -14.588754
   11      -14.586593
   12      -14.555570
   13      -14.546514
   14      -14.539916
   15      -14.498701
   16      -14.497656
   17       -7.637198
   18       -7.635606
   19       -7.621657
   20       -7.582857
   21       -7.578710
   22       -7.550764
   23       -7.547061
   24       -7.512108
   25       -7.422483
   26       -7.381613
   27       -7.363442
   28       -7.349232
   29       -7.345465
   30       -7.313085
   31       -7.113864
   32       -7.111842
   33       -7.081077
   34       -7.033469
   35       -7.033294
   36       -6.953457
   37       -6.948804
   38       -6.936309
   39       -6.934743
   40       -6.929720
   41       -6.916349
   42       -6.913745
   43       -6.903083
   44       -6.898322
   45       -6.891030
   46       -6.844573
   47       -6.804154
   48       -6.779943
   49       -6.768161
   50       -6.762488
   51       -6.757271
   52       -6.750597
   53       -6.746803
   54       -6.742137
   55       -6.727507
   56       -6.722904
   57       -6.722233
   58       -6.712918
   59       -6.709502
   60       -6.697094
   61       -6.695678
   62       -6.654730
   63       -6.649454
   64       -6.645053
   65        1.088028
   66        1.790272
   67        2.753037
   68        2.803037
   69        2.848722
   70        2.944230
   71        3.039894
   72        3.127426
   73        3.128075
   74        3.171987
   75        3.219206
   76        3.387116
   77        3.460440
   78        3.462695
   79        3.639852
   80        3.793473
   81        4.088072
   82        4.118917
   83        4.162468
   84        4.293863
   85        4.441676
   86        4.448467
   87        4.556373
   88        4.628092
   89        4.670907
   90        4.695168
   91        4.702827
   92        4.731115
   93        4.872342
   94        4.965269
   95        5.065780
   96        5.166784
   97        5.226139
   98        5.327467
   99        5.341255
  100        5.428301
  101        5.476379
  102        5.599566
  103        5.735414
  104        5.766080
  105        5.946642
  106        6.203772
 
  0.5000000E+00  0.0000000E+00  0.0000000E+00  0.1562500E-01
    1      -14.863268
    2      -14.863267
    3      -14.663964
    4      -14.663964
    5      -14.648786
    6      -14.648785
    7      -14.602320
    8      -14.602319
    9      -14.588029
   10      -14.588028
   11      -14.582697
   12      -14.582695
   13      -14.550518
   14      -14.550517
   15      -14.498123
   16      -14.498121
   17       -7.615773
   18       -7.615772
   19       -7.577451
   20       -7.577451
   21       -7.552691
   22       -7.552689
   23       -7.458352
   24       -7.458352
   25       -7.457640
   26       -7.457640
   27       -7.456929
   28       -7.456927
   29       -7.398341
   30       -7.398339
   31       -7.056445
   32       -7.056444
   33       -7.050361
   34       -7.050360
   35       -6.980892
   36       -6.980891
   37       -6.934938
   38       -6.934936
   39       -6.923809
   40       -6.923808
   41       -6.889963
   42       -6.889962
   43       -6.827193
   44       -6.827193
   45       -6.824639
   46       -6.824639
   47       -6.815120
   48       -6.815119
   49       -6.790069
   50       -6.790068
   51       -6.772047
   52       -6.772046
   53       -6.767709
   54       -6.767709
   55       -6.741684
   56       -6.741684
   57       -6.716982
   58       -6.716980
   59       -6.713268
   60       -6.713266
   61       -6.675060
   62       -6.675059
   63       -6.669459
   64       -6.669458
   65        1.369372
   66        1.369373
   67        2.940800
   68        2.940800
   69        2.974036
   70        2.974038
   71        3.055601
   72        3.055601
   73        3.077334
   74        3.077335
   75        3.213860
   76        3.213860
   77        3.503655
   78        3.503656
   79        3.873026
   80        3.873027
   81        3.947001
   82        3.947002
   83        4.173634
   84        4.173636
   85        4.424752
   86        4.424753
   87        4.593547
   88        4.593547
   89        4.599430
   90        4.599432
   91        4.649371
   92        4.649372
   93        5.028213
   94        5.028214
   95        5.152570
   96        5.152571
   97        5.274124
   98        5.274125
   99        5.439533
  100        5.439533
  101        5.499973
  102        5.499974
  103        5.565912
  104        5.565914
  105        6.069327
  106        6.069330
 
  0.0000000E+00  0.2500000E+00  0.0000000E+00  0.3125000E-01
    1      -14.888155
    2      -14.750347
    3      -14.726826
    4      -14.677710
    5      -14.673425
    6      -14.638291
    7      -14.635667
    8      -14.602489
    9      -14.601308
   10      -14.581093
   11      -14.575237
   12      -14.552238
   13      -14.550668
   14      -14.524412
   15      -14.511977
   16      -14.511186
   17       -7.672149
   18       -7.600520
   19       -7.592056
   20       -7.581734
   21       -7.548978
   22       -7.544500
   23       -7.528581
   24       -7.408680
   25       -7.404643
   26       -7.330031
   27       -7.294286
   28       -7.284430
   29       -7.236838
   30       -7.231224
   31       -7.203977
   32       -7.180903
   33       -7.170024
   34       -7.102201
   35       -7.044322
   36       -7.029842
   37       -7.013069
   38       -6.968411
   39       -6.925176
   40       -6.911742
   41       -6.908196
   42       -6.900987
   43       -6.885618
   44       -6.883912
   45       -6.880033
   46       -6.874672
   47       -6.830803
   48       -6.806219
   49       -6.785450
   50       -6.781556
   51       -6.779735
   52       -6.775251
   53       -6.761293
   54       -6.746185
   55       -6.742290
   56       -6.738702
   57       -6.723397
   58       -6.723139
   59       -6.713870
   60       -6.706470
   61       -6.690722
   62       -6.673082
   63       -6.645674
   64       -6.623569
   65        1.183105
   66        2.401798
   67        2.432059
   68        2.435205
   69        2.800503
   70        2.840310
   71        3.021979
   72        3.102695
   73        3.208836
   74        3.290835
   75        3.422741
   76        3.430935
   77        3.544756
   78        3.618718
   79        3.776550
   80        3.975004
   81        4.074931
   82        4.134983
   83        4.183873
   84        4.222204
   85        4.239294
   86        4.556849
   87        4.588592
   88        4.591093
   89        4.617751
   90        4.666340
   91        4.690215
   92        4.730631
   93        4.763799
   94        4.804891
   95        5.084835
   96        5.167188
   97        5.190570
   98        5.250344
   99        5.339687
  100        5.437131
  101        5.597429
  102        5.640826
  103        5.662177
  104        5.797521
  105        5.948447
  106        6.050146
 
  0.2500000E+00  0.2500000E+00  0.0000000E+00  0.6250000E-01
    1      -14.875713
    2      -14.789086
    3      -14.721380
    4      -14.687891
    5      -14.637900
    6      -14.636174
    7      -14.632969
    8      -14.600820
    9      -14.591709
   10      -14.587641
   11      -14.570571
   12      -14.555340
   13      -14.552263
   14      -14.538681
   15      -14.511804
   16      -14.511117
   17       -7.650583
   18       -7.609124
   19       -7.597738
   20       -7.580176
   21       -7.520881
   22       -7.507609
   23       -7.501283
   24       -7.454741
   25       -7.431670
   26       -7.379154
   27       -7.344401
   28       -7.307620
   29       -7.294715
   30       -7.252788
   31       -7.205600
   32       -7.133826
   33       -7.069825
   34       -7.053039
   35       -7.052089
   36       -6.997479
   37       -6.997214
   38       -6.949756
   39       -6.936932
   40       -6.921755
   41       -6.900122
   42       -6.898780
   43       -6.895789
   44       -6.870472
   45       -6.868191
   46       -6.854281
   47       -6.852979
   48       -6.840327
   49       -6.793621
   50       -6.793469
   51       -6.784198
   52       -6.782773
   53       -6.763999
   54       -6.759340
   55       -6.753609
   56       -6.746216
   57       -6.739749
   58       -6.712555
   59       -6.697092
   60       -6.696714
   61       -6.687810
   62       -6.668493
   63       -6.655513
   64       -6.623479
   65        1.275204
   66        1.938879
   67        2.459562
   68        2.684477
   69        2.891058
   70        2.906859
   71        3.054367
   72        3.188654
   73        3.202379
   74        3.324611
   75        3.396128
   76        3.415155
   77        3.500085
   78        3.683591
   79        3.823942
   80        3.890178
   81        4.067622
   82        4.076625
   83        4.116218
   84        4.125651
   85        4.237738
   86        4.487636
   87        4.497349
   88        4.578819
   89        4.644822
   90        4.645312
   91        4.668631
   92        4.683697
   93        4.945859
   94        4.983138
   95        5.019436
   96        5.139261
   97        5.206252
   98        5.321618
   99        5.331695
  100        5.356920
  101        5.507846
  102        5.530590
  103        5.570956
  104        5.854001
  105        5.858201
  106        6.126984
 
  0.5000000E+00  0.2500000E+00  0.0000000E+00  0.3125000E-01
    1      -14.840402
    2      -14.840401
    3      -14.706625
    4      -14.706624
    5      -14.636978
    6      -14.636977
    7      -14.595420
    8      -14.595419
    9      -14.577955
   10      -14.577954
   11      -14.575796
   12      -14.575794
   13      -14.555971
   14      -14.555970
   15      -14.511418
   16      -14.511416
   17       -7.607963
   18       -7.607962
   19       -7.596774
   20       -7.596773
   21       -7.506150
   22       -7.506150
   23       -7.452664
   24       -7.452663
   25       -7.417632
   26       -7.417632
   27       -7.399481
   28       -7.399480
   29       -7.307818
   30       -7.307817
   31       -7.144515
   32       -7.144515
   33       -7.005026
   34       -7.005026
   35       -6.999067
   36       -6.999067
   37       -6.958170
   38       -6.958170
   39       -6.917776
   40       -6.917776
   41       -6.915720
   42       -6.915719
   43       -6.886951
   44       -6.886950
   45       -6.862950
   46       -6.862949
   47       -6.841864
   48       -6.841864
   49       -6.827264
   50       -6.827263
   51       -6.795158
   52       -6.795157
   53       -6.772810
   54       -6.772810
   55       -6.758597
   56       -6.758595
   57       -6.707315
   58       -6.707314
   59       -6.696515
   60       -6.696513
   61       -6.673800
   62       -6.673799
   63       -6.643014
   64       -6.643014
   65        1.538979
   66        1.538980
   67        2.544232
   68        2.544233
   69        3.078244
   70        3.078246
   71        3.125666
   72        3.125666
   73        3.239586
   74        3.239587
   75        3.402952
   76        3.402953
   77        3.645473
   78        3.645473
   79        3.867740
   80        3.867741
   81        3.949100
   82        3.949101
   83        4.078786
   84        4.078787
   85        4.349263
   86        4.349264
   87        4.503909
   88        4.503909
   89        4.605682
   90        4.605683
   91        4.681965
   92        4.681965
   93        4.998445
   94        4.998445
   95        5.213129
   96        5.213129
   97        5.279087
   98        5.279087
   99        5.355072
  100        5.355072
  101        5.383642
  102        5.383643
  103        5.575200
  104        5.575201
  105        6.006267
  106        6.006268
 
  0.0000000E+00  0.5000000E+00  0.0000000E+00  0.1562500E-01
    1      -14.817689
    2      -14.817689
    3      -14.714559
    4      -14.714559
    5      -14.637809
    6      -14.637809
    7      -14.610858
    8      -14.610858
    9      -14.608386
   10      -14.608386
   11      -14.543554
   12      -14.543554
   13      -14.540123
   14      -14.540123
   15      -14.530319
   16      -14.530319
   17       -7.644708
   18       -7.644708
   19       -7.495224
   20       -7.495224
   21       -7.477914
   22       -7.477914
   23       -7.436274
   24       -7.436274
   25       -7.406388
   26       -7.406388
   27       -7.342364
   28       -7.342364
   29       -7.219993
   30       -7.219993
   31       -7.167728
   32       -7.167728
   33       -7.118397
   34       -7.118397
   35       -7.033308
   36       -7.033308
   37       -6.999748
   38       -6.999748
   39       -6.956196
   40       -6.956196
   41       -6.904227
   42       -6.904227
   43       -6.898513
   44       -6.898513
   45       -6.854606
   46       -6.854606
   47       -6.834210
   48       -6.834210
   49       -6.810571
   50       -6.810571
   51       -6.783329
   52       -6.783329
   53       -6.782725
   54       -6.782725
   55       -6.771895
   56       -6.771895
   57       -6.733797
   58       -6.733797
   59       -6.727985
   60       -6.727985
   61       -6.674708
   62       -6.674708
   63       -6.647884
   64       -6.647884
   65        1.707154
   66        1.707154
   67        2.666121
   68        2.666121
   69        2.764954
   70        2.764954
   71        3.079852
   72        3.079852
   73        3.324651
   74        3.324651
   75        3.724448
   76        3.724448
   77        3.735010
   78        3.735010
   79        3.755029
   80        3.755029
   81        3.812855
   82        3.812855
   83        4.320866
   84        4.320866
   85        4.364085
   86        4.364085
   87        4.459684
   88        4.459684
   89        4.491349
   90        4.491349
   91        4.703966
   92        4.703966
   93        4.866416
   94        4.866416
   95        5.035697
   96        5.035697
   97        5.230848
   98        5.230848
   99        5.517846
  100        5.517846
  101        5.658167
  102        5.658167
  103        5.715162
  104        5.715162
  105        5.786660
  106        5.786660
 
  0.2500000E+00  0.5000000E+00  0.0000000E+00  0.3125000E-01
    1      -14.807852
    2      -14.807852
    3      -14.741216
    4      -14.741216
    5      -14.611969
    6      -14.611969
    7      -14.609148
    8      -14.609148
    9      -14.608760
   10      -14.608760
   11      -14.544659
   12      -14.544659
   13      -14.540511
   14      -14.540511
   15      -14.539164
   16      -14.539164
   17       -7.632434
   18       -7.632434
   19       -7.548435
   20       -7.548435
   21       -7.452214
   22       -7.452214
   23       -7.447330
   24       -7.447330
   25       -7.412426
   26       -7.412426
   27       -7.268941
   28       -7.268941
   29       -7.258402
   30       -7.258402
   31       -7.129850
   32       -7.129850
   33       -7.097502
   34       -7.097502
   35       -7.042935
   36       -7.042935
   37       -7.033077
   38       -7.033077
   39       -6.959450
   40       -6.959450
   41       -6.925710
   42       -6.925710
   43       -6.888330
   44       -6.888330
   45       -6.875097
   46       -6.875097
   47       -6.834469
   48       -6.834469
   49       -6.817564
   50       -6.817564
   51       -6.805147
   52       -6.805147
   53       -6.792388
   54       -6.792388
   55       -6.787320
   56       -6.787320
   57       -6.706739
   58       -6.706739
   59       -6.691896
   60       -6.691896
   61       -6.664495
   62       -6.664495
   63       -6.650475
   64       -6.650475
   65        1.777538
   66        1.777538
   67        2.303910
   68        2.303910
   69        3.119826
   70        3.119826
   71        3.162858
   72        3.162858
   73        3.298045
   74        3.298045
   75        3.703814
   76        3.703814
   77        3.712668
   78        3.712668
   79        3.792420
   80        3.792420
   81        3.802810
   82        3.802810
   83        4.127583
   84        4.127583
   85        4.322868
   86        4.322868
   87        4.444410
   88        4.444410
   89        4.611603
   90        4.611603
   91        4.679882
   92        4.679882
   93        4.914414
   94        4.914414
   95        5.116204
   96        5.116204
   97        5.222105
   98        5.222105
   99        5.450216
  100        5.450216
  101        5.572314
  102        5.572314
  103        5.681695
  104        5.681695
  105        5.750395
  106        5.750395
 
  0.5000000E+00  0.5000000E+00  0.0000000E+00  0.1562500E-01
    1      -14.780176
    2      -14.780176
    3      -14.780175
    4      -14.780175
    5      -14.609690
    6      -14.609690
    7      -14.609689
    8      -14.609689
    9      -14.570414
   10      -14.570414
   11      -14.570412
   12      -14.570412
   13      -14.541349
   14      -14.541349
   15      -14.541347
   16      -14.541347
   17       -7.598292
   18       -7.598292
   19       -7.598291
   20       -7.598291
   21       -7.465985
   22       -7.465985
   23       -7.465985
   24       -7.465985
   25       -7.335024
   26       -7.335024
   27       -7.335023
   28       -7.335023
   29       -7.156052
   30       -7.156052
   31       -7.156052
   32       -7.156052
   33       -7.069944
   34       -7.069944
   35       -7.069944
   36       -7.069944
   37       -7.007684
   38       -7.007684
   39       -7.007683
   40       -7.007683
   41       -6.936511
   42       -6.936511
   43       -6.936510
   44       -6.936510
   45       -6.843630
   46       -6.843629
   47       -6.843629
   48       -6.843629
   49       -6.807786
   50       -6.807786
   51       -6.807785
   52       -6.807785
   53       -6.805129
   54       -6.805129
   55       -6.805129
   56       -6.805129
   57       -6.682955
   58       -6.682955
   59       -6.682954
   60       -6.682954
   61       -6.652191
   62       -6.652191
   63       -6.652190
   64       -6.652190
   65        1.982650
   66        1.982650
   67        1.982651
   68        1.982651
   69        3.212559
   70        3.212559
   71        3.212561
   72        3.212561
   73        3.557599
   74        3.557599
   75        3.557600
   76        3.557600
   77        3.715736
   78        3.715736
   79        3.715738
   80        3.715738
   81        3.915570
   82        3.915570
   83        3.915570
   84        3.915570
   85        4.355619
   86        4.355619
   87        4.355620
   88        4.355620
   89        4.649999
   90        4.649999
   91        4.650000
   92        4.650000
   93        5.114211
   94        5.114211
   95        5.114212
   96        5.114212
   97        5.280479
   98        5.280479
   99        5.280480
  100        5.280480
  101        5.539272
  102        5.539272
  103        5.539273
  104        5.539273
  105        5.847630
  106        5.847630
 
  0.0000000E+00  0.0000000E+00  0.2500000E+00  0.3125000E-01
    1      -14.887279
    2      -14.748345
    3      -14.719920
    4      -14.673740
    5      -14.665151
    6      -14.651573
    7      -14.647837
    8      -14.603205
    9      -14.590653
   10      -14.587171
   11      -14.573297
   12      -14.565284
   13      -14.541909
   14      -14.523452
   15      -14.512310
   16      -14.510837
   17       -7.610452
   18       -7.598810
   19       -7.577860
   20       -7.576714
   21       -7.543661
   22       -7.520080
   23       -7.496937
   24       -7.469686
   25       -7.368402
   26       -7.367533
   27       -7.323299
   28       -7.277226
   29       -7.277145
   30       -7.276857
   31       -7.267071
   32       -7.169926
   33       -7.112647
   34       -7.098895
   35       -7.044564
   36       -7.029256
   37       -6.999477
   38       -6.952859
   39       -6.916092
   40       -6.912579
   41       -6.911489
   42       -6.906226
   43       -6.901244
   44       -6.901051
   45       -6.840922
   46       -6.835790
   47       -6.834724
   48       -6.805232
   49       -6.803132
   50       -6.789418
   51       -6.781375
   52       -6.775662
   53       -6.762438
   54       -6.749841
   55       -6.739161
   56       -6.735854
   57       -6.724601
   58       -6.719995
   59       -6.718858
   60       -6.714447
   61       -6.713085
   62       -6.674443
   63       -6.641171
   64       -6.629866
   65        1.185361
   66        2.398445
   67        2.424310
   68        2.460673
   69        2.806427
   70        2.887932
   71        2.996464
   72        2.996559
   73        3.135173
   74        3.363661
   75        3.414797
   76        3.496433
   77        3.586643
   78        3.684497
   79        3.849135
   80        3.919537
   81        4.139053
   82        4.203110
   83        4.238124
   84        4.282988
   85        4.440619
   86        4.485728
   87        4.516220
   88        4.531797
   89        4.555946
   90        4.618374
   91        4.661624
   92        4.802916
   93        4.808494
   94        4.810238
   95        4.901709
   96        5.098040
   97        5.235714
   98        5.339446
   99        5.343386
  100        5.463632
  101        5.464582
  102        5.630765
  103        5.820668
  104        5.881534
  105        5.920947
  106        5.921846
 
  0.2500000E+00  0.0000000E+00  0.2500000E+00  0.6250000E-01
    1      -14.874809
    2      -14.787755
    3      -14.714122
    4      -14.677265
    5      -14.651143
    6      -14.648391
    7      -14.632597
    8      -14.596724
    9      -14.588558
   10      -14.585758
   11      -14.573334
   12      -14.564221
   13      -14.546592
   14      -14.537771
   15      -14.512021
   16      -14.510863
   17       -7.609476
   18       -7.587520
   19       -7.573350
   20       -7.528682
   21       -7.520473
   22       -7.504887
   23       -7.498736
   24       -7.484525
   25       -7.397487
   26       -7.379131
   27       -7.366602
   28       -7.362475
   29       -7.352039
   30       -7.326152
   31       -7.183967
   32       -7.107511
   33       -7.082563
   34       -7.059070
   35       -7.028017
   36       -7.021926
   37       -6.989600
   38       -6.946193
   39       -6.927499
   40       -6.908206
   41       -6.905411
   42       -6.895959
   43       -6.890637
   44       -6.887636
   45       -6.852097
   46       -6.841131
   47       -6.830679
   48       -6.805037
   49       -6.802726
   50       -6.798707
   51       -6.794178
   52       -6.784019
   53       -6.770194
   54       -6.756708
   55       -6.746531
   56       -6.745484
   57       -6.741065
   58       -6.737824
   59       -6.728212
   60       -6.689777
   61       -6.688847
   62       -6.680982
   63       -6.650894
   64       -6.627601
   65        1.277339
   66        1.937788
   67        2.484888
   68        2.693741
   69        2.870178
   70        2.925658
   71        3.015700
   72        3.124684
   73        3.200513
   74        3.316107
   75        3.381136
   76        3.521203
   77        3.552358
   78        3.659695
   79        3.873955
   80        3.894975
   81        4.113389
   82        4.153124
   83        4.164137
   84        4.231012
   85        4.309969
   86        4.377358
   87        4.456287
   88        4.575759
   89        4.647876
   90        4.733554
   91        4.750491
   92        4.774370
   93        4.817620
   94        4.831533
   95        5.034967
   96        5.116145
   97        5.146576
   98        5.255461
   99        5.290814
  100        5.394355
  101        5.411534
  102        5.624125
  103        5.723710
  104        5.787551
  105        5.904812
  106        5.976169
 
  0.5000000E+00  0.0000000E+00  0.2500000E+00  0.3125000E-01
    1      -14.839382
    2      -14.839381
    3      -14.698179
    4      -14.698178
    5      -14.649756
    6      -14.649755
    7      -14.591802
    8      -14.591802
    9      -14.577189
   10      -14.577188
   11      -14.575675
   12      -14.575674
   13      -14.557654
   14      -14.557653
   15      -14.511401
   16      -14.511398
   17       -7.592015
   18       -7.592014
   19       -7.531960
   20       -7.531959
   21       -7.477224
   22       -7.477223
   23       -7.460656
   24       -7.460655
   25       -7.456078
   26       -7.456077
   27       -7.402841
   28       -7.402840
   29       -7.386830
   30       -7.386829
   31       -7.110590
   32       -7.110589
   33       -7.061383
   34       -7.061382
   35       -7.003665
   36       -7.003665
   37       -6.932932
   38       -6.932932
   39       -6.905178
   40       -6.905177
   41       -6.893000
   42       -6.893000
   43       -6.885538
   44       -6.885537
   45       -6.860585
   46       -6.860584
   47       -6.842353
   48       -6.842352
   49       -6.811927
   50       -6.811927
   51       -6.792435
   52       -6.792434
   53       -6.768167
   54       -6.768167
   55       -6.755426
   56       -6.755424
   57       -6.742288
   58       -6.742288
   59       -6.709025
   60       -6.709023
   61       -6.674028
   62       -6.674027
   63       -6.643345
   64       -6.643345
   65        1.540354
   66        1.540356
   67        2.560948
   68        2.560949
   69        3.055200
   70        3.055200
   71        3.119058
   72        3.119061
   73        3.234805
   74        3.234806
   75        3.418828
   76        3.418829
   77        3.650509
   78        3.650509
   79        3.866594
   80        3.866594
   81        4.009281
   82        4.009283
   83        4.181795
   84        4.181795
   85        4.370540
   86        4.370541
   87        4.449615
   88        4.449615
   89        4.668801
   90        4.668802
   91        4.731041
   92        4.731041
   93        5.040481
   94        5.040481
   95        5.077009
   96        5.077009
   97        5.192270
   98        5.192271
   99        5.198903
  100        5.198904
  101        5.535566
  102        5.535567
  103        5.635220
  104        5.635220
  105        6.005441
  106        6.005627
 
  0.0000000E+00  0.2500000E+00  0.2500000E+00  0.6250000E-01
    1      -14.861985
    2      -14.734179
    3      -14.708146
    4      -14.702506
    5      -14.662735
    6      -14.659440
    7      -14.652867
    8      -14.605607
    9      -14.595531
   10      -14.590032
   11      -14.588443
   12      -14.546115
   13      -14.538689
   14      -14.524727
   15      -14.522584
   16      -14.513877
   17       -7.600239
   18       -7.547416
   19       -7.543434
   20       -7.542461
   21       -7.508113
   22       -7.495454
   23       -7.472764
   24       -7.385237
   25       -7.354243
   26       -7.347756
   27       -7.310592
   28       -7.290128
   29       -7.288503
   30       -7.247045
   31       -7.219164
   32       -7.212841
   33       -7.184699
   34       -7.086478
   35       -7.080079
   36       -7.039634
   37       -7.029963
   38       -6.962937
   39       -6.935484
   40       -6.901831
   41       -6.900693
   42       -6.900409
   43       -6.890624
   44       -6.888597
   45       -6.882634