   80   80  200    1
  0.1078958E+02  0.1208583E-08  0.8453651E-09  0.8448387E-09  0.5000000E-15
  1.000000000000000E-004
  CAR 
 diamond                                 
    128     27    106
 
  0.0000000E+00  0.0000000E+00  0.0000000E+00  0.1562500E-01
    1      -14.914299
    2      -14.764739
    3      -14.687901
    4      -14.665744
    5      -14.661849
    6      -14.650383
    7      -14.646768
    8      -14.608804
    9      -14.595596
   10      -14.588145
   11      -14.585898
   12      -14.558035
   13      -14.544844
   14      -14.524313
   15      -14.498895
   16      -14.497546
   17       -7.661920
   18       -7.647564
   19       -7.638387
   20       -7.596574
   21       -7.587259
   22       -7.582050
   23       -7.568068
   24       -7.514788
   25       -7.364536
   26       -7.330105
   27       -7.300300
   28       -7.284197
   29       -7.271681
   30       -7.170761
   31       -7.162060
   32       -7.160998
   33       -7.159988
   34       -7.101930
   35       -7.059378
   36       -7.034771
   37       -6.986874
   38       -6.961182
   39       -6.957429
   40       -6.928900
   41       -6.924197
   42       -6.918848
   43       -6.915628
   44       -6.903022
   45       -6.894119
   46       -6.814043
   47       -6.797442
   48       -6.788084
   49       -6.779099
   50       -6.750832
   51       -6.748360
   52       -6.748184
   53       -6.740235
   54       -6.732661
   55       -6.715116
   56       -6.713931
   57       -6.709607
   58       -6.708483
   59       -6.706493
   60       -6.702713
   61       -6.694280
   62       -6.656238
   63       -6.638768
   64       -6.600719
   65        0.989025
   66        2.267419
   67        2.301542
   68        2.731376
   69        2.812921
   70        2.899723
   71        3.082888
   72        3.105338
   73        3.210352
   74        3.219866
   75        3.250818
   76        3.372955
   77        3.426209
   78        3.514719
   79        3.553900
   80        3.736858
   81        4.057091
   82        4.209599
   83        4.318527
   84        4.392769
   85        4.419701
   86        4.547032
   87        4.578246
   88        4.650385
   89        4.665144
   90        4.700218
   91        4.743958
   92        4.759402
   93        4.783522
   94        4.811385
   95        5.207184
   96        5.217513
   97        5.246238
   98        5.314090
   99        5.332888
  100        5.425578
  101        5.528568
  102        5.696240
  103        5.731378
  104        5.794029
  105        5.880409
  106        5.931206
 
  0.2500000E+00  0.0000000E+00  0.0000000E+00  0.3125000E-01
    1      -14.901019
    2      -14.807767
    3      -14.665190
    4      -14.662415
    5      -14.649855
    6      -14.647269
    7      -14.642850
    8      -14.606958
    9      -14.597300
   10      -14.588714
   11      -14.586553
   12      -14.555397
   13      -14.546322
   14      -14.539806
   15      -14.498663
   16      -14.497619
   17       -7.637230
   18       -7.636968
   19       -7.620534
   20       -7.584590
   21       -7.577659
   22       -7.549581
   23       -7.548097
   24       -7.511324
   25       -7.425927
   26       -7.382083
   27       -7.362637
   28       -7.348654
   29       -7.344591
   30       -7.311674
   31       -7.113467
   32       -7.110439
   33       -7.079764
   34       -7.034785
   35       -7.030764
   36       -6.953922
   37       -6.948230
   38       -6.936532
   39       -6.935996
   40       -6.927945
   41       -6.915585
   42       -6.913697
   43       -6.904681
   44       -6.898239
   45       -6.890471
   46       -6.843573
   47       -6.805817
   48       -6.782295
   49       -6.769775
   50       -6.761090
   51       -6.758454
   52       -6.751292
   53       -6.748213
   54       -6.742136
   55       -6.726336
   56       -6.723602
   57       -6.721263
   58       -6.712820
   59       -6.709361
   60       -6.696553
   61       -6.696145
   62       -6.656343
   63       -6.648610
   64       -6.643676
   65        1.087943
   66        1.790390
   67        2.753417
   68        2.802902
   69        2.849029
   70        2.943827
   71        3.040041
   72        3.126428
   73        3.127411
   74        3.171662
   75        3.219514
   76        3.386825
   77        3.460598
   78        3.462633
   79        3.640273
   80        3.792063
   81        4.087677
   82        4.120214
   83        4.161264
   84        4.293406
   85        4.442754
   86        4.448583
   87        4.555944
   88        4.626936
   89        4.670460
   90        4.695069
   91        4.702884
   92        4.731522
   93        4.873422
   94        4.964397
   95        5.065349
   96        5.166982
   97        5.226087
   98        5.327142
   99        5.340884
  100        5.427844
  101        5.475347
  102        5.601717
  103        5.735010
  104        5.766976
  105        5.947126
  106        6.217424
 
  0.5000000E+00  0.0000000E+00  0.0000000E+00  0.1562500E-01
    1      -14.863146
    2      -14.863145
    3      -14.663788
    4      -14.663787
    5      -14.648573
    6      -14.648572
    7      -14.602269
    8      -14.602267
    9      -14.587989
   10      -14.587987
   11      -14.582595
   12      -14.582593
   13      -14.550335
   14      -14.550334
   15      -14.498086
   16      -14.498083
   17       -7.616813
   18       -7.616812
   19       -7.577690
   20       -7.577689
   21       -7.551652
   22       -7.551650
   23       -7.459416
   24       -7.459416
   25       -7.458448
   26       -7.458448
   27       -7.455681
   28       -7.455680
   29       -7.397562
   30       -7.397561
   31       -7.054222
   32       -7.054221
   33       -7.049669
   34       -7.049667
   35       -6.982374
   36       -6.982373
   37       -6.935402
   38       -6.935400
   39       -6.924307
   40       -6.924307
   41       -6.889054
   42       -6.889053
   43       -6.828028
   44       -6.828028
   45       -6.822899
   46       -6.822899
   47       -6.814927
   48       -6.814926
   49       -6.791932
   50       -6.791931
   51       -6.771498
   52       -6.771497
   53       -6.767898
   54       -6.767898
   55       -6.742133
   56       -6.742133
   57       -6.717152
   58       -6.717150
   59       -6.713062
   60       -6.713060
   61       -6.674244
   62       -6.674243
   63       -6.670667
   64       -6.670666
   65        1.369371
   66        1.369372
   67        2.941044
   68        2.941044
   69        2.973649
   70        2.973652
   71        3.055229
   72        3.055229
   73        3.077722
   74        3.077723
   75        3.213212
   76        3.213212
   77        3.503820
   78        3.503821
   79        3.873723
   80        3.873724
   81        3.945649
   82        3.945650
   83        4.173189
   84        4.173190
   85        4.425358
   86        4.425359
   87        4.592200
   88        4.592200
   89        4.599432
   90        4.599434
   91        4.649405
   92        4.649406
   93        5.028550
   94        5.028550
   95        5.153383
   96        5.153383
   97        5.273202
   98        5.273203
   99        5.439975
  100        5.439976
  101        5.500372
  102        5.500373
  103        5.565542
  104        5.565544
  105        6.069670
  106        6.069672
 
  0.0000000E+00  0.2500000E+00  0.0000000E+00  0.3125000E-01
    1      -14.888040
    2      -14.750169
    3      -14.726691
    4      -14.677534
    5      -14.673382
    6      -14.638080
    7      -14.635462
    8      -14.602418
    9      -14.601268
   10      -14.580909
   11      -14.575197
   12      -14.552141
   13      -14.550500
   14      -14.524302
   15      -14.511934
   16      -14.511149
   17       -7.673582
   18       -7.599438
   19       -7.594018
   20       -7.580493
   21       -7.551268
   22       -7.543306
   23       -7.527633
   24       -7.408414
   25       -7.407938
   26       -7.329026
   27       -7.294058
   28       -7.282838
   29       -7.234560
   30       -7.229991
   31       -7.203499
   32       -7.181103
   33       -7.170218
   34       -7.103156
   35       -7.041596
   36       -7.029740
   37       -7.012996
   38       -6.966438
   39       -6.924809
   40       -6.912076
   41       -6.908672
   42       -6.902325
   43       -6.887475
   44       -6.882268
   45       -6.879619
   46       -6.874489
   47       -6.829945
   48       -6.805142
   49       -6.787992
   50       -6.780448
   51       -6.779414
   52       -6.778856
   53       -6.761168
   54       -6.747481
   55       -6.746162
   56       -6.739170
   57       -6.723002
   58       -6.721673
   59       -6.712977
   60       -6.704520
   61       -6.690486
   62       -6.673809
   63       -6.647523
   64       -6.622187
   65        1.183010
   66        2.401961
   67        2.432077
   68        2.435608
   69        2.800871
   70        2.840200
   71        3.021586
   72        3.102558
   73        3.208594
   74        3.289717
   75        3.421888
   76        3.431358
   77        3.544737
   78        3.618741
   79        3.775205
   80        3.975158
   81        4.074456
   82        4.134667
   83        4.182572
   84        4.223113
   85        4.240447
   86        4.556698
   87        4.588173
   88        4.591121
   89        4.617771
   90        4.666254
   91        4.689739
   92        4.731187
   93        4.764063
   94        4.804685
   95        5.084405
   96        5.166556
   97        5.189773
   98        5.250043
   99        5.339587
  100        5.436981
  101        5.599616
  102        5.641222
  103        5.662174
  104        5.796229
  105        5.948604
  106        6.051316
 
  0.2500000E+00  0.2500000E+00  0.0000000E+00  0.6250000E-01
    1      -14.875597
    2      -14.788946
    3      -14.721243
    4      -14.687730
    5      -14.637690
    6      -14.635972
    7      -14.632884
    8      -14.600742
    9      -14.591657
   10      -14.587522
   11      -14.570481
   12      -14.555232
   13      -14.552099
   14      -14.538574
   15      -14.511762
   16      -14.511078
   17       -7.651901
   18       -7.609387
   19       -7.599497
   20       -7.579045
   21       -7.519683
   22       -7.508576
   23       -7.500834
   24       -7.456447
   25       -7.431471
   26       -7.378185
   27       -7.343038
   28       -7.307026
   29       -7.295091
   30       -7.252764
   31       -7.204373
   32       -7.133127
   33       -7.067656
   34       -7.053577
   35       -7.051471
   36       -6.997239
   37       -6.997235
   38       -6.950310
   39       -6.935098
   40       -6.920982
   41       -6.900535
   42       -6.899539
   43       -6.896738
   44       -6.869702
   45       -6.868095
   46       -6.853460
   47       -6.853235
   48       -6.839235
   49       -6.793769
   50       -6.793658
   51       -6.786966
   52       -6.785405
   53       -6.762238
   54       -6.759256
   55       -6.754292
   56       -6.746345
   57       -6.741609
   58       -6.712035
   59       -6.697305
   60       -6.697051
   61       -6.686509
   62       -6.668682
   63       -6.657473
   64       -6.622275
   65        1.275137
   66        1.939008
   67        2.459586
   68        2.684652
   69        2.891512
   70        2.906714
   71        3.053978
   72        3.188385
   73        3.201959
   74        3.323558
   75        3.396590
   76        3.415412
   77        3.499579
   78        3.683533
   79        3.822737
   80        3.890878
   81        4.067037
   82        4.075442
   83        4.115955
   84        4.126170
   85        4.237886
   86        4.487532
   87        4.497425
   88        4.578905
   89        4.644482
   90        4.644914
   91        4.668868
   92        4.683239
   93        4.946540
   94        4.982817
   95        5.019102
   96        5.138775
   97        5.205841
   98        5.321464
   99        5.331614
  100        5.356879
  101        5.509811
  102        5.530285
  103        5.571307
  104        5.853972
  105        5.858349
  106        6.127301
 
  0.5000000E+00  0.2500000E+00  0.0000000E+00  0.3125000E-01
    1      -14.840279
    2      -14.840278
    3      -14.706480
    4      -14.706480
    5      -14.636769
    6      -14.636769
    7      -14.595327
    8      -14.595326
    9      -14.577856
   10      -14.577854
   11      -14.575727
   12      -14.575726
   13      -14.555822
   14      -14.555821
   15      -14.511378
   16      -14.511375
   17       -7.609167
   18       -7.609166
   19       -7.597314
   20       -7.597313
   21       -7.506302
   22       -7.506301
   23       -7.451519
   24       -7.451518
   25       -7.417586
   26       -7.417586
   27       -7.398586
   28       -7.398585
   29       -7.308353
   30       -7.308352
   31       -7.142857
   32       -7.142856
   33       -7.004302
   34       -7.004302
   35       -6.999457
   36       -6.999457
   37       -6.958496
   38       -6.958496
   39       -6.917427
   40       -6.917426
   41       -6.915587
   42       -6.915586
   43       -6.885739
   44       -6.885739
   45       -6.862161
   46       -6.862160
   47       -6.842084
   48       -6.842084
   49       -6.828335
   50       -6.828334
   51       -6.795023
   52       -6.795022
   53       -6.774790
   54       -6.774790
   55       -6.758649
   56       -6.758648
   57       -6.707187
   58       -6.707186
   59       -6.696906
   60       -6.696904
   61       -6.674969
   62       -6.674968
   63       -6.642125
   64       -6.642125
   65        1.538990
   66        1.538992
   67        2.544291
   68        2.544292
   69        3.077941
   70        3.077944
   71        3.125358
   72        3.125358
   73        3.240080
   74        3.240081
   75        3.402149
   76        3.402151
   77        3.646242
   78        3.646243
   79        3.867351
   80        3.867352
   81        3.948447
   82        3.948448
   83        4.078211
   84        4.078213
   85        4.349096
   86        4.349097
   87        4.504100
   88        4.504100
   89        4.605438
   90        4.605439
   91        4.681273
   92        4.681273
   93        4.998547
   94        4.998547
   95        5.213800
   96        5.213800
   97        5.278635
   98        5.278636
   99        5.355523
  100        5.355524
  101        5.383989
  102        5.383990
  103        5.575071
  104        5.575072
  105        6.006320
  106        6.006321
 
  0.0000000E+00  0.5000000E+00  0.0000000E+00  0.1562500E-01
    1      -14.817570
    2      -14.817570
    3      -14.714382
    4      -14.714382
    5      -14.637768
    6      -14.637768
    7      -14.610685
    8      -14.610685
    9      -14.608182
   10      -14.608182
   11      -14.543515
   12      -14.543515
   13      -14.540052
   14      -14.540052
   15      -14.530217
   16      -14.530217
   17       -7.646429
   18       -7.646429
   19       -7.494111
   20       -7.494111
   21       -7.480224
   22       -7.480224
   23       -7.434970
   24       -7.434970
   25       -7.404836
   26       -7.404836
   27       -7.342528
   28       -7.342528
   29       -7.220415
   30       -7.220415
   31       -7.167183
   32       -7.167183
   33       -7.116349
   34       -7.116349
   35       -7.032493
   36       -7.032493
   37       -6.999596
   38       -6.999596
   39       -6.956489
   40       -6.956489
   41       -6.904622
   42       -6.904622
   43       -6.897338
   44       -6.897338
   45       -6.856136
   46       -6.856136
   47       -6.834759
   48       -6.834759
   49       -6.808653
   50       -6.808653
   51       -6.784091
   52       -6.784091
   53       -6.783804
   54       -6.783804
   55       -6.771677
   56       -6.771677
   57       -6.736769
   58       -6.736769
   59       -6.726373
   60       -6.726373
   61       -6.673520
   62       -6.673520
   63       -6.649266
   64       -6.649266
   65        1.707110
   66        1.707110
   67        2.666464
   68        2.666464
   69        2.765196
   70        2.765196
   71        3.079690
   72        3.079690
   73        3.324198
   74        3.324198
   75        3.723727
   76        3.723727
   77        3.734418
   78        3.734418
   79        3.753692
   80        3.753692
   81        3.813614
   82        3.813614
   83        4.321608
   84        4.321608
   85        4.363962
   86        4.363962
   87        4.459414
   88        4.459414
   89        4.491278
   90        4.491278
   91        4.703809
   92        4.703809
   93        4.865525
   94        4.865525
   95        5.035805
   96        5.035805
   97        5.230607
   98        5.230607
   99        5.519276
  100        5.519276
  101        5.658101
  102        5.658101
  103        5.715253
  104        5.715253
  105        5.786510
  106        5.786510
 
  0.2500000E+00  0.5000000E+00  0.0000000E+00  0.3125000E-01
    1      -14.807730
    2      -14.807730
    3      -14.741069
    4      -14.741069
    5      -14.611844
    6      -14.611844
    7      -14.609024
    8      -14.609024
    9      -14.608560
   10      -14.608560
   11      -14.544605
   12      -14.544605
   13      -14.540444
   14      -14.540444
   15      -14.539075
   16      -14.539075
   17       -7.634067
   18       -7.634067
   19       -7.549266
   20       -7.549266
   21       -7.451089
   22       -7.451089
   23       -7.446749
   24       -7.446749
   25       -7.412306
   26       -7.412306
   27       -7.268572
   28       -7.268572
   29       -7.258164
   30       -7.258164
   31       -7.129481
   32       -7.129481
   33       -7.095909
   34       -7.095909
   35       -7.042159
   36       -7.042159
   37       -7.033082
   38       -7.033082
   39       -6.959586
   40       -6.959586
   41       -6.925561
   42       -6.925561
   43       -6.888232
   44       -6.888232
   45       -6.873819
   46       -6.873819
   47       -6.834522
   48       -6.834522
   49       -6.819278
   50       -6.819278
   51       -6.804012
   52       -6.804012
   53       -6.793167
   54       -6.793167
   55       -6.789143
   56       -6.789143
   57       -6.708456
   58       -6.708456
   59       -6.691343
   60       -6.691343
   61       -6.663255
   62       -6.663255
   63       -6.651348
   64       -6.651348
   65        1.777513
   66        1.777513
   67        2.304051
   68        2.304051
   69        3.119629
   70        3.119629
   71        3.163333
   72        3.163333
   73        3.297690
   74        3.297690
   75        3.703305
   76        3.703305
   77        3.712175
   78        3.712175
   79        3.791589
   80        3.791589
   81        3.802993
   82        3.802993
   83        4.127265
   84        4.127265
   85        4.323289
   86        4.323289
   87        4.444342
   88        4.444342
   89        4.611198
   90        4.611198
   91        4.679495
   92        4.679495
   93        4.913648
   94        4.913648
   95        5.116680
   96        5.116680
   97        5.221973
   98        5.221973
   99        5.451519
  100        5.451519
  101        5.572300
  102        5.572300
  103        5.681689
  104        5.681689
  105        5.750465
  106        5.750465
 
  0.5000000E+00  0.5000000E+00  0.0000000E+00  0.1562500E-01
    1      -14.780047
    2      -14.780047
    3      -14.780046
    4      -14.780046
    5      -14.609502
    6      -14.609502
    7      -14.609501
    8      -14.609501
    9      -14.570326
   10      -14.570326
   11      -14.570324
   12      -14.570324
   13      -14.541290
   14      -14.541290
   15      -14.541288
   16      -14.541288
   17       -7.599637
   18       -7.599637
   19       -7.599636
   20       -7.599636
   21       -7.465097
   22       -7.465097
   23       -7.465097
   24       -7.465097
   25       -7.334738
   26       -7.334738
   27       -7.334737
   28       -7.334737
   29       -7.155490
   30       -7.155490
   31       -7.155490
   32       -7.155490
   33       -7.069250
   34       -7.069249
   35       -7.069249
   36       -7.069249
   37       -7.007309
   38       -7.007309
   39       -7.007309
   40       -7.007309
   41       -6.936330
   42       -6.936330
   43       -6.936330
   44       -6.936330
   45       -6.842156
   46       -6.842156
   47       -6.842156
   48       -6.842156
   49       -6.809981
   50       -6.809981
   51       -6.809980
   52       -6.809980
   53       -6.805690
   54       -6.805690
   55       -6.805689
   56       -6.805689
   57       -6.684144
   58       -6.684144
   59       -6.684143
   60       -6.684142
   61       -6.651331
   62       -6.651331
   63       -6.651331
   64       -6.651331
   65        1.982686
   66        1.982686
   67        1.982687
   68        1.982687
   69        3.212234
   70        3.212234
   71        3.212235
   72        3.212235
   73        3.558514
   74        3.558514
   75        3.558515
   76        3.558515
   77        3.714905
   78        3.714905
   79        3.714906
   80        3.714906
   81        3.914906
   82        3.914906
   83        3.914906
   84        3.914906
   85        4.355610
   86        4.355610
   87        4.355611
   88        4.355611
   89        4.649415
   90        4.649415
   91        4.649416
   92        4.649416
   93        5.113860
   94        5.113860
   95        5.113860
   96        5.113860
   97        5.281542
   98        5.281542
   99        5.281543
  100        5.281543
  101        5.539294
  102        5.539294
  103        5.539294
  104        5.539294
  105        5.847733
  106        5.847733
 
  0.0000000E+00  0.0000000E+00  0.2500000E+00  0.3125000E-01
    1      -14.887163
    2      -14.748162
    3      -14.719777
    4      -14.673697
    5      -14.664946
    6      -14.651394
    7      -14.647659
    8      -14.603164
    9      -14.590526
   10      -14.587021
   11      -14.573259
   12      -14.565178
   13      -14.541760
   14      -14.523337
   15      -14.512272
   16      -14.510800
   17       -7.609310
   18       -7.599840
   19       -7.577294
   20       -7.575535
   21       -7.542477
   22       -7.522161
   23       -7.496181
   24       -7.471525
   25       -7.367476
   26       -7.366430
   27       -7.323756
   28       -7.280647
   29       -7.277472
   30       -7.275808
   31       -7.265014
   32       -7.170913
   33       -7.109903
   34       -7.098756
   35       -7.042185
   36       -7.031458
   37       -7.001411
   38       -6.952600
   39       -6.918293
   40       -6.911835
   41       -6.911303
   42       -6.906495
   43       -6.901814
   44       -6.898938
   45       -6.843183
   46       -6.838157
   47       -6.834578
   48       -6.805976
   49       -6.801719
   50       -6.789963
   51       -6.780901
   52       -6.775480
   53       -6.763061
   54       -6.749293
   55       -6.741083
   56       -6.735851
   57       -6.725138
   58       -6.720809
   59       -6.717932
   60       -6.713716
   61       -6.711395
   62       -6.673853
   63       -6.640375
   64       -6.628469
   65        1.185167
   66        2.398320
   67        2.424679
   68        2.460180
   69        2.806167
   70        2.887571
   71        2.995870
   72        2.996643
   73        3.134980
   74        3.363209
   75        3.414858
   76        3.496470
   77        3.586883
   78        3.684744
   79        3.847794
   80        3.918768
   81        4.138586
   82        4.202762
   83        4.237624
   84        4.284115
   85        4.439517
   86        4.485177
   87        4.516588
   88        4.533735
   89        4.555925
   90        4.618019
   91        4.661953
   92        4.803480
   93        4.808483
   94        4.810338
   95        4.901347
   96        5.097144
   97        5.235784
   98        5.339181
   99        5.342544
  100        5.462645
  101        5.463459
  102        5.630826
  103        5.821033
  104        5.881626
  105        5.922540
  106        5.923668
 
  0.2500000E+00  0.0000000E+00  0.2500000E+00  0.6250000E-01
    1      -14.874691
    2      -14.787613
    3      -14.713977
    4      -14.677085
    5      -14.650965
    6      -14.648213
    7      -14.632511
    8      -14.596631
    9      -14.588414
   10      -14.585668
   11      -14.573292
   12      -14.564105
   13      -14.546444
   14      -14.537660
   15      -14.511983
   16      -14.510824
   17       -7.609807
   18       -7.586411
   19       -7.573024
   20       -7.528141
   21       -7.519292
   22       -7.506793
   23       -7.497947
   24       -7.485482
   25       -7.397481
   26       -7.378255
   27       -7.365321
   28       -7.363164
   29       -7.353591
   30       -7.325689
   31       -7.184109
   32       -7.107019
   33       -7.082421
   34       -7.057196
   35       -7.027324
   36       -7.023898
   37       -6.991306
   38       -6.946637
   39       -6.928480
   40       -6.907284
   41       -6.906019
   42       -6.896463
   43       -6.888846
   44       -6.887802
   45       -6.854165
   46       -6.840147
   47       -6.832661
   48       -6.806044
   49       -6.802017
   50       -6.798658
   51       -6.796343
   52       -6.783829
   53       -6.769161
   54       -6.756463
   55       -6.747799
   56       -6.745405
   57       -6.740525
   58       -6.735866
   59       -6.728329
   60       -6.689023
   61       -6.688089
   62       -6.681224
   63       -6.650072
   64       -6.627107
   65        1.277173
   66        1.937797
   67        2.484387
   68        2.693240
   69        2.870371
   70        2.925501
   71        3.015748
   72        3.124530
   73        3.199957
   74        3.315769
   75        3.381226
   76        3.521224
   77        3.552312
   78        3.659968
   79        3.873467
   80        3.893703
   81        4.113682
   82        4.152726
   83        4.163220
   84        4.231324
   85        4.309444
   86        4.378225
   87        4.456467
   88        4.575242
   89        4.647986
   90        4.734019
   91        4.750490
   92        4.774862
   93        4.818516
   94        4.830849
   95        5.034214
   96        5.115961
   97        5.146633
   98        5.254620
   99        5.290134
  100        5.393343
  101        5.411408
  102        5.624199
  103        5.723918
  104        5.789242
  105        5.904978
  106        5.976805
 
  0.5000000E+00  0.0000000E+00  0.2500000E+00  0.3125000E-01
    1      -14.839257
    2      -14.839256
    3      -14.698022
    4      -14.698021
    5      -14.649577
    6      -14.649576
    7      -14.591671
    8      -14.591670
    9      -14.577086
   10      -14.577085
   11      -14.575628
   12      -14.575626
   13      -14.557510
   14      -14.557510
   15      -14.511362
   16      -14.511360
   17       -7.592244
   18       -7.592244
   19       -7.530993
   20       -7.530992
   21       -7.476199
   22       -7.476198
   23       -7.462349
   24       -7.462348
   25       -7.454850
   26       -7.454849
   27       -7.404282
   28       -7.404282
   29       -7.386081
   30       -7.386080
   31       -7.109895
   32       -7.109895
   33       -7.061418
   34       -7.061417
   35       -7.004373
   36       -7.004373
   37       -6.934483
   38       -6.934483
   39       -6.906296
   40       -6.906296
   41       -6.892005
   42       -6.892005
   43       -6.886337
   44       -6.886336
   45       -6.859539
   46       -6.859539
   47       -6.842208
   48       -6.842207
   49       -6.812511
   50       -6.812510
   51       -6.793747
   52       -6.793746
   53       -6.767058
   54       -6.767057
   55       -6.755292
   56       -6.755290
   57       -6.741805
   58       -6.741805
   59       -6.708693
   60       -6.708691
   61       -6.673156
   62       -6.673155
   63       -6.643509
   64       -6.643509
   65        1.540263
   66        1.540265
   67        2.560434
   68        2.560435
   69        3.055175
   70        3.055175
   71        3.118897
   72        3.118900
   73        3.234943
   74        3.234943
   75        3.418438
   76        3.418438
   77        3.650329
   78        3.650330
   79        3.866973
   80        3.866974
   81        4.008169
   82        4.008170
   83        4.181667
   84        4.181667
   85        4.370944
   86        4.370944
   87        4.449100
   88        4.449100
   89        4.668676
   90        4.668678
   91        4.731584
   92        4.731584
   93        5.040716
   94        5.040716
   95        5.077024
   96        5.077024
   97        5.191940
   98        5.191941
   99        5.197780
  100        5.197781
  101        5.535589
  102        5.535590
  103        5.635868
  104        5.635868
  105        6.005423
  106        6.006214
 
  0.0000000E+00  0.2500000E+00  0.2500000E+00  0.6250000E-01
    1      -14.861868
    2      -14.733998
    3      -14.708008
    4      -14.702363
    5      -14.662556
    6      -14.659397
    7      -14.652665
    8      -14.605435
    9      -14.595358
   10      -14.589991
   11      -14.588403
   12      -14.546032
   13      -14.538564
   14      -14.524690
   15      -14.522473
   16      -14.513813
   17       -7.601402
   18       -7.546164
   19       -7.543251
   20       -7.542246
   21       -7.506898
   22       -7.497346
   23       -7.473112
   24       -7.385034
   25       -7.353005
   26       -7.349475
   27       -7.308818
   28       -7.288829
   29       -7.288482
   30       -7.248061
   31       -7.217169
   32       -7.213773
   33       -7.185079
   34       -7.084223
   35       -7.079796
   36       -7.040790
   37       -7.031595
   38       -6.963038
   39       -6.935866
   40       -6.902144
   41       -6.900961
   42       -6.900359
   43       -6.892282
   44       -6.888300
   45       -6.884624