       N       E                     dE             d eps       ncg     rms          rms(c)
RMM:   1     0.155428720803E+04    0.15543E+04   -0.37889E+04  2862   0.891E+02
RMM:   2     0.498394749649E+03   -0.10559E+04   -0.11106E+04  2862   0.209E+02
RMM:   3    -0.580571823151E+02   -0.55645E+03   -0.51942E+03  2862   0.139E+02
RMM:   4    -0.252177961760E+03   -0.19412E+03   -0.16643E+03  2862   0.102E+02
RMM:   5    -0.297091164357E+03   -0.44913E+02   -0.41103E+02  2862   0.563E+01
RMM:   6    -0.308792431413E+03   -0.11701E+02   -0.10709E+02  2862   0.306E+01
RMM:   7    -0.311797622157E+03   -0.30052E+01   -0.28452E+01  2862   0.163E+01
RMM:   8    -0.312613444119E+03   -0.81582E+00   -0.77294E+00  2862   0.859E+00
RMM:   9    -0.312891200565E+03   -0.27776E+00   -0.27050E+00  5724   0.452E+00
RMM:  10    -0.312917679680E+03   -0.26479E-01   -0.24795E-01  5768   0.135E+00
RMM:  11    -0.312919319494E+03   -0.16398E-02   -0.15543E-02  5725   0.318E-01
RMM:  12    -0.312919488590E+03   -0.16910E-03   -0.16318E-03  5930   0.956E-02    0.543E+01
RMM:  13    -0.214314558146E+03    0.98605E+02   -0.18867E+02  5724   0.279E+01    0.214E+01
RMM:  14    -0.203755369102E+03    0.10559E+02   -0.32410E+01  5724   0.114E+01    0.962E+00
RMM:  15    -0.202262041420E+03    0.14933E+01   -0.22847E+00  5724   0.397E+00    0.993E-01
RMM:  16    -0.202277172126E+03   -0.15131E-01   -0.14277E-01  5724   0.103E+00    0.504E-01
RMM:  17    -0.202303348547E+03   -0.26176E-01   -0.74869E-02  5724   0.646E-01    0.404E-01
RMM:  18    -0.202300973595E+03    0.23750E-02   -0.11514E-02  5724   0.266E-01    0.891E-02
RMM:  19    -0.202301398542E+03   -0.42495E-03   -0.10852E-03  5724   0.960E-02    0.700E-02
RMM:  20    -0.202301266246E+03    0.13230E-03   -0.18236E-04  5724   0.280E-02    0.215E-02
RMM:  21    -0.202301269649E+03   -0.34028E-05   -0.13918E-04  5724   0.262E-02    0.102E-02
RMM:  22    -0.202301266503E+03    0.31458E-05   -0.39141E-06  5075   0.546E-03    0.761E-03
RMM:  23    -0.202301265706E+03    0.79655E-06   -0.86516E-06  5724   0.601E-03
   1 F= -.20474087E+03 E0= -.20474087E+03  d E =-.204741E+03
       N       E                     dE             d eps       ncg     rms          rms(c)
RMM:   1     0.373403240725E+02    0.23964E+03   -0.13691E+03  8288   0.671E+01    0.476E+01
RMM:   2     0.202438069396E+02   -0.17097E+02   -0.14649E+03  9250   0.678E+01    0.236E+01
RMM:   3    -0.715004868856E+02   -0.91744E+02   -0.11728E+03  9217   0.563E+01    0.273E+01
RMM:   4    -0.964352374590E+02   -0.24935E+02   -0.46090E+02  8794   0.293E+01    0.344E+01
RMM:   5    -0.154103154103E+03   -0.57668E+02   -0.24561E+02  8784   0.190E+01    0.502E+01
RMM:   6    -0.617362796732E+02    0.92367E+02   -0.58937E+02  6993   0.325E+01    0.204E+01
RMM:   7    -0.445814162941E+02    0.17155E+02    0.36854E+01  8005   0.145E+01    0.692E+00
RMM:   8    -0.570639721465E+02   -0.12483E+02   -0.55693E+01  7182   0.110E+01    0.166E+01
RMM:   9    -0.500781301270E+02    0.69858E+01    0.44484E+00  7803   0.414E+00    0.125E+01
RMM:  10    -0.461004196418E+02    0.39777E+01   -0.24495E+01  6819   0.685E+00    0.369E+00
RMM:  11    -0.461247792007E+02   -0.24360E-01   -0.13360E+00  7860   0.322E+00    0.454E+00
RMM:  12    -0.454927002556E+02    0.63208E+00   -0.42207E-01  8037   0.143E+00    0.187E+00
RMM:  13    -0.454561096726E+02    0.36591E-01   -0.43903E-01  8098   0.111E+00    0.935E-01
RMM:  14    -0.454334723852E+02    0.22637E-01   -0.28640E-04  6879   0.387E-01    0.253E-01
RMM:  15    -0.454347287959E+02   -0.12564E-02   -0.44835E-03  8241   0.177E-01    0.287E-01
RMM:  16    -0.454326562303E+02    0.20726E-02   -0.19060E-03  6850   0.965E-02    0.103E-01
RMM:  17    -0.454326606906E+02   -0.44603E-05   -0.26281E-03  7959   0.885E-02    0.884E-02
RMM:  18    -0.454324635635E+02    0.19713E-03   -0.92550E-04  7610   0.550E-02    0.422E-02
RMM:  19    -0.454324140031E+02    0.49560E-04   -0.99197E-05  7757   0.267E-02    0.217E-02
RMM:  20    -0.454323933704E+02    0.20633E-04    0.25290E-06  6859   0.921E-03    0.673E-03
RMM:  21    -0.454323938938E+02   -0.52345E-06    0.36251E-07  5812   0.359E-03
   2 F= -.49117435E+02 E0= -.49117435E+02  d E =0.155623E+03
       N       E                     dE             d eps       ncg     rms          rms(c)
RMM:   1    -0.196674888667E+03   -0.15124E+03   -0.20569E+03  8138   0.645E+01    0.325E+01
RMM:   2    -0.360977826615E+03   -0.16430E+03   -0.10243E+03  9043   0.422E+01    0.217E+01
RMM:   3    -0.363778512503E+03   -0.28007E+01   -0.26563E+02  6464   0.235E+01    0.248E+01
RMM:   4    -0.340032230776E+03    0.23746E+02   -0.27811E+01  5762   0.826E+00    0.162E+01
RMM:   5    -0.335770730316E+03    0.42615E+01   -0.96056E+01  5724   0.141E+01    0.136E+01
RMM:   6    -0.330461164250E+03    0.53096E+01   -0.44633E+00  5724   0.393E+00    0.548E+00
RMM:   7    -0.331227948250E+03   -0.76678E+00   -0.10656E+01  5724   0.504E+00    0.453E+00
RMM:   8    -0.330265364543E+03    0.96258E+00   -0.18671E+00  5724   0.198E+00    0.664E-01
RMM:   9    -0.330274159140E+03   -0.87946E-02   -0.58871E-02  5724   0.544E-01    0.286E-01
RMM:  10    -0.330275107047E+03   -0.94791E-03   -0.26478E-03  5724   0.148E-01    0.229E-01
RMM:  11    -0.330273504009E+03    0.16030E-02   -0.43595E-03  5724   0.109E-01    0.489E-02
RMM:  12    -0.330273650582E+03   -0.14657E-03   -0.16767E-03  5726   0.636E-02    0.539E-02
RMM:  13    -0.330273541512E+03    0.10907E-03   -0.11686E-04  5724   0.232E-02    0.180E-02
RMM:  14    -0.330273539735E+03    0.17772E-05   -0.73181E-05  5480   0.138E-02    0.753E-03
RMM:  15    -0.330273537219E+03    0.25152E-05   -0.20187E-06  4399   0.343E-03    0.342E-03
RMM:  16    -0.330273536616E+03    0.60320E-06   -0.14107E-06  4216   0.217E-03
   3 F= -.33310821E+03 E0= -.33310821E+03  d E =-.128367E+03
       N       E                     dE             d eps       ncg     rms          rms(c)
RMM:   1    -0.330180329483E+03    0.93208E-01   -0.15903E+02  5724   0.307E+01    0.639E+00
RMM:   2    -0.329299480296E+03    0.88085E+00   -0.63704E+00  5724   0.457E+00    0.222E+00
RMM:   3    -0.329216852264E+03    0.82628E-01   -0.16610E-01  5724   0.100E+00    0.139E+00
RMM:   4    -0.329213238989E+03    0.36133E-02   -0.19537E-01  5724   0.669E-01    0.775E-01
RMM:   5    -0.329187423946E+03    0.25815E-01   -0.28764E-02  5724   0.246E-01    0.115E-01
RMM:   6    -0.329187797545E+03   -0.37360E-03   -0.41092E-03  5724   0.104E-01    0.101E-01
RMM:   7    -0.329187420279E+03    0.37727E-03   -0.34623E-04  5724   0.332E-02    0.234E-02
RMM:   8    -0.329187433968E+03   -0.13689E-04   -0.10955E-04  5724   0.239E-02    0.841E-03
RMM:   9    -0.329187434818E+03   -0.85043E-06   -0.49018E-06  4758   0.494E-03
   4 F= -.33220882E+03 E0= -.33220882E+03  d E =-.127468E+03
       N       E                     dE             d eps       ncg     rms          rms(c)
RMM:   1    -0.330621767781E+03   -0.14343E+01   -0.58458E+01  5724   0.182E+01    0.235E+00
RMM:   2    -0.330494675429E+03    0.12709E+00   -0.94290E-01  5724   0.178E+00    0.117E+00
RMM:   3    -0.330480121654E+03    0.14554E-01   -0.13380E-01  5724   0.626E-01    0.574E-01
RMM:   4    -0.330477870505E+03    0.22511E-02   -0.21467E-02  5724   0.235E-01    0.372E-01
RMM:   5    -0.330474929259E+03    0.29412E-02   -0.38850E-03  5724   0.116E-01    0.958E-02
RMM:   6    -0.330474690928E+03    0.23833E-03   -0.16634E-03  5724   0.594E-02    0.417E-02
RMM:   7    -0.330474654759E+03    0.36169E-04   -0.12023E-04  5724   0.237E-02    0.857E-03
RMM:   8    -0.330474658104E+03   -0.33448E-05   -0.61681E-06  5058   0.596E-03    0.493E-03
RMM:   9    -0.330474659781E+03   -0.16773E-05   -0.62642E-06  5237   0.630E-03    0.371E-03
RMM:  10    -0.330474659169E+03    0.61212E-06   -0.53565E-07  3996   0.158E-03
   5 F= -.33339522E+03 E0= -.33339522E+03  d E =-.128654E+03
       N       E                     dE             d eps       ncg     rms          rms(c)
RMM:   1    -0.330541052945E+03   -0.66393E-01   -0.17587E+00  5724   0.321E+00    0.508E-01
RMM:   2    -0.330534710149E+03    0.63428E-02   -0.28530E-02  5724   0.301E-01    0.186E-01
RMM:   3    -0.330534524511E+03    0.18564E-03   -0.22452E-03  5724   0.940E-02    0.106E-01
RMM:   4    -0.330534474979E+03    0.49532E-04   -0.52109E-04  5724   0.399E-02    0.334E-02
RMM:   5    -0.330534427985E+03    0.46995E-04   -0.10359E-04  5455   0.150E-02    0.970E-03
RMM:   6    -0.330534425151E+03    0.28340E-05   -0.71567E-06  4894   0.528E-03    0.385E-03
RMM:   7    -0.330534425562E+03   -0.41104E-06   -0.95455E-07  3996   0.241E-03
   6 F= -.33343510E+03 E0= -.33343510E+03  d E =-.128694E+03
       N       E                     dE             d eps       ncg     rms          rms(c)
RMM:   1    -0.347037732356E+03   -0.16503E+02   -0.90160E+02  5827   0.763E+01    0.739E+00
RMM:   2    -0.346948984617E+03    0.88748E-01   -0.36667E+01  5724   0.124E+01    0.721E+00
RMM:   3    -0.346103461208E+03    0.84552E+00   -0.11840E+00  5724   0.256E+00    0.593E+00
RMM:   4    -0.345288451325E+03    0.81501E+00   -0.37442E+00  5724   0.302E+00    0.187E+00
RMM:   5    -0.345283602023E+03    0.48493E-02   -0.28055E-01  5724   0.110E+00    0.140E+00
RMM:   6    -0.345217399452E+03    0.66203E-01   -0.29948E-01  5724   0.857E-01    0.519E-01
RMM:   7    -0.345206604823E+03    0.10795E-01   -0.31094E-02  5724   0.334E-01    0.651E-02
RMM:   8    -0.345206629652E+03   -0.24828E-04   -0.89601E-04  5724   0.664E-02    0.396E-02
RMM:   9    -0.345206692678E+03   -0.63026E-04   -0.38655E-04  5724   0.435E-02    0.330E-02
RMM:  10    -0.345206658731E+03    0.33947E-04   -0.26366E-04  5724   0.294E-02    0.176E-02
RMM:  11    -0.345206652499E+03    0.62318E-05   -0.56929E-05  5724   0.148E-02    0.737E-03
RMM:  12    -0.345206650988E+03    0.15112E-05   -0.14084E-05  5506   0.689E-03    0.482E-03
RMM:  13    -0.345206650218E+03    0.77007E-06   -0.93994E-07  3995   0.209E-03
   7 F= -.34781836E+03 E0= -.34781836E+03  d E =-.143833E+02
       N       E                     dE             d eps       ncg     rms          rms(c)
RMM:   1    -0.345205898163E+03    0.75283E-03   -0.51424E-02  5724   0.614E-01    0.772E-02
RMM:   2    -0.345205774051E+03    0.12411E-03   -0.56529E-04  5724   0.492E-02    0.376E-02
RMM:   3    -0.345205758621E+03    0.15429E-04   -0.14535E-04  5724   0.246E-02    0.150E-02
RMM:   4    -0.345205754644E+03    0.39774E-05   -0.11695E-05  5564   0.642E-03    0.654E-03
RMM:   5    -0.345205752928E+03    0.17159E-05   -0.20550E-06  4428   0.290E-03    0.122E-03
RMM:   6    -0.345205753020E+03   -0.91570E-07   -0.27502E-07  3906   0.122E-03
   8 F= -.34781921E+03 E0= -.34781921E+03  d E =-.143841E+02
       N       E                     dE             d eps       ncg     rms          rms(c)
RMM:   1    -0.354604603346E+03   -0.93989E+01   -0.26914E+02  5724   0.449E+01    0.438E+00
RMM:   2    -0.354351522064E+03    0.25308E+00   -0.41476E+00  5724   0.445E+00    0.285E+00
RMM:   3    -0.354188646049E+03    0.16288E+00   -0.37859E-01  5724   0.124E+00    0.115E+00
RMM:   4    -0.354187066164E+03    0.15799E-02   -0.10255E-01  5724   0.585E-01    0.491E-01
RMM:   5    -0.354181350341E+03    0.57158E-02   -0.20556E-02  5724   0.253E-01    0.111E-01
RMM:   6    -0.354181097940E+03    0.25240E-03   -0.10082E-03  5724   0.723E-02    0.745E-02
RMM:   7    -0.354180947455E+03    0.15048E-03   -0.12394E-03  5724   0.582E-02    0.357E-02
RMM:   8    -0.354180917873E+03    0.29582E-04   -0.26435E-04  5724   0.274E-02    0.187E-02
RMM:   9    -0.354180905493E+03    0.12380E-04   -0.52589E-05  5724   0.141E-02    0.422E-03
RMM:  10    -0.354180905219E+03    0.27348E-06   -0.43920E-06  5243   0.446E-03
   9 F= -.35665419E+03 E0= -.35665419E+03  d E =-.883497E+01
       N       E                     dE             d eps       ncg     rms          rms(c)
RMM:   1    -0.360191378603E+03   -0.60105E+01   -0.39209E+02  5724   0.529E+01    0.633E+00
RMM:   2    -0.359748186834E+03    0.44319E+00   -0.81795E+00  5724   0.631E+00    0.377E+00
RMM:   3    -0.359423276639E+03    0.32491E+00   -0.45006E-01  5724   0.147E+00    0.193E+00
RMM:   4    -0.359375918556E+03    0.47358E-01   -0.43864E-01  5724   0.115E+00    0.645E-01
RMM:   5    -0.359363498638E+03    0.12420E-01   -0.32515E-02  5724   0.315E-01    0.169E-01
RMM:   6    -0.359363955148E+03   -0.45651E-03   -0.71180E-03  5724   0.166E-01    0.179E-01
RMM:   7    -0.359362865656E+03    0.10895E-02   -0.62143E-03  5724   0.128E-01    0.573E-02
RMM:   8    -0.359362743229E+03    0.12243E-03   -0.37361E-04  5724   0.369E-02    0.117E-02
RMM:   9    -0.359362745726E+03   -0.24969E-05   -0.26483E-05  5724   0.122E-02    0.652E-03
RMM:  10    -0.359362744193E+03    0.15327E-05   -0.53484E-06  4967   0.447E-03    0.193E-03
RMM:  11    -0.359362744433E+03   -0.23990E-06   -0.13948E-06  4014   0.283E-03
  10 F= -.36182710E+03 E0= -.36182710E+03  d E =-.140079E+02
       N       E                     dE             d eps       ncg     rms          rms(c)
RMM:   1    -0.359842272717E+03   -0.47953E+00   -0.41378E+01  5724   0.182E+01    0.204E+00
RMM:   2    -0.359773895734E+03    0.68377E-01   -0.36160E-01  5724   0.139E+00    0.108E+00
RMM:   3    -0.359750810082E+03    0.23086E-01   -0.78622E-02  5724   0.553E-01    0.289E-01
RMM:   4    -0.359750502283E+03    0.30780E-03   -0.29776E-03  5724   0.118E-01    0.132E-01
RMM:   5    -0.359750468192E+03    0.34091E-04   -0.87378E-04  5724   0.695E-02    0.289E-02
RMM:   6    -0.359750463540E+03    0.46520E-05   -0.13034E-04  5724   0.236E-02    0.134E-02
RMM:   7    -0.359750460401E+03    0.31396E-05   -0.20115E-05  5724   0.920E-03    0.523E-03
RMM:   8    -0.359750461949E+03   -0.15481E-05   -0.12717E-05  5724   0.736E-03    0.562E-03
RMM:   9    -0.359750460891E+03    0.10579E-05   -0.34598E-06  4906   0.360E-03    0.105E-03
RMM:  10    -0.359750460847E+03    0.43409E-07   -0.67311E-07  3937   0.191E-03
  11 F= -.36221645E+03 E0= -.36221645E+03  d E =-.143972E+02
       N       E                     dE             d eps       ncg     rms          rms(c)
RMM:   1    -0.369576022341E+03   -0.98256E+01   -0.33458E+02  5724   0.510E+01    0.634E+00
RMM:   2    -0.368982311359E+03    0.59371E+00   -0.77812E+00  5724   0.602E+00    0.296E+00
RMM:   3    -0.368789945599E+03    0.19237E+00   -0.39227E-01  5724   0.150E+00    0.153E+00
RMM:   4    -0.368754194674E+03    0.35751E-01   -0.24643E-01  5724   0.892E-01    0.500E-01
RMM:   5    -0.368751748784E+03    0.24459E-02   -0.13116E-02  5724   0.231E-01    0.158E-01
RMM:   6    -0.368752403520E+03   -0.65474E-03   -0.55159E-03  5724   0.149E-01    0.136E-01
RMM:   7    -0.368752007897E+03    0.39562E-03   -0.45222E-03  5724   0.113E-01    0.666E-02
RMM:   8    -0.368751826506E+03    0.18139E-03   -0.35903E-04  5724   0.352E-02    0.907E-03
RMM:   9    -0.368751836643E+03   -0.10137E-04   -0.46066E-05  5658   0.149E-02    0.606E-03
RMM:  10    -0.368751835834E+03    0.80876E-06   -0.24889E-06  4474   0.363E-03
  12 F= -.37122921E+03 E0= -.37122921E+03  d E =-.901276E+01
       N       E                     dE             d eps       ncg     rms          rms(c)
RMM:   1    -0.350546239358E+03    0.18206E+02   -0.17515E+03  6266   0.100E+02    0.213E+01
RMM:   2    -0.363855490069E+03   -0.13309E+02   -0.23390E+02  5724   0.282E+01    0.843E+00
RMM:   3    -0.362867068021E+03    0.98842E+00   -0.10725E+01  5724   0.754E+00    0.741E+00
RMM:   4    -0.361677370836E+03    0.11897E+01   -0.11385E+01  5724   0.497E+00    0.466E+00
RMM:   5    -0.361319295790E+03    0.35808E+00   -0.21081E-01  5724   0.110E+00    0.368E+00
RMM:   6    -0.361267489153E+03    0.51807E-01   -0.41930E+00  5724   0.309E+00    0.275E+00
RMM:   7    -0.360938918270E+03    0.32857E+00   -0.27171E-01  5724   0.808E-01    0.669E-01
RMM:   8    -0.360933464496E+03    0.54538E-02   -0.11054E-01  5724   0.528E-01    0.235E-01
RMM:   9    -0.360932067345E+03    0.13972E-02   -0.17481E-03  5724   0.105E-01    0.175E-01
RMM:  10    -0.360931144036E+03    0.92331E-03   -0.32344E-03  5724   0.874E-02    0.225E-02
RMM:  11    -0.360931132795E+03    0.11241E-04   -0.36060E-05  5724   0.168E-02    0.594E-03
RMM:  12    -0.360931133333E+03   -0.53831E-06   -0.43002E-06  4861   0.478E-03
  13 F= -.36373559E+03 E0= -.36373559E+03  d E =-.151913E+01
       N       E                     dE             d eps       ncg     rms          rms(c)
RMM:   1    -0.376076807683E+03   -0.15146E+02   -0.12940E+03  5772   0.880E+01    0.703E+00
RMM:   2    -0.378047841120E+03   -0.19710E+01   -0.67303E+01  5724   0.164E+01    0.802E+00
RMM:   3    -0.377145328304E+03    0.90251E+00   -0.21104E+00  5724   0.348E+00    0.739E+00
RMM:   4    -0.375994253694E+03    0.11511E+01   -0.14109E+01  5724   0.601E+00    0.423E+00
RMM:   5    -0.375783690070E+03    0.21056E+00   -0.25735E-01  5724   0.125E+00    0.365E+00
RMM:   6    -0.375420705252E+03    0.36298E+00   -0.31369E+00  5724   0.297E+00    0.129E+00
RMM:   7    -0.375338811236E+03    0.81894E-01   -0.10142E-01  5724   0.599E-01    0.162E-01
RMM:   8    -0.375341426372E+03   -0.26151E-02   -0.24949E-02  5724   0.287E-01    0.260E-01
RMM:   9    -0.375338891788E+03    0.25346E-02   -0.89057E-03  5724   0.168E-01    0.244E-02
RMM:  10    -0.375338969400E+03   -0.77613E-04   -0.54114E-04  5724   0.500E-02    0.442E-02
RMM:  11    -0.375338889531E+03    0.79870E-04   -0.18142E-04  5724   0.247E-02    0.418E-03
RMM:  12    -0.375338891069E+03   -0.15389E-05   -0.18799E-05  5435   0.870E-03    0.614E-03
RMM:  13    -0.375338890564E+03    0.50534E-06   -0.88079E-06  5149   0.524E-03
  14 F= -.37783675E+03 E0= -.37783675E+03  d E =-.156203E+02
       N       E                     dE             d eps       ncg     rms          rms(c)
RMM:   1    -0.375848362582E+03   -0.50947E+00   -0.80720E+01  5724   0.264E+01    0.246E+00
RMM:   2    -0.375675199755E+03    0.17316E+00   -0.92578E-01  5724   0.225E+00    0.970E-01
RMM:   3    -0.375675184012E+03    0.15743E-04   -0.99988E-02  5724   0.740E-01    0.500E-01
RMM:   4    -0.375673792704E+03    0.13913E-02   -0.12525E-02  5724   0.213E-01    0.173E-01
RMM:   5    -0.375673980312E+03   -0.18761E-03   -0.13295E-03  5724   0.833E-02    0.569E-02
RMM:   6    -0.375674021103E+03   -0.40792E-04   -0.10371E-03  5724   0.570E-02    0.522E-02
RMM:   7    -0.375673933957E+03    0.87146E-04   -0.55748E-04  5724   0.422E-02    0.186E-02
RMM:   8    -0.375673921122E+03    0.12835E-04   -0.25872E-05  5724   0.115E-02    0.596E-03
RMM:   9    -0.375673921415E+03   -0.29246E-06   -0.33184E-06  4585   0.390E-03
  15 F= -.37818777E+03 E0= -.37818777E+03  d E =-.159713E+02
       N       E                     dE             d eps       ncg     rms          rms(c)
RMM:   1    -0.375804165947E+03   -0.13024E+00   -0.97754E+00  5724   0.910E+00    0.696E-01
RMM:   2    -0.375794734855E+03    0.94311E-02   -0.61564E-02  5724   0.634E-01    0.381E-01
RMM:   3    -0.375793974933E+03    0.75992E-03   -0.25575E-02  5724   0.316E-01    0.163E-01
RMM:   4    -0.375793116550E+03    0.85838E-03   -0.26257E-03  5724   0.968E-02    0.901E-02
RMM:   5    -0.375793200796E+03   -0.84246E-04   -0.37120E-04  5724   0.439E-02    0.320E-02
RMM:   6    -0.375793177580E+03    0.23216E-04   -0.25392E-04  5724   0.285E-02    0.170E-02
RMM:   7    -0.375793166996E+03    0.10584E-04   -0.43718E-05  5724   0.128E-02    0.289E-03
RMM:   8    -0.375793166900E+03    0.95453E-07   -0.94203E-07  3991   0.260E-03
  16 F= -.37830059E+03 E0= -.37830059E+03  d E =-.160841E+02
       N       E                     dE             d eps       ncg     rms          rms(c)
RMM:   1    -0.380305230033E+03   -0.45121E+01   -0.11472E+02  5724   0.278E+01    0.239E+00
RMM:   2    -0.380144918093E+03    0.16031E+00   -0.84748E-01  5724   0.236E+00    0.163E+00
RMM:   3    -0.380114907756E+03    0.30010E-01   -0.42460E-01  5724   0.120E+00    0.693E-01
RMM:   4    -0.380096261286E+03    0.18646E-01   -0.13796E-02  5724   0.255E-01    0.357E-01
RMM:   5    -0.380096249303E+03    0.11983E-04   -0.53566E-02  5724   0.425E-01    0.275E-01
RMM:   6    -0.380093188988E+03    0.30603E-02   -0.10277E-02  5724   0.180E-01    0.566E-02
RMM:   7    -0.380093089595E+03    0.99393E-04   -0.38432E-04  5724   0.445E-02    0.276E-02
RMM:   8    -0.380093065885E+03    0.23710E-04   -0.15231E-04  5724   0.223E-02    0.115E-02
RMM:   9    -0.380093064628E+03    0.12567E-05   -0.21232E-05  5724   0.104E-02    0.392E-03
RMM:  10    -0.380093064122E+03    0.50673E-06   -0.26442E-06  4588   0.350E-03
  17 F= -.38258447E+03 E0= -.38258447E+03  d E =-.428388E+01
       N       E                     dE             d eps       ncg     rms          rms(c)
RMM:   1    -0.381252765065E+03   -0.11597E+01   -0.63615E+01  5724   0.209E+01    0.206E+00
RMM:   2    -0.381178951175E+03    0.73814E-01   -0.43900E-01  5724   0.172E+00    0.135E+00
RMM:   3    -0.381164750155E+03    0.14201E-01   -0.31253E-01  5724   0.103E+00    0.630E-01
RMM:   4    -0.381148255466E+03    0.16495E-01   -0.13411E-02  5724   0.242E-01    0.291E-01
RMM:   5    -0.381148332979E+03   -0.77512E-04   -0.39415E-02  5724   0.365E-01    0.237E-01
RMM:   6    -0.381146114784E+03    0.22182E-02   -0.87326E-03  5724   0.166E-01    0.588E-02
RMM:   7    -0.381145976652E+03    0.13813E-03   -0.33644E-04  5724   0.398E-02    0.306E-02
RMM:   8    -0.381145945833E+03    0.30819E-04   -0.16318E-04  5724   0.233E-02    0.803E-03
RMM:   9    -0.381145945440E+03    0.39249E-06   -0.10996E-05  5471   0.791E-03    0.336E-03
RMM:  10    -0.381145944878E+03    0.56230E-06   -0.11245E-06  3996   0.238E-03
  18 F= -.38363458E+03 E0= -.38363458E+03  d E =-.533399E+01
       N       E                     dE             d eps       ncg     rms          rms(c)
RMM:   1    -0.383617479121E+03   -0.24715E+01   -0.48363E+01  5724   0.192E+01    0.243E+00
RMM:   2    -0.383492043835E+03    0.12544E+00   -0.41624E-01  5724   0.168E+00    0.132E+00
RMM:   3    -0.383483161063E+03    0.88828E-02   -0.26881E-01  5724   0.100E+00    0.538E-01
RMM:   4    -0.383479163430E+03    0.39976E-02   -0.64456E-02  5724   0.442E-01    0.429E-01
RMM:   5    -0.383475319960E+03    0.38435E-02   -0.97890E-03  5724   0.183E-01    0.718E-02
RMM:   6    -0.383475462487E+03   -0.14253E-03   -0.30513E-03  5724   0.104E-01    0.668E-02
RMM:   7    -0.383475265389E+03    0.19710E-03   -0.49095E-04  5724   0.423E-02    0.638E-03
RMM:   8    -0.383475269652E+03   -0.42627E-05   -0.40783E-05  5606   0.136E-02    0.698E-03
RMM:   9    -0.383475268857E+03    0.79483E-06   -0.32465E-06  4866   0.537E-03
  19 F= -.38595517E+03 E0= -.38595517E+03  d E =-.232059E+01
       N       E                     dE             d eps       ncg     rms          rms(c)
RMM:   1    -0.384102391370E+03   -0.62712E+00   -0.27444E+01  5724   0.148E+01    0.184E+00
RMM:   2    -0.384038640008E+03    0.63751E-01   -0.22905E-01  5724   0.124E+00    0.103E+00
RMM:   3    -0.384034395206E+03    0.42448E-02   -0.16978E-01  5724   0.796E-01    0.414E-01
RMM:   4    -0.384030642794E+03    0.37524E-02   -0.39385E-02  5724   0.349E-01    0.324E-01
RMM:   5    -0.384028919213E+03    0.17236E-02   -0.52252E-03  5724   0.141E-01    0.501E-02
RMM:   6    -0.384028976088E+03   -0.56875E-04   -0.13510E-03  5724   0.704E-02    0.449E-02
RMM:   7    -0.384028885104E+03    0.90984E-04   -0.23216E-04  5724   0.298E-02    0.497E-03
RMM:   8    -0.384028886595E+03   -0.14917E-05   -0.18325E-05  5447   0.923E-03    0.460E-03
RMM:   9    -0.384028886145E+03    0.45011E-06   -0.19377E-06  4219   0.417E-03
  20 F= -.38650351E+03 E0= -.38650351E+03  d E =-.286893E+01
       N       E                     dE             d eps       ncg     rms          rms(c)
RMM:   1    -0.384638569953E+03   -0.60968E+00   -0.17092E+01  5724   0.120E+01    0.148E+00
RMM:   2    -0.384588619703E+03    0.49950E-01   -0.14563E-01  5724   0.101E+00    0.751E-01
RMM:   3    -0.384584472719E+03    0.41470E-02   -0.73475E-02  5724   0.559E-01    0.273E-01
RMM:   4    -0.384583160195E+03    0.13125E-02   -0.83272E-03  5724   0.179E-01    0.151E-01
RMM:   5    -0.384582911963E+03    0.24823E-03   -0.99727E-04  5724   0.649E-02    0.299E-02
RMM:   6    -0.384582946691E+03   -0.34729E-04   -0.59001E-04  5724   0.474E-02    0.374E-02
RMM:   7    -0.384582892318E+03    0.54373E-04   -0.19972E-04  5724   0.273E-02    0.419E-03
RMM:   8    -0.384582893256E+03   -0.93736E-06   -0.68337E-06  5400   0.651E-03
  21 F= -.38705918E+03 E0= -.38705918E+03  d E =-.555661E+00
       N       E                     dE             d eps       ncg     rms          rms(c)
RMM:   1    -0.384611283157E+03   -0.28391E-01   -0.12216E+00  5724   0.322E+00    0.388E-01
RMM:   2    -0.384608079579E+03    0.32036E-02   -0.97671E-03  5724   0.267E-01    0.202E-01
RMM:   3    -0.384607741527E+03    0.33805E-03   -0.57959E-03  5724   0.156E-01    0.742E-02
RMM:   4    -0.384607632481E+03    0.10905E-03   -0.80692E-04  5724   0.550E-02    0.465E-02
RMM:   5    -0.384607594480E+03    0.38001E-04   -0.10814E-04  5724   0.206E-02    0.804E-03
RMM:   6    -0.384607597514E+03   -0.30347E-05   -0.45160E-05  5724   0.133E-02    0.103E-02
RMM:   7    -0.384607593183E+03    0.43317E-05   -0.14714E-05  5651   0.751E-03    0.101E-03
RMM:   8    -0.384607593307E+03   -0.12441E-06   -0.54075E-07  3873   0.196E-03
  22 F= -.38708439E+03 E0= -.38708439E+03  d E =-.580871E+00
       N       E                     dE             d eps       ncg     rms          rms(c)
RMM:   1    -0.384798530702E+03   -0.19094E+00   -0.16694E+01  5724   0.114E+01    0.144E+00
RMM:   2    -0.384757948021E+03    0.40583E-01   -0.12980E-01  5724   0.955E-01    0.774E-01
RMM:   3    -0.384751603580E+03    0.63444E-02   -0.60636E-02  5724   0.515E-01    0.241E-01
RMM:   4    -0.384750432447E+03    0.11711E-02   -0.52729E-03  5724   0.145E-01    0.118E-01
RMM:   5    -0.384750354460E+03    0.77988E-04   -0.60312E-04  5724   0.539E-02    0.260E-02
RMM:   6    -0.384750366292E+03   -0.11833E-04   -0.33291E-04  5724   0.354E-02    0.317E-02
RMM:   7    -0.384750328191E+03    0.38102E-04   -0.18229E-04  5724   0.255E-02    0.700E-03
RMM:   8    -0.384750327332E+03    0.85867E-06   -0.46263E-06  5193   0.555E-03
  23 F= -.38722939E+03 E0= -.38722939E+03  d E =-.145002E+00
       N       E                     dE             d eps       ncg     rms          rms(c)
RMM:   1    -0.384789565822E+03   -0.39238E-01   -0.15953E+00  5724   0.362E+00    0.428E-01
RMM:   2    -0.384786671151E+03    0.28947E-02   -0.10993E-02  5724   0.290E-01    0.242E-01
RMM:   3    -0.384786090258E+03    0.58089E-03   -0.73381E-03  5724   0.174E-01    0.777E-02
RMM:   4    -0.384785899620E+03    0.19064E-03   -0.95273E-04  5724   0.597E-02    0.491E-02
RMM:   5    -0.384785881832E+03    0.17789E-04   -0.10581E-04  5702   0.216E-02    0.827E-03
RMM:   6    -0.384785885292E+03   -0.34603E-05   -0.45228E-05  5664   0.131E-02    0.120E-02
RMM:   7    -0.384785879768E+03    0.55237E-05   -0.23185E-05  5635   0.916E-03    0.178E-03
RMM:   8    -0.384785879727E+03    0.41341E-07   -0.61838E-07  3937   0.213E-03
  24 F= -.38726418E+03 E0= -.38726418E+03  d E =-.179793E+00
       N       E                     dE             d eps       ncg     rms          rms(c)
RMM:   1    -0.384838003760E+03   -0.52124E-01   -0.73456E-01  5724   0.267E+00    0.336E-01
RMM:   2    -0.384835599354E+03    0.24044E-02   -0.73591E-03  5724   0.234E-01    0.175E-01
RMM:   3    -0.384835477490E+03    0.12186E-03   -0.43912E-03  5724   0.141E-01    0.695E-02
RMM:   4    -0.384835435601E+03    0.41889E-04   -0.99015E-04  5724   0.610E-02    0.531E-02
RMM:   5    -0.384835371706E+03    0.63895E-04   -0.13449E-04  5724   0.229E-02    0.104E-02
RMM:   6    -0.384835371891E+03   -0.18463E-06   -0.47835E-05  5724   0.141E-02    0.613E-03
RMM:   7    -0.384835370663E+03    0.12279E-05   -0.41551E-06  5308   0.466E-03    0.944E-04
RMM:   8    -0.384835370656E+03    0.67298E-08   -0.23395E-07  3784   0.132E-03
  25 F= -.38731336E+03 E0= -.38731336E+03  d E =-.491809E-01
       N       E                     dE             d eps       ncg     rms          rms(c)
RMM:   1    -0.384852809074E+03   -0.17438E-01   -0.64236E-01  5724   0.248E+00    0.315E-01
RMM:   2    -0.384850726663E+03    0.20824E-02   -0.64416E-03  5724   0.218E-01    0.164E-01
RMM:   3    -0.384850618552E+03    0.10811E-03   -0.38750E-03  5724   0.132E-01    0.650E-02
RMM:   4    -0.384850577982E+03    0.40570E-04   -0.86173E-04  5724   0.568E-02    0.496E-02
RMM:   5    -0.384850524172E+03    0.53809E-04   -0.11460E-04  5724   0.212E-02    0.973E-03
RMM:   6    -0.384850524340E+03   -0.16767E-06   -0.41921E-05  5724   0.132E-02    0.581E-03
RMM:   7    -0.384850523221E+03    0.11190E-05   -0.36156E-06  5127   0.435E-03    0.925E-04
RMM:   8    -0.384850523218E+03    0.30805E-08   -0.26148E-07  3767   0.136E-03
  26 F= -.38732824E+03 E0= -.38732824E+03  d E =-.640661E-01
       N       E                     dE             d eps       ncg     rms          rms(c)
RMM:   1    -0.384853372099E+03   -0.28489E-02   -0.13995E+00  5724   0.342E+00    0.263E-01
RMM:   2    -0.384852858165E+03    0.51393E-03   -0.65255E-03  5724   0.215E-01    0.159E-01
RMM:   3    -0.384852468000E+03    0.39016E-03   -0.26155E-03  5724   0.104E-01    0.299E-02
RMM:   4    -0.384852427557E+03    0.40443E-04   -0.60112E-05  5733   0.200E-02    0.155E-02
RMM:   5    -0.384852426811E+03    0.74596E-06   -0.49982E-05  5724   0.146E-02    0.674E-03
RMM:   6    -0.384852426102E+03    0.70898E-06   -0.11026E-05  5647   0.634E-03    0.430E-03
RMM:   7    -0.384852425418E+03    0.68371E-06   -0.30458E-06  4901   0.377E-03
  27 F= -.38732994E+03 E0= -.38732994E+03  d E =-.169418E-02
       N       E                     dE             d eps       ncg     rms          rms(c)
RMM:   1    -0.384857039469E+03   -0.46134E-02   -0.29697E-01  5724   0.157E+00    0.120E-01
RMM:   2    -0.384856947561E+03    0.91908E-04   -0.13738E-03  5724   0.986E-02    0.729E-02
RMM:   3    -0.384856861594E+03    0.85967E-04   -0.56094E-04  5724   0.478E-02    0.143E-02
RMM:   4    -0.384856852682E+03    0.89125E-05   -0.13524E-05  5700   0.946E-03    0.716E-03
RMM:   5    -0.384856852009E+03    0.67283E-06   -0.11278E-05  5690   0.691E-03    0.317E-03
RMM:   6    -0.384856851664E+03    0.34500E-06   -0.21755E-06  4056   0.296E-03
  28 F= -.38733446E+03 E0= -.38733446E+03  d E =-.621268E-02
       N       E                     dE             d eps       ncg     rms          rms(c)
RMM:   1    -0.384859769162E+03   -0.29172E-02   -0.58053E-02  5724   0.752E-01    0.115E-01
RMM:   2    -0.384859392830E+03    0.37633E-03   -0.65636E-04  5724   0.691E-02    0.543E-02
RMM:   3    -0.384859367592E+03    0.25238E-04   -0.51381E-04  5724   0.463E-02    0.214E-02
RMM:   4    -0.384859364923E+03    0.26696E-05   -0.11397E-04  5724   0.206E-02    0.177E-02
RMM:   5    -0.384859355504E+03    0.94183E-05   -0.19169E-05  5724   0.832E-03    0.306E-03
RMM:   6    -0.384859355651E+03   -0.14679E-06   -0.51988E-06  5400   0.478E-03
  29 F= -.38733697E+03 E0= -.38733697E+03  d E =-.251335E-02
       N       E                     dE             d eps       ncg     rms          rms(c)
RMM:   1    -0.384859462183E+03   -0.10668E-03   -0.28175E-03  5724   0.165E-01    0.251E-02
RMM:   2    -0.384859444188E+03    0.17995E-04   -0.31366E-05  5724   0.152E-02    0.119E-02
RMM:   3    -0.384859442977E+03    0.12112E-05   -0.25301E-05  5724   0.103E-02    0.471E-03
RMM:   4    -0.384859442801E+03    0.17617E-06   -0.54525E-06  5547   0.451E-03
  30 F= -.38733706E+03 E0= -.38733706E+03  d E =-.260288E-02
