       N       E                     dE             d eps       ncg     rms          rms(c)
DAV:   1     0.449194420965E+03    0.44919E+03   -0.54122E+04  5724   0.109E+03
DAV:   2    -0.346792135923E+03   -0.79599E+03   -0.77486E+03  6874   0.213E+02
DAV:   3    -0.430911635624E+03   -0.84119E+02   -0.83629E+02  7384   0.683E+01
DAV:   4    -0.433384340024E+03   -0.24727E+01   -0.24694E+01  7144   0.139E+01
DAV:   5    -0.433447301550E+03   -0.62962E-01   -0.62947E-01  7294   0.203E+00    0.328E+01
DAV:   6    -0.390619746883E+03    0.42828E+02   -0.87470E+01  6312   0.201E+01    0.139E+01
DAV:   7    -0.385962655950E+03    0.46571E+01   -0.11159E+01  6744   0.764E+00    0.806E+00
DAV:   8    -0.384871277706E+03    0.10914E+01   -0.34745E+00  6558   0.452E+00    0.272E+00
DAV:   9    -0.384734431161E+03    0.13685E+00   -0.23180E-01  7064   0.113E+00    0.923E-01
DAV:  10    -0.384753951493E+03   -0.19520E-01   -0.23642E-01  6094   0.106E+00    0.524E-01
DAV:  11    -0.384748206797E+03    0.57447E-02   -0.30048E-02  6592   0.357E-01    0.983E-02
DAV:  12    -0.384748561770E+03   -0.35497E-03   -0.22543E-03  6780   0.132E-01    0.565E-02
DAV:  13    -0.384748529146E+03    0.32624E-04   -0.30416E-04  6390   0.426E-02    0.241E-02
DAV:  14    -0.384748539825E+03   -0.10679E-04   -0.14548E-04  6788   0.290E-02    0.102E-02
DAV:  15    -0.384748538108E+03    0.17172E-05   -0.11594E-05  7118   0.773E-03    0.267E-03
DAV:  16    -0.384748537778E+03    0.33036E-06   -0.60759E-07  4390   0.248E-03
   1 F= -.38711902E+03 E0= -.38711902E+03  d E =-.387119E+03
       N       E                     dE             d eps       ncg     rms          rms(c)
DAV:   1    -0.385014744902E+03   -0.26621E+00   -0.10358E+01  5892   0.981E+00    0.186E+00
DAV:   2    -0.384902883389E+03    0.11186E+00   -0.22543E-01  6740   0.130E+00    0.850E-01
DAV:   3    -0.384894557718E+03    0.83257E-02   -0.19817E-01  6710   0.930E-01    0.397E-01
DAV:   4    -0.384890978255E+03    0.35795E-02   -0.88700E-03  6380   0.224E-01    0.272E-01
DAV:   5    -0.384890129779E+03    0.84848E-03   -0.42484E-03  6968   0.148E-01    0.102E-01
DAV:   6    -0.384889756176E+03    0.37360E-03   -0.21780E-03  6278   0.993E-02    0.598E-02
DAV:   7    -0.384889712010E+03    0.44166E-04   -0.69479E-05  6496   0.230E-02    0.348E-02
DAV:   8    -0.384889705459E+03    0.65506E-05   -0.62197E-06  7300   0.712E-03    0.287E-02
DAV:   9    -0.384889703552E+03    0.19076E-05   -0.40953E-06  6634   0.615E-03    0.271E-02
DAV:  10    -0.384889688576E+03    0.14976E-04   -0.55994E-05  6166   0.180E-02    0.621E-03
DAV:  11    -0.384889688929E+03   -0.35331E-06   -0.20662E-06  4788   0.444E-03
   2 F= -.38725112E+03 E0= -.38725112E+03  d E =-.132096E+00
       N       E                     dE             d eps       ncg     rms          rms(c)
DAV:   1    -0.384953077490E+03   -0.63389E-01   -0.12171E+00  5904   0.335E+00    0.661E-01
DAV:   2    -0.384938728016E+03    0.14349E-01   -0.27809E-02  6706   0.443E-01    0.285E-01
DAV:   3    -0.384937687509E+03    0.10405E-02   -0.21555E-02  6780   0.308E-01    0.126E-01
DAV:   4    -0.384937356068E+03    0.33144E-03   -0.88702E-04  6456   0.712E-02    0.894E-02
DAV:   5    -0.384937210254E+03    0.14581E-03   -0.42222E-04  6946   0.470E-02    0.325E-02
DAV:   6    -0.384937177662E+03    0.32592E-04   -0.24455E-04  6274   0.331E-02    0.205E-02
DAV:   7    -0.384937174401E+03    0.32607E-05   -0.88423E-06  6498   0.812E-03    0.112E-02
DAV:   8    -0.384937174276E+03    0.12526E-06   -0.69078E-07  4112   0.259E-03
   3 F= -.38730164E+03 E0= -.38730164E+03  d E =-.182613E+00
       N       E                     dE             d eps       ncg     rms          rms(c)
DAV:   1    -0.384937115750E+03    0.58651E-04   -0.21520E-02  5846   0.445E-01    0.297E-02
DAV:   2    -0.384937150669E+03   -0.34919E-04   -0.49882E-04  7026   0.619E-02    0.278E-02
DAV:   3    -0.384937140624E+03    0.10046E-04   -0.20713E-05  7134   0.151E-02    0.124E-02
DAV:   4    -0.384937140061E+03    0.56231E-06   -0.82922E-06  6426   0.806E-03
   4 F= -.38730160E+03 E0= -.38730160E+03  d E =0.406779E-04
       N       E                     dE             d eps       ncg     rms          rms(c)
DAV:   1    -0.384937260058E+03   -0.11943E-03   -0.64640E-03  5850   0.244E-01    0.166E-02
DAV:   2    -0.384937270249E+03   -0.10191E-04   -0.15301E-04  6986   0.343E-02    0.156E-02
DAV:   3    -0.384937266864E+03    0.33848E-05   -0.72175E-06  6784   0.886E-03    0.638E-03
DAV:   4    -0.384937266735E+03    0.12937E-06   -0.23950E-06  4006   0.427E-03
   5 F= -.38730173E+03 E0= -.38730173E+03  d E =-.894669E-04
