 vasp.5.3.5 31Mar14 (build Nov 02 2014 15:17:37) complex                        
  
 executed on        ion-Intel-MKL date 2017.06.28  14:59:49
 running on    4 total cores
 distrk:  each k-point on    4 cores,    1 groups
 distr:  one band on NCORES_PER_BAND=   2 cores,    2 groups


--------------------------------------------------------------------------------------------------------


 INCAR:
 POTCAR:  PAW_PBE H 15Jun2001                     
 POTCAR:  PAW_PBE C 08Apr2002                     
 POTCAR:  PAW_PBE H 15Jun2001                     
   VRHFIN =H: ultrasoft test                                                    
   LEXCH  = PE                                                                  
   EATOM  =    12.4884 eV,     .9179 Ry                                         
                                                                                
   TITEL  = PAW_PBE H 15Jun2001                                                 
   LULTRA =        F    use ultrasoft PP ?                                      
   IUNSCR =        0    unscreen: 0-lin 1-nonlin 2-no                           
   RPACOR =     .000    partial core radius                                     
   POMASS =    1.000; ZVAL   =    1.000    mass and valenz                      
   RCORE  =    1.100    outmost cutoff radius                                   
   RWIGS  =     .700; RWIGS  =     .370    wigner-seitz radius (au A)           
   ENMAX  =  250.000; ENMIN  =  200.000 eV                                      
   RCLOC  =     .701    cutoff for local pot                                    
   LCOR   =        T    correct aug charges                                     
   LPAW   =        T    paw PP                                                  
   EAUG   =  400.000                                                            
   RMAX   =    2.174    core radius for proj-oper                               
   RAUG   =    1.200    factor for augmentation sphere                          
   RDEP   =    1.112    radius for radial grids                                 
   QCUT   =   -5.749; QGAM   =   11.498    optimization parameters              
                                                                                
   Description                                                                  
     l     E      TYP  RCUT    TYP  RCUT                                        
     0   .000     23  1.100                                                     
     0   .500     23  1.100                                                     
     1  -.300     23  1.100                                                     
  local pseudopotential read in
  atomic valenz-charges read in
  non local Contribution for L=           0  read in
    real space projection operators read in
  non local Contribution for L=           0  read in
    real space projection operators read in
  non local Contribution for L=           1  read in
    real space projection operators read in
    PAW grid and wavefunctions read in
 
   number of l-projection  operators is LMAX  =           3
   number of lm-projection operators is LMMAX =           5
 
 POTCAR:  PAW_PBE C 08Apr2002                     
   VRHFIN =C: s2p2                                                              
   LEXCH  = PE                                                                  
   EATOM  =   147.1560 eV,   10.8157 Ry                                         
                                                                                
   TITEL  = PAW_PBE C 08Apr2002                                                 
   LULTRA =        F    use ultrasoft PP ?                                      
   IUNSCR =        0    unscreen: 0-lin 1-nonlin 2-no                           
   RPACOR =     .000    partial core radius                                     
   POMASS =   12.011; ZVAL   =    4.000    mass and valenz                      
   RCORE  =    1.500    outmost cutoff radius                                   
   RWIGS  =    1.630; RWIGS  =     .863    wigner-seitz radius (au A)           
   ENMAX  =  400.000; ENMIN  =  300.000 eV                                      
   ICORE  =        2    local potential                                         
   LCOR   =        T    correct aug charges                                     
   LPAW   =        T    paw PP                                                  
   EAUG   =  644.873                                                            
   DEXC   =     .000                                                            
   RMAX   =    2.266    core radius for proj-oper                               
   RAUG   =    1.300    factor for augmentation sphere                          
   RDEP   =    1.501    radius for radial grids                                 
   RDEPT  =    1.300    core radius for aug-charge                              
   QCUT   =   -5.516; QGAM   =   11.032    optimization parameters              
                                                                                
   Description                                                                  
     l     E      TYP  RCUT    TYP  RCUT                                        
     0   .000     23  1.200                                                     
     0   .000     23  1.200                                                     
     1   .000     23  1.500                                                     
     1  2.500     23  1.500                                                     
     2   .000      7  1.500                                                     
  local pseudopotential read in
  atomic valenz-charges read in
  non local Contribution for L=           0  read in
    real space projection operators read in
  non local Contribution for L=           0  read in
    real space projection operators read in
  non local Contribution for L=           1  read in
    real space projection operators read in
  non local Contribution for L=           1  read in
    real space projection operators read in
    PAW grid and wavefunctions read in
 
   number of l-projection  operators is LMAX  =           4
   number of lm-projection operators is LMMAX =           8
 

 ----------------------------------------------------------------------------- 
|                                                                             |
|  ADVICE TO THIS USER RUNNING 'VASP/VAMP'   (HEAR YOUR MASTER'S VOICE ...):  |
|                                                                             |
|      You have a (more or less) 'large supercell' and for larger cells       |
|      it might be more efficient to use real space projection operators      |
|      So try LREAL= Auto  in the INCAR   file.                               |
|      Mind: If you want to do a very accurate calculations keep the          |
|      reciprocal projection scheme          (i.e. LREAL=.FALSE.)             |
|                                                                             |
 ----------------------------------------------------------------------------- 

PAW_PBE H 15Jun2001                     :
 energy of atom  1       EATOM=  -12.4884
 kinetic energy error for atom=    0.0004 (will be added to EATOM!!)
PAW_PBE C 08Apr2002                     :
 energy of atom  2       EATOM= -147.1560
 kinetic energy error for atom=    0.0057 (will be added to EATOM!!)
 
 
 POSCAR: methane-low                             
  positions in direct lattice
  velocities in cartesian coordinates
 exchange correlation table for  LEXCH =        8
   RHO(1)=    0.500       N(1)  =     2000
   RHO(2)=  100.500       N(2)  =     4000
 


--------------------------------------------------------------------------------------------------------


 ion  position               nearest neighbor table
   1  0.075  0.779  0.262-  68 1.11
   2  0.925  0.221  0.738-  67 1.11
   3  0.925  0.721  0.762-  66 1.11
   4  0.075  0.279  0.238-  65 1.11
   5  0.925  0.279  0.238-  65 1.11
   6  0.075  0.721  0.762-  66 1.11
   7  0.075  0.221  0.738-  67 1.11
   8  0.925  0.779  0.262-  68 1.11
   9  0.575  0.279  0.262-  72 1.11
  10  0.425  0.721  0.738-  71 1.11
  11  0.425  0.221  0.762-  70 1.11
  12  0.575  0.779  0.238-  69 1.11
  13  0.425  0.779  0.238-  69 1.11
  14  0.575  0.221  0.762-  70 1.11
  15  0.575  0.721  0.738-  71 1.11
  16  0.425  0.279  0.262-  72 1.11
  17  0.803  0.582  0.932-  73 1.11
  18  0.197  0.418  0.068-  74 1.11
  19  0.197  0.918  0.432-  75 1.11
  20  0.803  0.082  0.568-  76 1.11
  21  0.197  0.082  0.568-  75 1.11
  22  0.803  0.918  0.432-  76 1.11
  23  0.803  0.418  0.068-  73 1.11
  24  0.197  0.582  0.932-  74 1.11
  25  0.303  0.082  0.932-  77 1.11
  26  0.697  0.918  0.068-  78 1.11
  27  0.697  0.418  0.432-  79 1.11
  28  0.303  0.582  0.568-  80 1.11
  29  0.697  0.582  0.568-  79 1.11
  30  0.303  0.418  0.432-  80 1.11
  31  0.303  0.918  0.068-  77 1.11
  32  0.697  0.082  0.932-  78 1.11
  33  0.697  0.569  0.082-  73 1.11
  34  0.303  0.431  0.918-  74 1.11
  35  0.303  0.931  0.582-  75 1.11
  36  0.697  0.069  0.418-  76 1.11
  37  0.303  0.069  0.418-  75 1.11
  38  0.697  0.931  0.582-  76 1.11
  39  0.697  0.431  0.918-  73 1.11
  40  0.303  0.569  0.082-  74 1.11
  41  0.197  0.069  0.082-  77 1.11
  42  0.803  0.931  0.918-  78 1.11
  43  0.803  0.431  0.582-  79 1.11
  44  0.197  0.569  0.418-  80 1.11
  45  0.803  0.569  0.418-  79 1.11
  46  0.197  0.431  0.582-  80 1.11
  47  0.197  0.931  0.918-  77 1.11
  48  0.803  0.069  0.082-  78 1.11
  49  0.000  0.601  0.207-  68 1.11
  50  0.000  0.399  0.793-  67 1.11
  51  0.000  0.899  0.707-  66 1.11
  52  0.000  0.101  0.293-  65 1.11
  53  0.500  0.101  0.207-  72 1.11
  54  0.500  0.899  0.793-  71 1.11
  55  0.500  0.399  0.707-  70 1.11
  56  0.500  0.601  0.293-  69 1.11
  57  0.000  0.228  0.924-  67 1.11
  58  0.000  0.772  0.076-  68 1.11
  59  0.000  0.272  0.424-  65 1.11
  60  0.000  0.728  0.576-  66 1.11
  61  0.500  0.728  0.924-  71 1.11
  62  0.500  0.272  0.076-  72 1.11
  63  0.500  0.772  0.424-  69 1.11
  64  0.500  0.228  0.576-  70 1.11
  65  0.000  0.233  0.298-  52 1.11  59 1.11   5 1.11   4 1.11
  66  0.000  0.767  0.702-  51 1.11  60 1.11   3 1.11   6 1.11
  67  0.000  0.267  0.798-  50 1.11  57 1.11   2 1.11   7 1.11
  68  0.000  0.733  0.202-  49 1.11  58 1.11   8 1.11   1 1.11
  69  0.500  0.733  0.298-  56 1.11  63 1.11  12 1.11  13 1.11
  70  0.500  0.267  0.702-  55 1.11  64 1.11  14 1.11  11 1.11
  71  0.500  0.767  0.798-  54 1.11  61 1.11  15 1.11  10 1.11
  72  0.500  0.233  0.202-  53 1.11  62 1.11   9 1.11  16 1.11
  73  0.750  0.500  0.000-  17 1.11  23 1.11  33 1.11  39 1.11
  74  0.250  0.500  0.000-  18 1.11  24 1.11  34 1.11  40 1.11
  75  0.250  0.000  0.500-  19 1.11  21 1.11  35 1.11  37 1.11
  76  0.750  0.000  0.500-  20 1.11  22 1.11  38 1.11  36 1.11
  77  0.250  0.000  0.000-  25 1.11  31 1.11  47 1.11  41 1.11
  78  0.750  0.000  0.000-  26 1.11  32 1.11  42 1.11  48 1.11
  79  0.750  0.500  0.500-  27 1.11  29 1.11  43 1.11  45 1.11
  80  0.250  0.500  0.500-  28 1.11  30 1.11  44 1.11  46 1.11
 
  LATTYP: Found a simple orthorhombic cell.
 ALAT       =     8.4483872133
 B/A-ratio  =     1.0006230659
 C/A-ratio  =     1.4305490624
  
  Lattice vectors:
  
 A1 = (   0.0000000000,   0.0000000000,  -8.4483872133)
 A2 = (   0.0000000000,  -8.4536511157,   0.0000000000)
 A3 = ( -12.0858324072,   0.0000000000,   0.0000000000)


Analysis of symmetry for initial positions (statically):
=====================================================================
 Subroutine PRICEL returns following result:
 
  LATTYP: Found a base centered orthorhombic cell.
 ALAT       =     8.4536511157
 B/A-ratio  =     1.4296582910
 C/A-ratio  =     0.9993773220
  
  Lattice vectors:
  
 A1 = (   6.0429162036,  -4.2268255579,   0.0000000000)
 A2 = (  -6.0429162036,  -4.2268255579,   0.0000000000)
 A3 = (   0.0000000000,   0.0000000000,  -8.4483872133)
 
   2 primitive cells build up your supercell.
 

 Routine SETGRP: Setting up the symmetry group for a 
 simple orthorhombic supercell.


 Subroutine GETGRP returns: Found  8 space group operations
 (whereof  4 operations were pure point group operations)
 out of a pool of  8 trial point group operations.


The static configuration has the point symmetry C_2h.
 The point group associated with its full space group is D_2h.


Analysis of symmetry for dynamics (positions and initial velocities):
=====================================================================
 Subroutine PRICEL returns following result:
 
  LATTYP: Found a base centered orthorhombic cell.
 ALAT       =     8.4536511157
 B/A-ratio  =     1.4296582910
 C/A-ratio  =     0.9993773220
  
  Lattice vectors:
  
 A1 = (   6.0429162036,  -4.2268255579,   0.0000000000)
 A2 = (  -6.0429162036,  -4.2268255579,   0.0000000000)
 A3 = (   0.0000000000,   0.0000000000,  -8.4483872133)
 
   2 primitive cells build up your supercell.
 

 Routine SETGRP: Setting up the symmetry group for a 
 simple orthorhombic supercell.


 Subroutine GETGRP returns: Found  8 space group operations
 (whereof  4 operations were pure point group operations)
 out of a pool of  8 trial point group operations.


The dynamic configuration has the point symmetry C_2h.
 The point group associated with its full space group is D_2h.
 
 
 KPOINTS: B4C B11C-CBC                            

Automatic generation of k-mesh.
Space group operators:
 irot       det(A)        alpha          n_x          n_y          n_z        tau_x        tau_y        tau_z
    1     1.000000     0.000001     1.000000     0.000000     0.000000     0.000000     0.000000     0.000000
    2    -1.000000     0.000001     1.000000     0.000000     0.000000     0.000000     0.000000     0.000000
    3     1.000000   179.999999     1.000000     0.000000     0.000000     0.000000     0.000000     0.000000
    4    -1.000000   179.999999     1.000000     0.000000     0.000000     0.000000     0.000000     0.000000
    5     1.000000   179.999999     0.000000     1.000000     0.000000    -0.000000    -0.500000    -0.500000
    6    -1.000000   179.999999     0.000000     1.000000     0.000000     0.000000    -0.500000    -0.500000
    7     1.000000   180.000000     0.000000     0.000000     1.000000    -0.000000    -0.500000    -0.500000
    8    -1.000000   180.000000     0.000000     0.000000     1.000000     0.000000    -0.500000    -0.500000
 
 Subroutine IBZKPT returns following result:
 ===========================================
 
 Found     27 irreducible k-points:
 
 Following reciprocal coordinates:
            Coordinates               Weight
  0.000000  0.000000  0.000000      1.000000
  0.250000  0.000000  0.000000      2.000000
  0.500000  0.000000  0.000000      1.000000
  0.000000  0.250000  0.000000      2.000000
  0.250000  0.250000  0.000000      4.000000
  0.500000  0.250000  0.000000      2.000000
  0.000000  0.500000  0.000000      1.000000
  0.250000  0.500000  0.000000      2.000000
  0.500000  0.500000  0.000000      1.000000
  0.000000  0.000000  0.250000      2.000000
  0.250000  0.000000  0.250000      4.000000
  0.500000  0.000000  0.250000      2.000000
  0.000000  0.250000  0.250000      4.000000
  0.250000  0.250000  0.250000      8.000000
  0.500000  0.250000  0.250000      4.000000
  0.000000  0.500000  0.250000      2.000000
  0.250000  0.500000  0.250000      4.000000
  0.500000  0.500000  0.250000      2.000000
  0.000000  0.000000  0.500000      1.000000
  0.250000  0.000000  0.500000      2.000000
  0.500000  0.000000  0.500000      1.000000
  0.000000  0.250000  0.500000      2.000000
  0.250000  0.250000  0.500000      4.000000
  0.500000  0.250000  0.500000      2.000000
  0.000000  0.500000  0.500000      1.000000
  0.250000  0.500000  0.500000      2.000000
  0.500000  0.500000  0.500000      1.000000
 
 Following cartesian coordinates:
            Coordinates               Weight
  0.000000  0.000000  0.000000      1.000000
  0.021353  0.000000  0.000000      2.000000
  0.042706  0.000000  0.000000      1.000000
  0.000000  0.030528  0.000000      2.000000
  0.021353  0.030528  0.000000      4.000000
  0.042706  0.030528  0.000000      2.000000
  0.000000  0.061055  0.000000      1.000000
  0.021353  0.061055  0.000000      2.000000
  0.042706  0.061055  0.000000      1.000000
  0.000000  0.000000  0.030547      2.000000
  0.021353  0.000000  0.030547      4.000000
  0.042706  0.000000  0.030547      2.000000
  0.000000  0.030528  0.030547      4.000000
  0.021353  0.030528  0.030547      8.000000
  0.042706  0.030528  0.030547      4.000000
  0.000000  0.061055  0.030547      2.000000
  0.021353  0.061055  0.030547      4.000000
  0.042706  0.061055  0.030547      2.000000
  0.000000  0.000000  0.061093      1.000000
  0.021353  0.000000  0.061093      2.000000
  0.042706  0.000000  0.061093      1.000000
  0.000000  0.030528  0.061093      2.000000
  0.021353  0.030528  0.061093      4.000000
  0.042706  0.030528  0.061093      2.000000
  0.000000  0.061055  0.061093      1.000000
  0.021353  0.061055  0.061093      2.000000
  0.042706  0.061055  0.061093      1.000000
 
 TETIRR: Found    192 inequivalent tetrahedra from      384


--------------------------------------------------------------------------------------------------------




 Dimension of arrays:
   k-points           NKPTS =     27   k-points in BZ     NKDIM =     27   number of bands    NBANDS=    106
   number of dos      NEDOS =    301   number of ions     NIONS =     80
   non local maximal  LDIM  =      4   non local SUM 2l+1 LMDIM =      8
   total plane-waves  NPLWV = 209952
   max r-space proj   IRMAX =      1   max aug-charges    IRDMAX=   3070
   dimension x,y,z NGX =    72 NGY =   54 NGZ =   54
   dimension x,y,z NGXF=   144 NGYF=  108 NGZF=  108
   support grid    NGXF=   144 NGYF=  108 NGZF=  108
   ions per type =              64  16
 NGX,Y,Z   is equivalent  to a cutoff of   9.90, 10.62, 10.63 a.u.
 NGXF,Y,Z  is equivalent  to a cutoff of  19.81, 21.24, 21.25 a.u.


 I would recommend the setting:
   dimension x,y,z NGX =    72 NGY =   51 NGZ =   51
 SYSTEM =  diamond                                 
 POSCAR =  methane-low                             

 Startparameter for this run:
   NWRITE =      2    write-flag & timer
   PREC   = normal    normal or accurate (medium, high low for compatibility)
   ISTART =      0    job   : 0-new  1-cont  2-samecut
   ICHARG =      2    charge: 1-file 2-atom 10-const
   ISPIN  =      1    spin polarized calculation?
   LNONCOLLINEAR =      F non collinear calculations
   LSORBIT =      F    spin-orbit coupling
   INIWAV =      1    electr: 0-lowe 1-rand  2-diag
   LASPH  =      F    aspherical Exc in radial PAW
   METAGGA=      F    non-selfconsistent MetaGGA calc.

 Electronic Relaxation 1
   ENCUT  =  600.0 eV  44.10 Ry    6.64 a.u.  24.14 16.88 16.87*2*pi/ulx,y,z
   ENINI  =  600.0     initial cutoff
   ENAUG  =  644.9 eV  augmentation charge cutoff
   NELM   =    200;   NELMIN=  2; NELMDL=  0     # of ELM steps 
   EDIFF  = 0.1E-05   stopping-criterion for ELM
   LREAL  =      F    real-space projection
   NLSPLINE    = F    spline interpolate recip. space projectors
   LCOMPAT=      F    compatible to vasp.4.4
   GGA_COMPAT  = T    GGA compatible to vasp.4.4-vasp.4.6
   LMAXPAW     = -100 max onsite density
   LMAXMIX     =    2 max onsite mixed and CHGCAR
   VOSKOWN=      0    Vosko Wilk Nusair interpolation
   ROPT   =    0.00000   0.00000
 Ionic relaxation
   EDIFFG = 0.1E-03   stopping-criterion for IOM
   NSW    =    200    number of steps for IOM
   NBLOCK =      1;   KBLOCK =    200    inner block; outer block 
   IBRION =      2    ionic relax: 0-MD 1-quasi-New 2-CG
   NFREE  =      1    steps in history (QN), initial steepest desc. (CG)
   ISIF   =      2    stress and relaxation
   IWAVPR =     11    prediction:  0-non 1-charg 2-wave 3-comb
   ISYM   =      2    0-nonsym 1-usesym 2-fastsym
   LCORR  =      T    Harris-Foulkes like correction to forces

   POTIM  = 0.5000    time-step for ionic-motion
   TEIN   =    0.0    initial temperature
   TEBEG  =    0.0;   TEEND  =   0.0 temperature during run
   SMASS  =  -3.00    Nose mass-parameter (am)
   estimated Nose-frequenzy (Omega)   =  0.10E-29 period in steps =****** mass=  -0.334E-26a.u.
   SCALEE = 1.0000    scale energy and forces
   NPACO  =    256;   APACO  = 16.0  distance and # of slots for P.C.
   PSTRESS=    0.0 pullay stress

  Mass of Ions in am
   POMASS =   1.00 12.01
  Ionic Valenz
   ZVAL   =   1.00  4.00
  Atomic Wigner-Seitz radii
   RWIGS  =  -1.00 -1.00
  virtual crystal weights 
   VCA    =   1.00  1.00
   NELECT =     128.0000    total number of electrons
   NUPDOWN=      -1.0000    fix difference up-down

 DOS related values:
   EMIN   =  10.00;   EMAX   =-10.00  energy-range for DOS
   EFERMI =   0.00
   ISMEAR =    -5;   SIGMA  =   0.20  broadening in eV -4-tet -1-fermi 0-gaus

 Electronic relaxation 2 (details)
   IALGO  =     38    algorithm
   LDIAG  =      T    sub-space diagonalisation (order eigenvalues)
   LSUBROT=      F    optimize rotation matrix (better conditioning)
   TURBO    =      0    0=normal 1=particle mesh
   IRESTART =      0    0=no restart 2=restart with 2 vectors
   NREBOOT  =      0    no. of reboots
   NMIN     =      0    reboot dimension
   EREF     =   0.00    reference energy to select bands
   IMIX   =      4    mixing-type and parameters
     AMIX     =   0.40;   BMIX     =  1.00
     AMIX_MAG =   1.60;   BMIX_MAG =  1.00
     AMIN     =   0.10
     WC   =   100.;   INIMIX=   1;  MIXPRE=   1;  MAXMIX= -45

 Intra band minimization:
   WEIMIN = 0.0010     energy-eigenvalue tresh-hold
   EBREAK =  0.24E-08  absolut break condition
   DEPER  =   0.30     relativ break condition  

   TIME   =   0.40     timestep for ELM

  volume/ion in A,a.u.               =      10.79        72.81
  Fermi-wavevector in a.u.,A,eV,Ry     =   0.866523  1.637490 10.216091  0.750862
  Thomas-Fermi vector in A             =   1.984924
 
 Write flags
   LWAVE  =      F    write WAVECAR
   LCHARG =      F    write CHGCAR
   LVTOT  =      F    write LOCPOT, total local potential
   LVHAR  =      F    write LOCPOT, Hartree potential only
   LELF   =      F    write electronic localiz. function (ELF)
   LORBIT =      0    0 simple, 1 ext, 2 COOP (PROOUT)


 Dipole corrections
   LMONO  =      F    monopole corrections only (constant potential shift)
   LDIPOL =      F    correct potential (dipole corrections)
   IDIPOL =      0    1-x, 2-y, 3-z, 4-all directions 
   EPSILON=  1.0000000 bulk dielectric constant

 Exchange correlation treatment:
   GGA     =    --    GGA type
   LEXCH   =     8    internal setting for exchange type
   VOSKOWN=      0    Vosko Wilk Nusair interpolation
   LHFCALC =     F    Hartree Fock is set to
   LHFONE  =     F    Hartree Fock one center treatment
   AEXX    =    0.0000 exact exchange contribution

 Linear response parameters
   LEPSILON=     F    determine dielectric tensor
   LRPA    =     F    only Hartree local field effects (RPA)
   LNABLA  =     F    use nabla operator in PAW spheres
   LVEL    =     F    velocity operator in full k-point grid
   LINTERFAST=   F  fast interpolation
   KINTER  =     0    interpolate to denser k-point grid
   CSHIFT  =0.1000    complex shift for real part using Kramers Kronig
   OMEGAMAX=  -1.0    maximum frequency
   DEG_THRESHOLD= 0.2000000E-02 threshold for treating states as degnerate
   RTIME   =    0.100 relaxation time in fs

 Orbital magnetization related:
   ORBITALMAG=     F  switch on orbital magnetization
   LCHIMAG   =     F  perturbation theory with respect to B field
   DQ        =  0.001000  dq finite difference perturbation B field



--------------------------------------------------------------------------------------------------------


 conjugate gradient relaxation of ions
 charge density and potential will be updated during run
 non-spin polarized calculation
 Variant of blocked Davidson
 Davidson routine will perform the subspace rotation
 perform sub-space diagonalisation
    after iterative eigenvector-optimisation
 modified Broyden-mixing scheme, WC =      100.0
 initial mixing is a Kerker type mixing with AMIX =  0.4000 and BMIX =      1.0000
 Hartree-type preconditioning will be used
 using additional bands           42
 reciprocal scheme for non local part
 calculate Harris-corrections to forces 
   (improved forces if not selfconsistent)
 use gradient corrections 
 use of overlap-Matrix (Vanderbilt PP)
 Fermi weights with tetrahedron method with Bloechl corrections


--------------------------------------------------------------------------------------------------------


  energy-cutoff  :      600.00
  volume of cell :      863.17
      direct lattice vectors                 reciprocal lattice vectors
    12.085832407  0.000000000  0.000000000     0.082741508  0.000000000  0.000000000
     0.000000000  8.453651116  0.000000000     0.000000000  0.118292083  0.000000000
     0.000000000  0.000000000  8.448387213     0.000000000  0.000000000  0.118365787

  length of vectors
    12.085832407  8.453651116  8.448387213     0.082741508  0.118292083  0.118365787


 
 k-points in units of 2pi/SCALE and weight: B4C B11C-CBC                            
   0.00000000  0.00000000  0.00000000       0.016
   0.02135310  0.00000000  0.00000000       0.031
   0.04270621  0.00000000  0.00000000       0.016
   0.00000000  0.03052764  0.00000000       0.031
   0.02135310  0.03052764  0.00000000       0.062
   0.04270621  0.03052764  0.00000000       0.031
   0.00000000  0.06105528  0.00000000       0.016
   0.02135310  0.06105528  0.00000000       0.031
   0.04270621  0.06105528  0.00000000       0.016
   0.00000000  0.00000000  0.03054666       0.031
   0.02135310  0.00000000  0.03054666       0.062
   0.04270621  0.00000000  0.03054666       0.031
   0.00000000  0.03052764  0.03054666       0.062
   0.02135310  0.03052764  0.03054666       0.125
   0.04270621  0.03052764  0.03054666       0.062
   0.00000000  0.06105528  0.03054666       0.031
   0.02135310  0.06105528  0.03054666       0.062
   0.04270621  0.06105528  0.03054666       0.031
   0.00000000  0.00000000  0.06109332       0.016
   0.02135310  0.00000000  0.06109332       0.031
   0.04270621  0.00000000  0.06109332       0.016
   0.00000000  0.03052764  0.06109332       0.031
   0.02135310  0.03052764  0.06109332       0.062
   0.04270621  0.03052764  0.06109332       0.031
   0.00000000  0.06105528  0.06109332       0.016
   0.02135310  0.06105528  0.06109332       0.031
   0.04270621  0.06105528  0.06109332       0.016
 
 k-points in reciprocal lattice and weights: B4C B11C-CBC                            
   0.00000000  0.00000000  0.00000000       0.016
   0.25000000  0.00000000  0.00000000       0.031
   0.50000000  0.00000000  0.00000000       0.016
   0.00000000  0.25000000  0.00000000       0.031
   0.25000000  0.25000000  0.00000000       0.062
   0.50000000  0.25000000  0.00000000       0.031
   0.00000000  0.50000000  0.00000000       0.016
   0.25000000  0.50000000  0.00000000       0.031
   0.50000000  0.50000000  0.00000000       0.016
   0.00000000  0.00000000  0.25000000       0.031
   0.25000000  0.00000000  0.25000000       0.062
   0.50000000  0.00000000  0.25000000       0.031
   0.00000000  0.25000000  0.25000000       0.062
   0.25000000  0.25000000  0.25000000       0.125
   0.50000000  0.25000000  0.25000000       0.062
   0.00000000  0.50000000  0.25000000       0.031
   0.25000000  0.50000000  0.25000000       0.062
   0.50000000  0.50000000  0.25000000       0.031
   0.00000000  0.00000000  0.50000000       0.016
   0.25000000  0.00000000  0.50000000       0.031
   0.50000000  0.00000000  0.50000000       0.016
   0.00000000  0.25000000  0.50000000       0.031
   0.25000000  0.25000000  0.50000000       0.062
   0.50000000  0.25000000  0.50000000       0.031
   0.00000000  0.50000000  0.50000000       0.016
   0.25000000  0.50000000  0.50000000       0.031
   0.50000000  0.50000000  0.50000000       0.016
 
 position of ions in fractional coordinates (direct lattice) 
   0.07496258  0.77863942  0.26175302
   0.92503744  0.22136058  0.73824701
   0.92503744  0.72136058  0.76175299
   0.07496258  0.27863942  0.23824698
   0.92503744  0.27863942  0.23824698
   0.07496258  0.72136058  0.76175299
   0.07496258  0.22136058  0.73824701
   0.92503744  0.77863942  0.26175302
   0.57496256  0.27863942  0.26175302
   0.42503741  0.72136058  0.73824701
   0.42503741  0.22136058  0.76175299
   0.57496256  0.77863942  0.23824698
   0.42503741  0.77863942  0.23824698
   0.57496256  0.22136058  0.76175299
   0.57496256  0.72136058  0.73824701
   0.42503741  0.27863942  0.26175302
   0.80278266  0.58221714  0.93157996
   0.19721734  0.41778286  0.06842004
   0.19721734  0.91778286  0.43157996
   0.80278266  0.08221714  0.56842004
   0.19721734  0.08221714  0.56842004
   0.80278266  0.91778286  0.43157996
   0.80278266  0.41778286  0.06842004
   0.19721734  0.58221714  0.93157996
   0.30278266  0.08221714  0.93157996
   0.69721734  0.91778286  0.06842004
   0.69721734  0.41778286  0.43157996
   0.30278266  0.58221714  0.56842004
   0.69721734  0.58221714  0.56842004
   0.30278266  0.41778286  0.43157996
   0.30278266  0.91778286  0.06842004
   0.69721734  0.08221714  0.93157996
   0.69676663  0.56851243  0.08242000
   0.30323337  0.43148757  0.91758000
   0.30323337  0.93148757  0.58242000
   0.69676663  0.06851243  0.41758000
   0.30323337  0.06851243  0.41758000
   0.69676663  0.93148757  0.58242000
   0.69676663  0.43148757  0.91758000
   0.30323337  0.56851243  0.08242000
   0.19676663  0.06851243  0.08242000
   0.80323337  0.93148757  0.91758000
   0.80323337  0.43148757  0.58242000
   0.19676663  0.56851243  0.41758000
   0.80323337  0.56851243  0.41758000
   0.19676663  0.43148757  0.58242000
   0.19676663  0.93148757  0.91758000
   0.80323337  0.06851243  0.08242000
   0.00000000  0.60141758  0.20663685
   0.00000000  0.39858242  0.79336312
   0.00000000  0.89858242  0.70663688
   0.00000000  0.10141758  0.29336315
   0.50000000  0.10141758  0.20663685
   0.50000000  0.89858242  0.79336312
   0.50000000  0.39858242  0.70663688
   0.50000000  0.60141758  0.29336315
   0.00000000  0.22802544  0.92368784
   0.00000000  0.77197456  0.07631216
   0.00000000  0.27197456  0.42368784
   0.00000000  0.72802544  0.57631216
   0.50000000  0.72802544  0.92368784
   0.50000000  0.27197456  0.07631216
   0.50000000  0.77197456  0.42368784
   0.50000000  0.22802544  0.57631216
   0.00000000  0.23254117  0.29842156
   0.00000000  0.76745883  0.70157842
   0.00000000  0.26745883  0.79842158
   0.00000000  0.73254117  0.20157842
   0.50000000  0.73254117  0.29842156
   0.50000000  0.26745883  0.70157842
   0.50000000  0.76745883  0.79842158
   0.50000000  0.23254117  0.20157842
   0.74967585  0.50000000  0.00000000
   0.25032415  0.50000000  0.00000000
   0.25032415  0.00000000  0.50000000
   0.74967585  0.00000000  0.50000000
   0.24967585  0.00000000  0.00000000
   0.75032415  0.00000000  0.00000000
   0.75032415  0.50000000  0.50000000
   0.24967585  0.50000000  0.50000000
 
 position of ions in cartesian coordinates  (Angst):
   0.90598517  6.58234604  2.21139088
  11.17984750  1.87130507  6.23699658
  11.17984750  6.09813063  6.43558424
   0.90598517  2.35552048  2.01280273
  11.17984750  2.35552048  2.01280273
   0.90598517  6.09813063  6.43558424
   0.90598517  1.87130507  6.23699658
  11.17984750  6.58234604  2.21139088
   6.94890111  2.35552048  2.21139088
   5.13693095  6.09813063  6.23699658
   5.13693095  1.87130507  6.43558424
   6.94890111  6.58234604  2.01280273
   5.13693095  6.58234604  2.01280273
   6.94890111  1.87130507  6.43558424
   6.94890111  6.09813063  6.23699658
   5.13693095  2.35552048  2.21139088
   9.70229674  4.92186061  7.87034824
   2.38353567  3.53179051  0.57803897
   2.38353567  7.75861607  3.64615463
   9.70229674  0.69503505  4.80223258
   2.38353567  0.69503505  4.80223258
   9.70229674  7.75861607  3.64615463
   9.70229674  3.53179051  0.57803897
   2.38353567  4.92186061  7.87034824
   3.65938054  0.69503505  7.87034824
   8.42645187  7.75861607  0.57803897
   8.42645187  3.53179051  3.64615463
   3.65938054  4.92186061  4.80223258
   8.42645187  4.92186061  4.80223258
   3.65938054  3.53179051  3.64615463
   3.65938054  7.75861607  0.57803897
   8.42645187  0.69503505  7.87034824
   8.42100471  4.80600578  0.69631608
   3.66482769  3.64764534  7.75207114
   3.66482769  7.87447089  4.92050968
   8.42100471  0.57918022  3.52787753
   3.66482769  0.57918022  3.52787753
   8.42100471  7.87447089  4.92050968
   8.42100471  3.64764534  7.75207114
   3.66482769  4.80600578  0.69631608
   2.37808851  0.57918022  0.69631608
   9.70774390  7.87447089  7.75207114
   9.70774390  3.64764534  4.92050968
   2.37808851  4.80600578  3.52787753
   9.70774390  4.80600578  3.52787753
   2.37808851  3.64764534  4.92050968
   2.37808851  7.87447089  7.75207114
   9.70774390  0.57918022  0.69631608
   0.00000000  5.08417436  1.74574813
   0.00000000  3.36947675  6.70263883
   0.00000000  7.59630231  5.96994199
   0.00000000  0.85734880  2.47844547
   6.04291620  0.85734880  1.74574813
   6.04291620  7.59630231  6.70263883
   6.04291620  3.36947675  5.96994199
   6.04291620  5.08417436  2.47844547
   0.00000000  1.92764752  7.80367252
   0.00000000  6.52600360  0.64471470
   0.00000000  2.29917804  3.57947891
   0.00000000  6.15447307  4.86890830
   6.04291620  6.15447307  7.80367252
   6.04291620  2.29917804  0.64471470
   6.04291620  6.52600360  3.57947891
   6.04291620  1.92764752  4.86890830
   0.00000000  1.96582190  2.52118091
   0.00000000  6.48782922  5.92720618
   0.00000000  2.26100366  6.74537464
   0.00000000  6.19264745  1.70301257
   6.04291620  6.19264745  2.52118091
   6.04291620  2.26100366  5.92720618
   6.04291620  6.48782922  6.74537464
   6.04291620  1.96582190  1.70301257
   9.06045665  4.22682556  0.00000000
   3.02537576  4.22682556  0.00000000
   3.02537576  0.00000000  4.22419361
   9.06045665  0.00000000  4.22419361
   3.01754045  0.00000000  0.00000000
   9.06829196  0.00000000  0.00000000
   9.06829196  4.22682556  4.22419361
   3.01754045  4.22682556  4.22419361
 


--------------------------------------------------------------------------------------------------------


 k-point  1 :   0.0000 0.0000 0.0000  plane waves:   28813
 k-point  2 :   0.2500 0.0000 0.0000  plane waves:   28788
 k-point  3 :   0.5000 0.0000 0.0000  plane waves:   28720
 k-point  4 :   0.0000 0.2500 0.0000  plane waves:   28790
 k-point  5 :   0.2500 0.2500 0.0000  plane waves:   28803
 k-point  6 :   0.5000 0.2500 0.0000  plane waves:   28820
 k-point  7 :   0.0000 0.5000 0.0000  plane waves:   28814
 k-point  8 :   0.2500 0.5000 0.0000  plane waves:   28816
 k-point  9 :   0.5000 0.5000 0.0000  plane waves:   28788
 k-point 10 :   0.0000 0.0000 0.2500  plane waves:   28790
 k-point 11 :   0.2500 0.0000 0.2500  plane waves:   28791
 k-point 12 :   0.5000 0.0000 0.2500  plane waves:   28820
 k-point 13 :   0.0000 0.2500 0.2500  plane waves:   28788
 k-point 14 :   0.2500 0.2500 0.2500  plane waves:   28807
 k-point 15 :   0.5000 0.2500 0.2500  plane waves:   28798
 k-point 16 :   0.0000 0.5000 0.2500  plane waves:   28792
 k-point 17 :   0.2500 0.5000 0.2500  plane waves:   28822
 k-point 18 :   0.5000 0.5000 0.2500  plane waves:   28812
 k-point 19 :   0.0000 0.0000 0.5000  plane waves:   28854
 k-point 20 :   0.2500 0.0000 0.5000  plane waves:   28816
 k-point 21 :   0.5000 0.0000 0.5000  plane waves:   28780
 k-point 22 :   0.0000 0.2500 0.5000  plane waves:   28796
 k-point 23 :   0.2500 0.2500 0.5000  plane waves:   28818
 k-point 24 :   0.5000 0.2500 0.5000  plane waves:   28816
 k-point 25 :   0.0000 0.5000 0.5000  plane waves:   28840
 k-point 26 :   0.2500 0.5000 0.5000  plane waves:   28844
 k-point 27 :   0.5000 0.5000 0.5000  plane waves:   28864

 maximum and minimum number of plane-waves per node :     14446    14340

 maximum number of plane-waves:     28864
 maximum index in each direction: 
   IXMAX=   24   IYMAX=   16   IZMAX=   16
   IXMIN=  -24   IYMIN=  -17   IZMIN=  -17

 WARNING: aliasing errors must be expected set NGX to  98 to avoid them
 WARNING: aliasing errors must be expected set NGY to  68 to avoid them
 WARNING: aliasing errors must be expected set NGZ to  68 to avoid them
 aliasing errors are usually negligible using standard VASP settings
 and one can safely disregard these warnings

 parallel 3D FFT for wavefunctions:
    minimum data exchange during FFTs selected (reduces bandwidth)
 parallel 3D FFT for charge:
    minimum data exchange during FFTs selected (reduces bandwidth)


 total amount of memory used by VASP on root node   480019. kBytes
========================================================================

   base      :      30000. kBytes
   nonl-proj :      68416. kBytes
   fftplans  :      17542. kBytes
   grid      :      28055. kBytes
   one-center:        122. kBytes
   wavefun   :     335884. kBytes
 
     INWAV:  cpu time    0.00: real time    0.00
 Broyden mixing: mesh for mixing (old mesh)
   NGX = 49   NGY = 33   NGZ = 33
  (NGX  =144   NGY  =108   NGZ  =108)
  gives a total of  53361 points

 initial charge density was supplied:
 charge density of overlapping atoms calculated
 number of electron     128.0000000 magnetization 
 keeping initial charge density in first step


--------------------------------------------------------------------------------------------------------


 Maximum index for augmentation-charges          671 (set IRDMAX)


--------------------------------------------------------------------------------------------------------


 First call to EWALD:  gamma=   0.186
 Maximum number of real-space cells 2x 3x 3
 Maximum number of reciprocal cells 3x 2x 2

 FEWALD executed in parallel
    FEWALD:  cpu time    0.01: real time    0.01


----------------------------------------- Iteration    1(   1)  ---------------------------------------


    POTLOK:  cpu time    0.60: real time    0.60
    SETDIJ:  cpu time    0.04: real time    0.04
     EDDAV:  cpu time  247.80: real time  374.73
 BZINTS: Fermi energy:  5.716319;128.000000 electrons
         Band energy:-709.606617;  BLOECHL correction: -0.035235
       DOS:  cpu time    0.04: real time    0.04
    --------------------------------------------
      LOOP:  cpu time  248.48: real time  375.42

 eigenvalue-minimisations  :  5724
 total energy-change (2. order) : 0.4491944E+03  (-0.5412231E+04)
 number of electron     128.0000000 magnetization 
 augmentation part      128.0000000 magnetization 

 Free energy of the ion-electron system (eV)
  ---------------------------------------------------
  alpha Z        PSCENC =        71.45224998
  Ewald energy   TEWEN  =     -1201.96934967
  -Hartree energ DENC   =     -1210.49819230
  -exchange      EXHF   =         0.00000000
  -V(xc)+E(xc)   XCENC  =       365.16463515
  PAW double counting   =       655.30793496     -674.29210410
  entropy T*S    EENTRO =         0.00000000
  eigenvalues    EBANDS =      -709.60661678
  atomic energy  EATOM  =      3153.63586372
  ---------------------------------------------------
  free energy    TOTEN  =       449.19442096 eV

  energy without entropy =      449.19442096  energy(sigma->0) =      449.19442096

