<?xml version="1.0" encoding="ISO-8859-1"?>
<modeling>
 <generator>
  <i name="program" type="string">vasp </i>
  <i name="version" type="string">5.3.5  </i>
  <i name="subversion" type="string">31Mar14 (build Nov 02 2014 15:17:37) complex                          parallel </i>
  <i name="platform" type="string">ion-Intel-MKL </i>
  <i name="date" type="string">2017 07 05 </i>
  <i name="time" type="string">11:17:56 </i>
 </generator>
 <incar>
  <i type="string" name="SYSTEM">diamond</i>
  <i type="string" name="PREC">normal</i>
  <i type="int" name="NELM">   200</i>
  <i type="int" name="IBRION">     2</i>
  <i name="EDIFF">      0.00000100</i>
  <i name="EDIFFG">      0.00100000</i>
  <i type="int" name="NSW">   200</i>
  <i type="int" name="ISIF">     2</i>
  <i name="ENCUT">    600.00000000</i>
  <i type="int" name="ISMEAR">    -5</i>
  <i type="logical" name="LWAVE"> F  </i>
  <i type="logical" name="LCHARG"> F  </i>
  <i type="int" name="NELM">   200</i>
  <i type="string" name="GGA">PE</i>
 </incar>
 <kpoints>
  <generation param="Gamma">
   <v type="int" name="divisions">       4        4        4 </v>
   <v name="usershift">      0.00000000       0.00000000       0.00000000 </v>
   <v name="genvec1">      0.25000000       0.00000000       0.00000000 </v>
   <v name="genvec2">      0.00000000       0.25000000       0.00000000 </v>
   <v name="genvec3">      0.00000000       0.00000000       0.25000000 </v>
   <v name="shift">      0.00000000       0.00000000       0.00000000 </v>
  </generation>
  <varray name="kpointlist" >
   <v>       0.00000000       0.00000000       0.00000000 </v>
   <v>       0.25000000       0.00000000       0.00000000 </v>
   <v>       0.50000000       0.00000000       0.00000000 </v>
   <v>       0.00000000       0.25000000       0.00000000 </v>
   <v>       0.25000000       0.25000000       0.00000000 </v>
   <v>       0.50000000       0.25000000       0.00000000 </v>
   <v>       0.00000000       0.50000000       0.00000000 </v>
   <v>       0.25000000       0.50000000       0.00000000 </v>
   <v>       0.50000000       0.50000000       0.00000000 </v>
   <v>       0.00000000       0.00000000       0.25000000 </v>
   <v>       0.25000000       0.00000000       0.25000000 </v>
   <v>       0.50000000       0.00000000       0.25000000 </v>
   <v>       0.00000000       0.25000000       0.25000000 </v>
   <v>       0.25000000       0.25000000       0.25000000 </v>
   <v>       0.50000000       0.25000000       0.25000000 </v>
   <v>       0.00000000       0.50000000       0.25000000 </v>
   <v>       0.25000000       0.50000000       0.25000000 </v>
   <v>       0.50000000       0.50000000       0.25000000 </v>
   <v>       0.00000000       0.00000000       0.50000000 </v>
   <v>       0.25000000       0.00000000       0.50000000 </v>
   <v>       0.50000000       0.00000000       0.50000000 </v>
   <v>       0.00000000       0.25000000       0.50000000 </v>
   <v>       0.25000000       0.25000000       0.50000000 </v>
   <v>       0.50000000       0.25000000       0.50000000 </v>
   <v>       0.00000000       0.50000000       0.50000000 </v>
   <v>       0.25000000       0.50000000       0.50000000 </v>
   <v>       0.50000000       0.50000000       0.50000000 </v>
  </varray>
  <varray name="weights" >
   <v>       0.01562500 </v>
   <v>       0.03125000 </v>
   <v>       0.01562500 </v>
   <v>       0.03125000 </v>
   <v>       0.06250000 </v>
   <v>       0.03125000 </v>
   <v>       0.01562500 </v>
   <v>       0.03125000 </v>
   <v>       0.01562500 </v>
   <v>       0.03125000 </v>
   <v>       0.06250000 </v>
   <v>       0.03125000 </v>
   <v>       0.06250000 </v>
   <v>       0.12500000 </v>
   <v>       0.06250000 </v>
   <v>       0.03125000 </v>
   <v>       0.06250000 </v>
   <v>       0.03125000 </v>
   <v>       0.01562500 </v>
   <v>       0.03125000 </v>
   <v>       0.01562500 </v>
   <v>       0.03125000 </v>
   <v>       0.06250000 </v>
   <v>       0.03125000 </v>
   <v>       0.01562500 </v>
   <v>       0.03125000 </v>
   <v>       0.01562500 </v>
  </varray>
  <varray name="tetrahedronlist"  type="int" >
   <v type="int" >        2        1        2        5       10 </v>
   <v type="int" >        2        1        4        5       10 </v>
   <v type="int" >        2        4        5       10       13 </v>
   <v type="int" >        2        2        5       10       11 </v>
   <v type="int" >        2        5       10       11       14 </v>
   <v type="int" >        2        5       10       13       14 </v>
   <v type="int" >        2        2        3        6       11 </v>
   <v type="int" >        2        2        5        6       11 </v>
   <v type="int" >        2        5        6       11       14 </v>
   <v type="int" >        2        3        6       11       12 </v>
   <v type="int" >        2        6       11       12       15 </v>
   <v type="int" >        2        6       11       14       15 </v>
   <v type="int" >        2        2        3        5       12 </v>
   <v type="int" >        2        3        5        6       12 </v>
   <v type="int" >        2        5        6       12       15 </v>
   <v type="int" >        2        2        5       11       12 </v>
   <v type="int" >        2        5       11       12       14 </v>
   <v type="int" >        2        5       12       14       15 </v>
   <v type="int" >        2        1        2        4       11 </v>
   <v type="int" >        2        2        4        5       11 </v>
   <v type="int" >        2        4        5       11       14 </v>
   <v type="int" >        2        1        4       10       11 </v>
   <v type="int" >        2        4       10       11       13 </v>
   <v type="int" >        2        4       11       13       14 </v>
   <v type="int" >        2        4        5        8       13 </v>
   <v type="int" >        2        4        7        8       13 </v>
   <v type="int" >        2        7        8       13       16 </v>
   <v type="int" >        2        5        8       13       14 </v>
   <v type="int" >        2        8       13       14       17 </v>
   <v type="int" >        2        8       13       16       17 </v>
   <v type="int" >        2        5        6        9       14 </v>
   <v type="int" >        2        5        8        9       14 </v>
   <v type="int" >        2        8        9       14       17 </v>
   <v type="int" >        2        6        9       14       15 </v>
   <v type="int" >        2        9       14       15       18 </v>
   <v type="int" >        2        9       14       17       18 </v>
   <v type="int" >        2        5        6        8       15 </v>
   <v type="int" >        2        6        8        9       15 </v>
   <v type="int" >        2        8        9       15       18 </v>
   <v type="int" >        2        5        8       14       15 </v>
   <v type="int" >        2        8       14       15       17 </v>
   <v type="int" >        2        8       15       17       18 </v>
   <v type="int" >        2        4        5        7       14 </v>
   <v type="int" >        2        5        7        8       14 </v>
   <v type="int" >        2        7        8       14       17 </v>
   <v type="int" >        2        4        7       13       14 </v>
   <v type="int" >        2        7       13       14       16 </v>
   <v type="int" >        2        7       14       16       17 </v>
   <v type="int" >        2        5        7        8       16 </v>
   <v type="int" >        2        4        5        7       16 </v>
   <v type="int" >        2        4        5       13       16 </v>
   <v type="int" >        2        5        8       16       17 </v>
   <v type="int" >        2        5       14       16       17 </v>
   <v type="int" >        2        5       13       14       16 </v>
   <v type="int" >        2        6        8        9       17 </v>
   <v type="int" >        2        5        6        8       17 </v>
   <v type="int" >        2        5        6       14       17 </v>
   <v type="int" >        2        6        9       17       18 </v>
   <v type="int" >        2        6       15       17       18 </v>
   <v type="int" >        2        6       14       15       17 </v>
   <v type="int" >        2        5        8        9       18 </v>
   <v type="int" >        2        5        6        9       18 </v>
   <v type="int" >        2        5        6       15       18 </v>
   <v type="int" >        2        5        8       17       18 </v>
   <v type="int" >        2        5       14       17       18 </v>
   <v type="int" >        2        5       14       15       18 </v>
   <v type="int" >        2        4        7        8       17 </v>
   <v type="int" >        2        4        5        8       17 </v>
   <v type="int" >        2        4        5       14       17 </v>
   <v type="int" >        2        4        7       16       17 </v>
   <v type="int" >        2        4       13       16       17 </v>
   <v type="int" >        2        4       13       14       17 </v>
   <v type="int" >        2        2        4        5       13 </v>
   <v type="int" >        2        1        2        4       13 </v>
   <v type="int" >        2        1        2       10       13 </v>
   <v type="int" >        2        2        5       13       14 </v>
   <v type="int" >        2        2       11       13       14 </v>
   <v type="int" >        2        2       10       11       13 </v>
   <v type="int" >        2        3        5        6       14 </v>
   <v type="int" >        2        2        3        5       14 </v>
   <v type="int" >        2        2        3       11       14 </v>
   <v type="int" >        2        3        6       14       15 </v>
   <v type="int" >        2        3       12       14       15 </v>
   <v type="int" >        2        3       11       12       14 </v>
   <v type="int" >        2        2        5        6       15 </v>
   <v type="int" >        2        2        3        6       15 </v>
   <v type="int" >        2        2        3       12       15 </v>
   <v type="int" >        2        2        5       14       15 </v>
   <v type="int" >        2        2       11       14       15 </v>
   <v type="int" >        2        2       11       12       15 </v>
   <v type="int" >        2        1        4        5       14 </v>
   <v type="int" >        2        1        2        5       14 </v>
   <v type="int" >        2        1        2       11       14 </v>
   <v type="int" >        2        1        4       13       14 </v>
   <v type="int" >        2        1       10       13       14 </v>
   <v type="int" >        2        1       10       11       14 </v>
   <v type="int" >        2       10       11       14       19 </v>
   <v type="int" >        2       10       13       14       19 </v>
   <v type="int" >        2       13       14       19       22 </v>
   <v type="int" >        2       11       14       19       20 </v>
   <v type="int" >        2       14       19       20       23 </v>
   <v type="int" >        2       14       19       22       23 </v>
   <v type="int" >        2       11       12       15       20 </v>
   <v type="int" >        2       11       14       15       20 </v>
   <v type="int" >        2       14       15       20       23 </v>
   <v type="int" >        2       12       15       20       21 </v>
   <v type="int" >        2       15       20       21       24 </v>
   <v type="int" >        2       15       20       23       24 </v>
   <v type="int" >        2       11       12       14       21 </v>
   <v type="int" >        2       12       14       15       21 </v>
   <v type="int" >        2       14       15       21       24 </v>
   <v type="int" >        2       11       14       20       21 </v>
   <v type="int" >        2       14       20       21       23 </v>
   <v type="int" >        2       14       21       23       24 </v>
   <v type="int" >        2       10       11       13       20 </v>
   <v type="int" >        2       11       13       14       20 </v>
   <v type="int" >        2       13       14       20       23 </v>
   <v type="int" >        2       10       13       19       20 </v>
   <v type="int" >        2       13       19       20       22 </v>
   <v type="int" >        2       13       20       22       23 </v>
   <v type="int" >        2       13       14       17       22 </v>
   <v type="int" >        2       13       16       17       22 </v>
   <v type="int" >        2       16       17       22       25 </v>
   <v type="int" >        2       14       17       22       23 </v>
   <v type="int" >        2       17       22       23       26 </v>
   <v type="int" >        2       17       22       25       26 </v>
   <v type="int" >        2       14       15       18       23 </v>
   <v type="int" >        2       14       17       18       23 </v>
   <v type="int" >        2       17       18       23       26 </v>
   <v type="int" >        2       15       18       23       24 </v>
   <v type="int" >        2       18       23       24       27 </v>
   <v type="int" >        2       18       23       26       27 </v>
   <v type="int" >        2       14       15       17       24 </v>
   <v type="int" >        2       15       17       18       24 </v>
   <v type="int" >        2       17       18       24       27 </v>
   <v type="int" >        2       14       17       23       24 </v>
   <v type="int" >        2       17       23       24       26 </v>
   <v type="int" >        2       17       24       26       27 </v>
   <v type="int" >        2       13       14       16       23 </v>
   <v type="int" >        2       14       16       17       23 </v>
   <v type="int" >        2       16       17       23       26 </v>
   <v type="int" >        2       13       16       22       23 </v>
   <v type="int" >        2       16       22       23       25 </v>
   <v type="int" >        2       16       23       25       26 </v>
   <v type="int" >        2       14       16       17       25 </v>
   <v type="int" >        2       13       14       16       25 </v>
   <v type="int" >        2       13       14       22       25 </v>
   <v type="int" >        2       14       17       25       26 </v>
   <v type="int" >        2       14       23       25       26 </v>
   <v type="int" >        2       14       22       23       25 </v>
   <v type="int" >        2       15       17       18       26 </v>
   <v type="int" >        2       14       15       17       26 </v>
   <v type="int" >        2       14       15       23       26 </v>
   <v type="int" >        2       15       18       26       27 </v>
   <v type="int" >        2       15       24       26       27 </v>
   <v type="int" >        2       15       23       24       26 </v>
   <v type="int" >        2       14       17       18       27 </v>
   <v type="int" >        2       14       15       18       27 </v>
   <v type="int" >        2       14       15       24       27 </v>
   <v type="int" >        2       14       17       26       27 </v>
   <v type="int" >        2       14       23       26       27 </v>
   <v type="int" >        2       14       23       24       27 </v>
   <v type="int" >        2       13       16       17       26 </v>
   <v type="int" >        2       13       14       17       26 </v>
   <v type="int" >        2       13       14       23       26 </v>
   <v type="int" >        2       13       16       25       26 </v>
   <v type="int" >        2       13       22       25       26 </v>
   <v type="int" >        2       13       22       23       26 </v>
   <v type="int" >        2       11       13       14       22 </v>
   <v type="int" >        2       10       11       13       22 </v>
   <v type="int" >        2       10       11       19       22 </v>
   <v type="int" >        2       11       14       22       23 </v>
   <v type="int" >        2       11       20       22       23 </v>
   <v type="int" >        2       11       19       20       22 </v>
   <v type="int" >        2       12       14       15       23 </v>
   <v type="int" >        2       11       12       14       23 </v>
   <v type="int" >        2       11       12       20       23 </v>
   <v type="int" >        2       12       15       23       24 </v>
   <v type="int" >        2       12       21       23       24 </v>
   <v type="int" >        2       12       20       21       23 </v>
   <v type="int" >        2       11       14       15       24 </v>
   <v type="int" >        2       11       12       15       24 </v>
   <v type="int" >        2       11       12       21       24 </v>
   <v type="int" >        2       11       14       23       24 </v>
   <v type="int" >        2       11       20       23       24 </v>
   <v type="int" >        2       11       20       21       24 </v>
   <v type="int" >        2       10       13       14       23 </v>
   <v type="int" >        2       10       11       14       23 </v>
   <v type="int" >        2       10       11       20       23 </v>
   <v type="int" >        2       10       13       22       23 </v>
   <v type="int" >        2       10       19       22       23 </v>
   <v type="int" >        2       10       19       20       23 </v>
  </varray>
  <i name="volumeweight">      0.00260417 </i>
 </kpoints>
 <parameters>
  <separator name="general" >
   <i type="string" name="SYSTEM">diamond</i>
   <i type="logical" name="LCOMPAT"> F  </i>
  </separator>
  <separator name="electronic" >
   <i type="string" name="PREC">normal</i>
   <i name="ENMAX">    600.00000000</i>
   <i name="ENAUG">    644.87300000</i>
   <i name="EDIFF">      0.00000100</i>
   <i type="int" name="IALGO">    38</i>
   <i type="int" name="IWAVPR">    11</i>
   <i type="int" name="NBANDS">   106</i>
   <i name="NELECT">    128.00000000</i>
   <i type="int" name="TURBO">     0</i>
   <i type="int" name="IRESTART">     0</i>
   <i type="int" name="NREBOOT">     0</i>
   <i type="int" name="NMIN">     0</i>
   <i name="EREF">      0.00000000</i>
   <separator name="electronic smearing" >
    <i type="int" name="ISMEAR">    -5</i>
    <i name="SIGMA">      0.20000000</i>
    <i name="KSPACING">      0.50000000</i>
    <i type="logical" name="KGAMMA"> T  </i>
   </separator>
   <separator name="electronic projectors" >
    <i type="logical" name="LREAL"> F  </i>
    <v name="ROPT">      0.00000000      0.00000000</v>
    <i type="int" name="LMAXPAW">  -100</i>
    <i type="int" name="LMAXMIX">     2</i>
    <i type="logical" name="NLSPLINE"> F  </i>
   </separator>
   <separator name="electronic startup" >
    <i type="int" name="ISTART">     0</i>
    <i type="int" name="ICHARG">     2</i>
    <i type="int" name="INIWAV">     1</i>
   </separator>
   <separator name="electronic spin" >
    <i type="int" name="ISPIN">     1</i>
    <i type="logical" name="LNONCOLLINEAR"> F  </i>
    <v name="MAGMOM">      1.00000000      1.00000000      1.00000000      1.00000000      1.00000000      1.00000000      1.00000000      1.00000000      1.00000000      1.00000000      1.00000000      1.00000000      1.00000000      1.00000000      1.00000000      1.00000000      1.00000000      1.00000000      1.00000000      1.00000000
      1.00000000      1.00000000      1.00000000      1.00000000      1.00000000      1.00000000      1.00000000      1.00000000      1.00000000      1.00000000      1.00000000      1.00000000      1.00000000      1.00000000      1.00000000      1.00000000      1.00000000      1.00000000      1.00000000      1.00000000
      1.00000000      1.00000000      1.00000000      1.00000000      1.00000000      1.00000000      1.00000000      1.00000000      1.00000000      1.00000000      1.00000000      1.00000000      1.00000000      1.00000000      1.00000000      1.00000000      1.00000000      1.00000000      1.00000000      1.00000000
      1.00000000      1.00000000      1.00000000      1.00000000      1.00000000      1.00000000      1.00000000      1.00000000      1.00000000      1.00000000      1.00000000      1.00000000      1.00000000      1.00000000      1.00000000      1.00000000      1.00000000      1.00000000      1.00000000      1.00000000
</v>
    <i name="NUPDOWN">     -1.00000000</i>
    <i type="logical" name="LSORBIT"> F  </i>
    <v name="SAXIS">      0.00000000      0.00000000      1.00000000</v>
    <i type="logical" name="LSPIRAL"> F  </i>
    <v name="QSPIRAL">      0.00000000      0.00000000      0.00000000</v>
    <i type="logical" name="LZEROZ"> F  </i>
   </separator>
   <separator name="electronic exchange-correlation" >
    <i type="logical" name="LASPH"> F  </i>
    <i type="logical" name="LMETAGGA"> F  </i>
   </separator>
   <separator name="electronic convergence" >
    <i type="int" name="NELM">   200</i>
    <i type="int" name="NELMDL">     0</i>
    <i type="int" name="NELMIN">     2</i>
    <i name="ENINI">    600.00000000</i>
    <separator name="electronic convergence detail" >
     <i type="logical" name="LDIAG"> T  </i>
     <i type="logical" name="LSUBROT"> F  </i>
     <i name="WEIMIN">      0.00100000</i>
     <i name="EBREAK">      0.00000000</i>
     <i name="DEPER">      0.30000000</i>
     <i type="int" name="NRMM">     4</i>
     <i name="TIME">      0.40000000</i>
    </separator>
   </separator>
   <separator name="electronic mixer" >
    <i name="AMIX">      0.40000000</i>
    <i name="BMIX">      1.00000000</i>
    <i name="AMIN">      0.10000000</i>
    <i name="AMIX_MAG">      1.60000000</i>
    <i name="BMIX_MAG">      1.00000000</i>
    <separator name="electronic mixer details" >
     <i type="int" name="IMIX">     4</i>
     <i type="int" name="MAXMIX">   -45</i>
     <i name="WC">    100.00000000</i>
     <i type="int" name="INIMIX">     1</i>
     <i type="int" name="MIXPRE">     1</i>
     <i type="int" name="MREMOVE">     5</i>
    </separator>
   </separator>
   <separator name="electronic dipolcorrection" >
    <i type="logical" name="LDIPOL"> F  </i>
    <i type="logical" name="LMONO"> F  </i>
    <i type="int" name="IDIPOL">     0</i>
    <i name="EPSILON">      1.00000000</i>
    <v name="DIPOL">   -100.00000000   -100.00000000   -100.00000000</v>
    <i name="EFIELD">      0.00000000</i>
   </separator>
  </separator>
  <separator name="grids" >
   <i type="int" name="NGX">    72</i>
   <i type="int" name="NGY">    54</i>
   <i type="int" name="NGZ">    54</i>
   <i type="int" name="NGXF">   144</i>
   <i type="int" name="NGYF">   108</i>
   <i type="int" name="NGZF">   108</i>
   <i type="logical" name="ADDGRID"> F  </i>
  </separator>
  <separator name="ionic" >
   <i type="int" name="NSW">   200</i>
   <i type="int" name="IBRION">     2</i>
   <i type="int" name="ISIF">     2</i>
   <i name="PSTRESS">      0.00000000</i>
   <i name="EDIFFG">      0.00100000</i>
   <i type="int" name="NFREE">     1</i>
   <i name="POTIM">      0.50000000</i>
   <i name="SMASS">     -3.00000000</i>
   <i name="SCALEE">      1.00000000</i>
  </separator>
  <separator name="ionic md" >
   <i name="TEBEG">      0.00010000</i>
   <i name="TEEND">      0.00010000</i>
   <i type="int" name="NBLOCK">     1</i>
   <i type="int" name="KBLOCK">   200</i>
   <i type="int" name="NPACO">   256</i>
   <i name="APACO">     16.00000000</i>
  </separator>
  <separator name="symmetry" >
   <i type="int" name="ISYM">     2</i>
   <i name="SYMPREC">      0.00001000</i>
  </separator>
  <separator name="dos" >
   <i type="logical" name="LORBIT"> F  </i>
   <v name="RWIGS">     -1.00000000     -1.00000000</v>
   <i type="int" name="NEDOS">   301</i>
   <i name="EMIN">     10.00000000</i>
   <i name="EMAX">    -10.00000000</i>
   <i name="EFERMI">      0.00000000</i>
  </separator>
  <separator name="writing" >
   <i type="int" name="NWRITE">     2</i>
   <i type="logical" name="LWAVE"> F  </i>
   <i type="logical" name="LCHARG"> F  </i>
   <i type="logical" name="LPARD"> F  </i>
   <i type="logical" name="LVTOT"> F  </i>
   <i type="logical" name="LVHAR"> F  </i>
   <i type="logical" name="LELF"> F  </i>
   <i type="logical" name="LOPTICS"> F  </i>
   <v name="STM">      0.00000000      0.00000000      0.00000000      0.00000000      0.00000000      0.00000000      0.00000000</v>
  </separator>
  <separator name="performance" >
   <i type="int" name="NPAR">     2</i>
   <i type="int" name="NSIM">     4</i>
   <i type="int" name="NBLK">    -1</i>
   <i type="logical" name="LPLANE"> T  </i>
   <i type="logical" name="LSCALAPACK"> T  </i>
   <i type="logical" name="LSCAAWARE"> F  </i>
   <i type="logical" name="LSCALU"> F  </i>
   <i type="logical" name="LASYNC"> F  </i>
   <i type="logical" name="LORBITALREAL"> F  </i>
  </separator>
  <separator name="miscellaneous" >
   <i type="int" name="IDIOT">     3</i>
   <i type="logical" name="LMUSIC"> F  </i>
   <v name="POMASS">      1.00000000     12.01100000</v>
   <v name="DARWINR">      0.00000000      0.00000000</v>
   <v name="DARWINV">      1.00000000      1.00000000</v>
   <i type="logical" name="LCORR"> T  </i>
  </separator>
  <i type="logical" name="GGA_COMPAT"> T  </i>
  <i type="logical" name="LBERRY"> F  </i>
  <i type="int" name="ICORELEVEL">     0</i>
  <i type="logical" name="LDAU"> F  </i>
  <i type="int" name="I_CONSTRAINED_M">     0</i>
  <separator name="electronic exchange-correlation" >
   <i type="string" name="GGA">PE</i>
   <i type="int" name="VOSKOWN">     0</i>
   <i type="logical" name="LHFCALC"> F  </i>
   <i type="string" name="PRECFOCK"></i>
   <i type="logical" name="LSYMGRAD"> F  </i>
   <i type="logical" name="LHFONE"> F  </i>
   <i type="logical" name="LRHFCALC"> F  </i>
   <i type="logical" name="LTHOMAS"> F  </i>
   <i type="logical" name="LMODELHF"> F  </i>
   <i name="ENCUT4O">     -1.00000000</i>
   <i type="int" name="EXXOEP">     0</i>
   <i type="int" name="FOURORBIT">     0</i>
   <i name="AEXX">      0.00000000</i>
   <i name="HFALPHA">      0.00000000</i>
   <i name="MCALPHA">      0.00000000</i>
   <i name="ALDAX">      1.00000000</i>
   <i name="AGGAX">      1.00000000</i>
   <i name="ALDAC">      1.00000000</i>
   <i name="AGGAC">      1.00000000</i>
   <i type="int" name="NKREDX">     1</i>
   <i type="int" name="NKREDY">     1</i>
   <i type="int" name="NKREDZ">     1</i>
   <i type="logical" name="SHIFTRED"> F  </i>
   <i type="logical" name="ODDONLY"> F  </i>
   <i type="logical" name="EVENONLY"> F  </i>
   <i type="int" name="LMAXFOCK">     0</i>
   <i type="int" name="NMAXFOCKAE">     0</i>
   <i type="logical" name="LFOCKAEDFT"> F  </i>
   <i name="HFSCREEN">      0.00000000</i>
   <i name="HFSCREENC">      0.00000000</i>
   <i type="int" name="NBANDSGWLOW">     0</i>
  </separator>
  <separator name="vdW DFT" >
   <i type="logical" name="LUSE_VDW"> F  </i>
   <i name="Zab_VDW">     -0.84910000</i>
   <i name="PARAM1">      0.12340000</i>
   <i name="PARAM2">      1.00000000</i>
   <i name="PARAM3">      0.00000000</i>
  </separator>
  <separator name="model GW" >
   <i type="int" name="MODEL_GW">     0</i>
   <i name="MODEL_EPS0">      6.47375057</i>
   <i name="MODEL_ALPHA">      1.00000000</i>
  </separator>
  <separator name="linear response parameters" >
   <i type="logical" name="LEPSILON"> F  </i>
   <i type="logical" name="LRPA"> F  </i>
   <i type="logical" name="LNABLA"> F  </i>
   <i type="logical" name="LVEL"> F  </i>
   <i type="int" name="KINTER">     0</i>
   <i name="CSHIFT">      0.10000000</i>
   <i name="OMEGAMAX">     -1.00000000</i>
   <i name="DEG_THRESHOLD">      0.00200000</i>
  </separator>
  <separator name="orbital magnetization" >
   <i type="logical" name="NUCIND"> F  </i>
   <v name="MAGPOS">      0.00000000      0.00000000      0.00000000</v>
   <i type="logical" name="LNICSALL"> T  </i>
   <i type="logical" name="ORBITALMAG"> F  </i>
   <i type="logical" name="LMAGBLOCH"> F  </i>
   <i type="logical" name="LCHIMAG"> F  </i>
   <i type="logical" name="LGAUGE"> T  </i>
   <i type="int" name="MAGATOM">     0</i>
   <v name="MAGDIPOL">      0.00000000      0.00000000      0.00000000</v>
   <v name="AVECCONST">      0.00000000      0.00000000      0.00000000</v>
  </separator>
  <separator name="response functions" >
   <i type="logical" name="LADDER"> F  </i>
   <i type="logical" name="LFXC"> F  </i>
   <i type="logical" name="LHARTREE"> T  </i>
   <i type="int" name="IBSE">     0</i>
   <i type="logical" name="LTCTE"> F  </i>
   <i type="logical" name="LTETE"> F  </i>
   <i type="logical" name="LTRIPLET"> F  </i>
   <i type="logical" name="LFXCEPS"> F  </i>
   <i type="logical" name="LFXHEG"> F  </i>
   <i type="logical" name="L2ORDER"> F  </i>
   <i type="logical" name="LUSEW"> F  </i>
   <i name="ENCUTGW">     -2.00000000</i>
   <i name="ENCUTGWSOFT">     -2.00000000</i>
   <i name="ENCUTLF">     -1.00000000</i>
   <i type="int" name="LMAXMP2">    -1</i>
   <i name="SCISSOR">      0.00000000</i>
   <i type="int" name="NOMEGA">     0</i>
   <i type="int" name="NOMEGAR">     0</i>
   <i type="int" name="NBANDSGW">    -1</i>
   <i type="int" name="NBANDSO">    -1</i>
   <i type="int" name="NBANDSV">    -1</i>
   <i type="int" name="NELM">   200</i>
   <i type="int" name="DIM">     3</i>
   <i type="int" name="ANTIRES">     0</i>
   <i name="OMEGAMAX">    -30.00000000</i>
   <i name="OMEGAMIN">    -30.00000000</i>
   <i name="OMEGATL">   -200.00000000</i>
   <i type="int" name="OMEGAGRID">     0</i>
   <i name="CSHIFT">     -0.10000000</i>
   <i type="logical" name="SELFENERGY"> F  </i>
   <i type="logical" name="LSPECTRAL"> F  </i>
   <i type="logical" name="ODDONLYGW"> F  </i>
   <i type="logical" name="EVENONLYGW"> F  </i>
   <i type="int" name="NKREDLFX">     1</i>
   <i type="int" name="NKREDLFY">     1</i>
   <i type="int" name="NKREDLFZ">     1</i>
   <i type="int" name="MAXMEM">  1800</i>
   <i type="int" name="TELESCOPE">     0</i>
   <i type="int" name="TAUPAR">     1</i>
  </separator>
  <separator name="External order field" >
   <i name="OFIELD_KAPPA">      0.00000000</i>
   <v name="OFIELD_K">      0.00000000      0.00000000      0.00000000</v>
   <i name="OFIELD_Q6_NEAR">      0.00000000</i>
   <i name="OFIELD_Q6_FAR">      0.00000000</i>
   <i name="OFIELD_A">      0.00000000</i>
  </separator>
 </parameters>
 <atominfo>
  <atoms>      80 </atoms>
  <types>       2 </types>
  <array name="atoms" >
   <dimension dim="1">ion</dimension>
   <field type="string">element</field>
   <field type="int">atomtype</field>
   <set>
    <rc><c>H </c><c>   1</c></rc>
    <rc><c>H </c><c>   1</c></rc>
    <rc><c>H </c><c>   1</c></rc>
    <rc><c>H </c><c>   1</c></rc>
    <rc><c>H </c><c>   1</c></rc>
    <rc><c>H </c><c>   1</c></rc>
    <rc><c>H </c><c>   1</c></rc>
    <rc><c>H </c><c>   1</c></rc>
    <rc><c>H </c><c>   1</c></rc>
    <rc><c>H </c><c>   1</c></rc>
    <rc><c>H </c><c>   1</c></rc>
    <rc><c>H </c><c>   1</c></rc>
    <rc><c>H </c><c>   1</c></rc>
    <rc><c>H </c><c>   1</c></rc>
    <rc><c>H </c><c>   1</c></rc>
    <rc><c>H </c><c>   1</c></rc>
    <rc><c>H </c><c>   1</c></rc>
    <rc><c>H </c><c>   1</c></rc>
    <rc><c>H </c><c>   1</c></rc>
    <rc><c>H </c><c>   1</c></rc>
    <rc><c>H </c><c>   1</c></rc>
    <rc><c>H </c><c>   1</c></rc>
    <rc><c>H </c><c>   1</c></rc>
    <rc><c>H </c><c>   1</c></rc>
    <rc><c>H </c><c>   1</c></rc>
    <rc><c>H </c><c>   1</c></rc>
    <rc><c>H </c><c>   1</c></rc>
    <rc><c>H </c><c>   1</c></rc>
    <rc><c>H </c><c>   1</c></rc>
    <rc><c>H </c><c>   1</c></rc>
    <rc><c>H </c><c>   1</c></rc>
    <rc><c>H </c><c>   1</c></rc>
    <rc><c>H </c><c>   1</c></rc>
    <rc><c>H </c><c>   1</c></rc>
    <rc><c>H </c><c>   1</c></rc>
    <rc><c>H </c><c>   1</c></rc>
    <rc><c>H </c><c>   1</c></rc>
    <rc><c>H </c><c>   1</c></rc>
    <rc><c>H </c><c>   1</c></rc>
    <rc><c>H </c><c>   1</c></rc>
    <rc><c>H </c><c>   1</c></rc>
    <rc><c>H </c><c>   1</c></rc>
    <rc><c>H </c><c>   1</c></rc>
    <rc><c>H </c><c>   1</c></rc>
    <rc><c>H </c><c>   1</c></rc>
    <rc><c>H </c><c>   1</c></rc>
    <rc><c>H </c><c>   1</c></rc>
    <rc><c>H </c><c>   1</c></rc>
    <rc><c>H </c><c>   1</c></rc>
    <rc><c>H </c><c>   1</c></rc>
    <rc><c>H </c><c>   1</c></rc>
    <rc><c>H </c><c>   1</c></rc>
    <rc><c>H </c><c>   1</c></rc>
    <rc><c>H </c><c>   1</c></rc>
    <rc><c>H </c><c>   1</c></rc>
    <rc><c>H </c><c>   1</c></rc>
    <rc><c>H </c><c>   1</c></rc>
    <rc><c>H </c><c>   1</c></rc>
    <rc><c>H </c><c>   1</c></rc>
    <rc><c>H </c><c>   1</c></rc>
    <rc><c>H </c><c>   1</c></rc>
    <rc><c>H </c><c>   1</c></rc>
    <rc><c>H </c><c>   1</c></rc>
    <rc><c>H </c><c>   1</c></rc>
    <rc><c>C </c><c>   2</c></rc>
    <rc><c>C </c><c>   2</c></rc>
    <rc><c>C </c><c>   2</c></rc>
    <rc><c>C </c><c>   2</c></rc>
    <rc><c>C </c><c>   2</c></rc>
    <rc><c>C </c><c>   2</c></rc>
    <rc><c>C </c><c>   2</c></rc>
    <rc><c>C </c><c>   2</c></rc>
    <rc><c>C </c><c>   2</c></rc>
    <rc><c>C </c><c>   2</c></rc>
    <rc><c>C </c><c>   2</c></rc>
    <rc><c>C </c><c>   2</c></rc>
    <rc><c>C </c><c>   2</c></rc>
    <rc><c>C </c><c>   2</c></rc>
    <rc><c>C </c><c>   2</c></rc>
    <rc><c>C </c><c>   2</c></rc>
   </set>
  </array>
  <array name="atomtypes" >
   <dimension dim="1">type</dimension>
   <field type="int">atomspertype</field>
   <field type="string">element</field>
   <field>mass</field>
   <field>valence</field>
   <field type="string">pseudopotential</field>
   <set>
    <rc><c>  64</c><c>H </c><c>      1.00000000</c><c>      1.00000000</c><c>PAW_PBE H 15Jun2001                     </c></rc>
    <rc><c>  16</c><c>C </c><c>     12.01100000</c><c>      4.00000000</c><c>PAW_PBE C 08Apr2002                     </c></rc>
   </set>
  </array>
 </atominfo>
 <structure name="initialpos" >
  <crystal>
   <varray name="basis" >
    <v>      12.08583241       0.00000000       0.00000000 </v>
    <v>       0.00000000       8.45365112       0.00000000 </v>
    <v>       0.00000000       0.00000000       8.44838721 </v>
   </varray>
   <i name="volume">    863.16674222 </i>
   <varray name="rec_basis" >
    <v>       0.08274151       0.00000000       0.00000000 </v>
    <v>       0.00000000       0.11829208       0.00000000 </v>
    <v>       0.00000000       0.00000000       0.11836579 </v>
   </varray>
  </crystal>
  <varray name="positions" >
   <v>       0.07496258       0.77863942       0.26175302 </v>
   <v>       0.92503744       0.22136058       0.73824701 </v>
   <v>       0.92503744       0.72136058       0.76175299 </v>
   <v>       0.07496258       0.27863942       0.23824698 </v>
   <v>       0.92503744       0.27863942       0.23824698 </v>
   <v>       0.07496258       0.72136058       0.76175299 </v>
   <v>       0.07496258       0.22136058       0.73824701 </v>
   <v>       0.92503744       0.77863942       0.26175302 </v>
   <v>       0.57496256       0.27863942       0.26175302 </v>
   <v>       0.42503741       0.72136058       0.73824701 </v>
   <v>       0.42503741       0.22136058       0.76175299 </v>
   <v>       0.57496256       0.77863942       0.23824698 </v>
   <v>       0.42503741       0.77863942       0.23824698 </v>
   <v>       0.57496256       0.22136058       0.76175299 </v>
   <v>       0.57496256       0.72136058       0.73824701 </v>
   <v>       0.42503741       0.27863942       0.26175302 </v>
   <v>       0.80278266       0.58221714       0.93157996 </v>
   <v>       0.19721734       0.41778286       0.06842004 </v>
   <v>       0.19721734       0.91778286       0.43157996 </v>
   <v>       0.80278266       0.08221714       0.56842004 </v>
   <v>       0.19721734       0.08221714       0.56842004 </v>
   <v>       0.80278266       0.91778286       0.43157996 </v>
   <v>       0.80278266       0.41778286       0.06842004 </v>
   <v>       0.19721734       0.58221714       0.93157996 </v>
   <v>       0.30278266       0.08221714       0.93157996 </v>
   <v>       0.69721734       0.91778286       0.06842004 </v>
   <v>       0.69721734       0.41778286       0.43157996 </v>
   <v>       0.30278266       0.58221714       0.56842004 </v>
   <v>       0.69721734       0.58221714       0.56842004 </v>
   <v>       0.30278266       0.41778286       0.43157996 </v>
   <v>       0.30278266       0.91778286       0.06842004 </v>
   <v>       0.69721734       0.08221714       0.93157996 </v>
   <v>       0.69676663       0.56851243       0.08242000 </v>
   <v>       0.30323337       0.43148757       0.91758000 </v>
   <v>       0.30323337       0.93148757       0.58242000 </v>
   <v>       0.69676663       0.06851243       0.41758000 </v>
   <v>       0.30323337       0.06851243       0.41758000 </v>
   <v>       0.69676663       0.93148757       0.58242000 </v>
   <v>       0.69676663       0.43148757       0.91758000 </v>
   <v>       0.30323337       0.56851243       0.08242000 </v>
   <v>       0.19676663       0.06851243       0.08242000 </v>
   <v>       0.80323337       0.93148757       0.91758000 </v>
   <v>       0.80323337       0.43148757       0.58242000 </v>
   <v>       0.19676663       0.56851243       0.41758000 </v>
   <v>       0.80323337       0.56851243       0.41758000 </v>
   <v>       0.19676663       0.43148757       0.58242000 </v>
   <v>       0.19676663       0.93148757       0.91758000 </v>
   <v>       0.80323337       0.06851243       0.08242000 </v>
   <v>       0.00000000       0.60141758       0.20663685 </v>
   <v>       0.00000000       0.39858242       0.79336312 </v>
   <v>       0.00000000       0.89858242       0.70663688 </v>
   <v>       0.00000000       0.10141758       0.29336315 </v>
   <v>       0.50000000       0.10141758       0.20663685 </v>
   <v>       0.50000000       0.89858242       0.79336312 </v>
   <v>       0.50000000       0.39858242       0.70663688 </v>
   <v>       0.50000000       0.60141758       0.29336315 </v>
   <v>       0.00000000       0.22802544       0.92368784 </v>
   <v>       0.00000000       0.77197456       0.07631216 </v>
   <v>       0.00000000       0.27197456       0.42368784 </v>
   <v>       0.00000000       0.72802544       0.57631216 </v>
   <v>       0.50000000       0.72802544       0.92368784 </v>
   <v>       0.50000000       0.27197456       0.07631216 </v>
   <v>       0.50000000       0.77197456       0.42368784 </v>
   <v>       0.50000000       0.22802544       0.57631216 </v>
   <v>       0.00000000       0.23254117       0.29842156 </v>
   <v>       0.00000000       0.76745883       0.70157842 </v>
   <v>       0.00000000       0.26745883       0.79842158 </v>
   <v>       0.00000000       0.73254117       0.20157842 </v>
   <v>       0.50000000       0.73254117       0.29842156 </v>
   <v>       0.50000000       0.26745883       0.70157842 </v>
   <v>       0.50000000       0.76745883       0.79842158 </v>
   <v>       0.50000000       0.23254117       0.20157842 </v>
   <v>       0.74967585       0.50000000       0.00000000 </v>
   <v>       0.25032415       0.50000000       0.00000000 </v>
   <v>       0.25032415       0.00000000       0.50000000 </v>
   <v>       0.74967585       0.00000000       0.50000000 </v>
   <v>       0.24967585       0.00000000       0.00000000 </v>
   <v>       0.75032415       0.00000000       0.00000000 </v>
   <v>       0.75032415       0.50000000       0.50000000 </v>
   <v>       0.24967585       0.50000000       0.50000000 </v>
  </varray>
 </structure>
 <calculation>
  <scstep>
   <time name="dav">  238.48  477.26</time>
   <time name="total">  239.24  478.78</time>
   <energy>
    <i name="alphaZ">     71.45224998 </i>
    <i name="ewald">  -1201.96934967 </i>
    <i name="hartreedc">  -1210.49819230 </i>
    <i name="XCdc">    365.16463515 </i>
    <i name="pawpsdc">    655.30793496 </i>
    <i name="pawaedc">   -674.29210410 </i>
    <i name="eentropy">      0.00000000 </i>
    <i name="bandstr">   -709.60661678 </i>
    <i name="atom">   3153.63586372 </i>
    <i name="e_fr_energy">    449.19442096 </i>
    <i name="e_wo_entrp">    449.19442096 </i>
    <i name="e_0_energy">    449.19442096 </i>
   </energy>
  </scstep>
  <scstep>
   <time name="dav">  279.65  559.58</time>
   <time name="total">  279.68  559.64</time>
   <energy>
    <i name="e_fr_energy">   -346.79213592 </i>
    <i name="e_wo_entrp">   -346.79213592 </i>
    <i name="e_0_energy">   -346.79213592 </i>
   </energy>
  </scstep>
  <scstep>
   <time name="dav">  295.70  591.68</time>
   <time name="total">  295.73  591.76</time>
   <energy>
    <i name="e_fr_energy">   -430.91163562 </i>
    <i name="e_wo_entrp">   -430.91163562 </i>
    <i name="e_0_energy">   -430.91163562 </i>
   </energy>
  </scstep>
  <scstep>
   <time name="dav">  288.93  578.14</time>
   <time name="total">  288.94  578.18</time>
   <energy>
    <i name="e_fr_energy">   -433.38434002 </i>
    <i name="e_wo_entrp">   -433.38434002 </i>
    <i name="e_0_energy">   -433.38434002 </i>
   </energy>
  </scstep>
  <scstep>
   <time name="dav">  291.18  582.61</time>
   <time name="total">  294.80  589.84</time>
   <energy>
    <i name="e_fr_energy">   -433.44730155 </i>
    <i name="e_wo_entrp">   -433.44730155 </i>
    <i name="e_0_energy">   -433.44730155 </i>
   </energy>
  </scstep>
  <scstep>
   <time name="dav">  258.15  516.57</time>
   <time name="total">  262.99  526.27</time>
   <energy>
    <i name="e_fr_energy">   -390.61974688 </i>
    <i name="e_wo_entrp">   -390.61974688 </i>
    <i name="e_0_energy">   -390.61974688 </i>
   </energy>
  </scstep>
  <scstep>
   <time name="dav">  275.24  550.76</time>
   <time name="total">  279.87  560.03</time>
   <energy>
    <i name="e_fr_energy">   -385.96265595 </i>
    <i name="e_wo_entrp">   -385.96265595 </i>
    <i name="e_0_energy">   -385.96265595 </i>
   </energy>
  </scstep>
  <scstep>
   <time name="dav">  265.36  530.99</time>
   <time name="total">  269.37  539.01</time>
   <energy>
    <i name="e_fr_energy">   -384.87127771 </i>
    <i name="e_wo_entrp">   -384.87127771 </i>
    <i name="e_0_energy">   -384.87127771 </i>
   </energy>
  </scstep>
  <scstep>
   <time name="dav">  287.75  575.78</time>
   <time name="total">  292.52  585.35</time>
   <energy>
    <i name="e_fr_energy">   -384.73443116 </i>
    <i name="e_wo_entrp">   -384.73443116 </i>
    <i name="e_0_energy">   -384.73443116 </i>
   </energy>
  </scstep>
  <scstep>
   <time name="dav">  256.78  513.82</time>
   <time name="total">  261.47  523.21</time>
   <energy>
    <i name="e_fr_energy">   -384.75395149 </i>
    <i name="e_wo_entrp">   -384.75395149 </i>
    <i name="e_0_energy">   -384.75395149 </i>
   </energy>
  </scstep>
  <scstep>
   <time name="dav">  275.35  550.99</time>
   <time name="total">  279.76  559.80</time>
   <energy>
    <i name="e_fr_energy">   -384.74820680 </i>
    <i name="e_wo_entrp">   -384.74820680 </i>
    <i name="e_0_energy">   -384.74820680 </i>
   </energy>
  </scstep>
  <scstep>
   <time name="dav">  278.79  557.86</time>
   <time name="total">  283.18  566.65</time>
   <energy>
    <i name="e_fr_energy">   -384.74856177 </i>
    <i name="e_wo_entrp">   -384.74856177 </i>
    <i name="e_0_energy">   -384.74856177 </i>
   </energy>
  </scstep>
  <scstep>
   <time name="dav">  272.83  545.92</time>
   <time name="total">  277.58  555.43</time>
   <energy>
    <i name="e_fr_energy">   -384.74852915 </i>
    <i name="e_wo_entrp">   -384.74852915 </i>
    <i name="e_0_energy">   -384.74852915 </i>
   </energy>
  </scstep>
  <scstep>
   <time name="dav">  282.64  565.52</time>
   <time name="total">  287.22  574.68</time>
   <energy>
    <i name="e_fr_energy">   -384.74853983 </i>
    <i name="e_wo_entrp">   -384.74853983 </i>
    <i name="e_0_energy">   -384.74853983 </i>
   </energy>
  </scstep>
  <scstep>
   <time name="dav">  301.77  603.78</time>
   <time name="total">  306.32  612.90</time>
   <energy>
    <i name="e_fr_energy">   -384.74853811 </i>
    <i name="e_wo_entrp">   -384.74853811 </i>
    <i name="e_0_energy">   -384.74853811 </i>
   </energy>
  </scstep>
  <scstep>
   <time name="dav">  209.35  418.92</time>
   <time name="total">  210.05  420.29</time>
   <energy>
    <i name="alphaZ">     71.45224998 </i>
    <i name="ewald">  -1201.96934967 </i>
    <i name="hartreedc">  -1656.72425272 </i>
    <i name="XCdc">    404.28791162 </i>
    <i name="pawpsdc">   1392.82740447 </i>
    <i name="pawaedc">  -1415.11299497 </i>
    <i name="eentropy">      0.00000000 </i>
    <i name="bandstr">  -1133.14537021 </i>
    <i name="atom">   3153.63586372 </i>
    <i name="e_fr_energy">   -384.74853778 </i>
    <i name="e_wo_entrp">   -384.74853778 </i>
    <i name="e_0_energy">   -384.74853778 </i>
   </energy>
  </scstep>
  <structure>
   <crystal>
    <varray name="basis" >
     <v>      12.08583241       0.00000000       0.00000000 </v>
     <v>       0.00000000       8.45365112       0.00000000 </v>
     <v>       0.00000000       0.00000000       8.44838721 </v>
    </varray>
    <i name="volume">    863.16674222 </i>
    <varray name="rec_basis" >
     <v>       0.08274151       0.00000000       0.00000000 </v>
     <v>       0.00000000       0.11829208       0.00000000 </v>
     <v>       0.00000000       0.00000000       0.11836579 </v>
    </varray>
   </crystal>
   <varray name="positions" >
    <v>       0.07496258       0.77863942       0.26175302 </v>
    <v>       0.92503744       0.22136058       0.73824701 </v>
    <v>       0.92503744       0.72136058       0.76175299 </v>
    <v>       0.07496258       0.27863942       0.23824698 </v>
    <v>       0.92503744       0.27863942       0.23824698 </v>
    <v>       0.07496258       0.72136058       0.76175299 </v>
    <v>       0.07496258       0.22136058       0.73824701 </v>
    <v>       0.92503744       0.77863942       0.26175302 </v>
    <v>       0.57496256       0.27863942       0.26175302 </v>
    <v>       0.42503741       0.72136058       0.73824701 </v>
    <v>       0.42503741       0.22136058       0.76175299 </v>
    <v>       0.57496256       0.77863942       0.23824698 </v>
    <v>       0.42503741       0.77863942       0.23824698 </v>
    <v>       0.57496256       0.22136058       0.76175299 </v>
    <v>       0.57496256       0.72136058       0.73824701 </v>
    <v>       0.42503741       0.27863942       0.26175302 </v>
    <v>       0.80278266       0.58221714       0.93157996 </v>
    <v>       0.19721734       0.41778286       0.06842004 </v>
    <v>       0.19721734       0.91778286       0.43157996 </v>
    <v>       0.80278266       0.08221714       0.56842004 </v>
    <v>       0.19721734       0.08221714       0.56842004 </v>
    <v>       0.80278266       0.91778286       0.43157996 </v>
    <v>       0.80278266       0.41778286       0.06842004 </v>
    <v>       0.19721734       0.58221714       0.93157996 </v>
    <v>       0.30278266       0.08221714       0.93157996 </v>
    <v>       0.69721734       0.91778286       0.06842004 </v>
    <v>       0.69721734       0.41778286       0.43157996 </v>
    <v>       0.30278266       0.58221714       0.56842004 </v>
    <v>       0.69721734       0.58221714       0.56842004 </v>
    <v>       0.30278266       0.41778286       0.43157996 </v>
    <v>       0.30278266       0.91778286       0.06842004 </v>
    <v>       0.69721734       0.08221714       0.93157996 </v>
    <v>       0.69676663       0.56851243       0.08242000 </v>
    <v>       0.30323337       0.43148757       0.91758000 </v>
    <v>       0.30323337       0.93148757       0.58242000 </v>
    <v>       0.69676663       0.06851243       0.41758000 </v>
    <v>       0.30323337       0.06851243       0.41758000 </v>
    <v>       0.69676663       0.93148757       0.58242000 </v>
    <v>       0.69676663       0.43148757       0.91758000 </v>
    <v>       0.30323337       0.56851243       0.08242000 </v>
    <v>       0.19676663       0.06851243       0.08242000 </v>
    <v>       0.80323337       0.93148757       0.91758000 </v>
    <v>       0.80323337       0.43148757       0.58242000 </v>
    <v>       0.19676663       0.56851243       0.41758000 </v>
    <v>       0.80323337       0.56851243       0.41758000 </v>
    <v>       0.19676663       0.43148757       0.58242000 </v>
    <v>       0.19676663       0.93148757       0.91758000 </v>
    <v>       0.80323337       0.06851243       0.08242000 </v>
    <v>       0.00000000       0.60141758       0.20663685 </v>
    <v>       0.00000000       0.39858242       0.79336312 </v>
    <v>       0.00000000       0.89858242       0.70663688 </v>
    <v>       0.00000000       0.10141758       0.29336315 </v>
    <v>       0.50000000       0.10141758       0.20663685 </v>
    <v>       0.50000000       0.89858242       0.79336312 </v>
    <v>       0.50000000       0.39858242       0.70663688 </v>
    <v>       0.50000000       0.60141758       0.29336315 </v>
    <v>       0.00000000       0.22802544       0.92368784 </v>
    <v>       0.00000000       0.77197456       0.07631216 </v>
    <v>       0.00000000       0.27197456       0.42368784 </v>
    <v>       0.00000000       0.72802544       0.57631216 </v>
    <v>       0.50000000       0.72802544       0.92368784 </v>
    <v>       0.50000000       0.27197456       0.07631216 </v>
    <v>       0.50000000       0.77197456       0.42368784 </v>
    <v>       0.50000000       0.22802544       0.57631216 </v>
    <v>       0.00000000       0.23254117       0.29842156 </v>
    <v>       0.00000000       0.76745883       0.70157842 </v>
    <v>       0.00000000       0.26745883       0.79842158 </v>
    <v>       0.00000000       0.73254117       0.20157842 </v>
    <v>       0.50000000       0.73254117       0.29842156 </v>
    <v>       0.50000000       0.26745883       0.70157842 </v>
    <v>       0.50000000       0.76745883       0.79842158 </v>
    <v>       0.50000000       0.23254117       0.20157842 </v>
    <v>       0.74967585       0.50000000       0.00000000 </v>
    <v>       0.25032415       0.50000000       0.00000000 </v>
    <v>       0.25032415       0.00000000       0.50000000 </v>
    <v>       0.74967585       0.00000000       0.50000000 </v>
    <v>       0.24967585       0.00000000       0.00000000 </v>
    <v>       0.75032415       0.00000000       0.00000000 </v>
    <v>       0.75032415       0.50000000       0.50000000 </v>
    <v>       0.24967585       0.50000000       0.50000000 </v>
   </varray>
  </structure>
  <varray name="forces" >
   <v>      -0.34244988      -0.14400360      -0.20401014 </v>
   <v>       0.34244988       0.14400360       0.20401014 </v>
   <v>       0.34244988       0.14400360      -0.20401014 </v>
   <v>      -0.34244988      -0.14400360       0.20401014 </v>
   <v>       0.34244988      -0.14400360       0.20401014 </v>
   <v>      -0.34244988       0.14400360      -0.20401014 </v>
   <v>      -0.34244988       0.14400360       0.20401014 </v>
   <v>       0.34244988      -0.14400360      -0.20401014 </v>
   <v>      -0.34244988      -0.14400360      -0.20401014 </v>
   <v>       0.34244988       0.14400360       0.20401014 </v>
   <v>       0.34244988       0.14400360      -0.20401014 </v>
   <v>      -0.34244988      -0.14400360       0.20401014 </v>
   <v>       0.34244988      -0.14400360       0.20401014 </v>
   <v>      -0.34244988       0.14400360      -0.20401014 </v>
   <v>      -0.34244988       0.14400360       0.20401014 </v>
   <v>       0.34244988      -0.14400360      -0.20401014 </v>
   <v>      -0.24420026      -0.25385648       0.21737602 </v>
   <v>       0.24420026       0.25385648      -0.21737602 </v>
   <v>       0.24420026       0.25385648       0.21737602 </v>
   <v>      -0.24420026      -0.25385648      -0.21737602 </v>
   <v>       0.24420026      -0.25385648      -0.21737602 </v>
   <v>      -0.24420026       0.25385648       0.21737602 </v>
   <v>      -0.24420026       0.25385648      -0.21737602 </v>
   <v>       0.24420026      -0.25385648       0.21737602 </v>
   <v>      -0.24420026      -0.25385648       0.21737602 </v>
   <v>       0.24420026       0.25385648      -0.21737602 </v>
   <v>       0.24420026       0.25385648       0.21737602 </v>
   <v>      -0.24420026      -0.25385648      -0.21737602 </v>
   <v>       0.24420026      -0.25385648      -0.21737602 </v>
   <v>      -0.24420026       0.25385648       0.21737602 </v>
   <v>      -0.24420026       0.25385648      -0.21737602 </v>
   <v>       0.24420026      -0.25385648       0.21737602 </v>
   <v>       0.23615423      -0.21835170      -0.25616659 </v>
   <v>      -0.23615423       0.21835170       0.25616659 </v>
   <v>      -0.23615423       0.21835170      -0.25616659 </v>
   <v>       0.23615423      -0.21835170       0.25616659 </v>
   <v>      -0.23615423      -0.21835170       0.25616659 </v>
   <v>       0.23615423       0.21835170      -0.25616659 </v>
   <v>       0.23615423       0.21835170       0.25616659 </v>
   <v>      -0.23615423      -0.21835170      -0.25616659 </v>
   <v>       0.23615423      -0.21835170      -0.25616659 </v>
   <v>      -0.23615423       0.21835170       0.25616659 </v>
   <v>      -0.23615423       0.21835170      -0.25616659 </v>
   <v>       0.23615423      -0.21835170       0.25616659 </v>
   <v>      -0.23615423      -0.21835170       0.25616659 </v>
   <v>       0.23615423       0.21835170      -0.25616659 </v>
   <v>       0.23615423       0.21835170       0.25616659 </v>
   <v>      -0.23615423      -0.21835170      -0.25616659 </v>
   <v>       0.00000000       0.42335457      -0.02694979 </v>
   <v>       0.00000000      -0.42335457       0.02694979 </v>
   <v>       0.00000000      -0.42335457      -0.02694979 </v>
   <v>       0.00000000       0.42335457       0.02694979 </v>
   <v>       0.00000000       0.42335457      -0.02694979 </v>
   <v>       0.00000000      -0.42335457       0.02694979 </v>
   <v>       0.00000000      -0.42335457      -0.02694979 </v>
   <v>       0.00000000       0.42335457       0.02694979 </v>
   <v>       0.00000000       0.13783190      -0.42014696 </v>
   <v>       0.00000000      -0.13783190       0.42014696 </v>
   <v>       0.00000000      -0.13783190      -0.42014696 </v>
   <v>       0.00000000       0.13783190       0.42014696 </v>
   <v>       0.00000000       0.13783190      -0.42014696 </v>
   <v>       0.00000000      -0.13783190       0.42014696 </v>
   <v>       0.00000000      -0.13783190      -0.42014696 </v>
   <v>       0.00000000       0.13783190       0.42014696 </v>
   <v>       0.00000000       0.00023469       0.00986194 </v>
   <v>       0.00000000      -0.00023469      -0.00986194 </v>
   <v>       0.00000000      -0.00023469       0.00986194 </v>
   <v>       0.00000000       0.00023469      -0.00986194 </v>
   <v>       0.00000000       0.00023469       0.00986194 </v>
   <v>       0.00000000      -0.00023469      -0.00986194 </v>
   <v>       0.00000000      -0.00023469       0.00986194 </v>
   <v>       0.00000000       0.00023469      -0.00986194 </v>
   <v>      -0.00137361       0.00000000      -0.00000000 </v>
   <v>       0.00137361       0.00000000      -0.00000000 </v>
   <v>       0.00137361       0.00000000      -0.00000000 </v>
   <v>      -0.00137361       0.00000000      -0.00000000 </v>
   <v>      -0.00137361       0.00000000      -0.00000000 </v>
   <v>       0.00137361       0.00000000      -0.00000000 </v>
   <v>       0.00137361       0.00000000      -0.00000000 </v>
   <v>      -0.00137361       0.00000000      -0.00000000 </v>
  </varray>
  <varray name="stress" >
   <v>     -21.54853700       0.00000000       0.00000000 </v>
   <v>       0.00000000     -21.53330926      -0.00000000 </v>
   <v>       0.00000000       0.00000000     -21.87077997 </v>
  </varray>
  <energy>
   <i name="e_fr_energy">   -387.11902302 </i>
   <i name="e_wo_entrp">   -387.11902302 </i>
   <i name="e_0_energy">      0.00000000 </i>
  </energy>
  <time name="totalsc"> 4681.04 9366.72</time>
 </calculation>
 <calculation>
  <scstep>
   <time name="dav">  254.34  508.94</time>
   <time name="total">  258.73  517.71</time>
   <energy>
    <i name="alphaZ">     71.45224998 </i>
    <i name="ewald">  -1138.06024874 </i>
    <i name="hartreedc">  -1689.03772701 </i>
    <i name="XCdc">    406.40818950 </i>
    <i name="pawpsdc">   1392.83652188 </i>
    <i name="pawaedc">  -1415.12257774 </i>
    <i name="eentropy">      0.00000000 </i>
    <i name="bandstr">  -1167.12701650 </i>
    <i name="atom">   3153.63586372 </i>
    <i name="e_fr_energy">   -385.01474490 </i>
    <i name="e_wo_entrp">   -385.01474490 </i>
    <i name="e_0_energy">   -385.01474490 </i>
   </energy>
  </scstep>
  <scstep>
   <time name="dav">  290.20  580.66</time>
   <time name="total">  294.64  589.56</time>
   <energy>
    <i name="e_fr_energy">   -384.90288339 </i>
    <i name="e_wo_entrp">   -384.90288339 </i>
    <i name="e_0_energy">   -384.90288339 </i>
   </energy>
  </scstep>
  <scstep>
   <time name="dav">  279.92  560.13</time>
   <time name="total">  284.51  569.31</time>
   <energy>
    <i name="e_fr_energy">   -384.89455772 </i>
    <i name="e_wo_entrp">   -384.89455772 </i>
    <i name="e_0_energy">   -384.89455772 </i>
   </energy>
  </scstep>
  <scstep>
   <time name="dav">  279.17  558.61</time>
   <time name="total">  283.44  567.15</time>
   <energy>
    <i name="e_fr_energy">   -384.89097825 </i>
    <i name="e_wo_entrp">   -384.89097825 </i>
    <i name="e_0_energy">   -384.89097825 </i>
   </energy>
  </scstep>
  <scstep>
   <time name="dav">  287.53  575.33</time>
   <time name="total">  292.28  584.84</time>
   <energy>
    <i name="e_fr_energy">   -384.89012978 </i>
    <i name="e_wo_entrp">   -384.89012978 </i>
    <i name="e_0_energy">   -384.89012978 </i>
   </energy>
  </scstep>
  <scstep>
   <time name="dav">  272.86  544.32</time>
   <time name="total">  277.71  554.03</time>
   <energy>
    <i name="e_fr_energy">   -384.88975618 </i>
    <i name="e_wo_entrp">   -384.88975618 </i>
    <i name="e_0_energy">   -384.88975618 </i>
   </energy>
  </scstep>
  <scstep>
   <time name="dav">  271.28  542.82</time>
   <time name="total">  275.71  551.68</time>
   <energy>
    <i name="e_fr_energy">   -384.88971201 </i>
    <i name="e_wo_entrp">   -384.88971201 </i>
    <i name="e_0_energy">   -384.88971201 </i>
   </energy>
  </scstep>
  <scstep>
   <time name="dav">  304.87  610.04</time>
   <time name="total">  309.81  619.92</time>
   <energy>
    <i name="e_fr_energy">   -384.88970546 </i>
    <i name="e_wo_entrp">   -384.88970546 </i>
    <i name="e_0_energy">   -384.88970546 </i>
   </energy>
  </scstep>
  <scstep>
   <time name="dav">  282.75  545.98</time>
   <time name="total">  286.91  553.01</time>
   <energy>
    <i name="e_fr_energy">   -384.88970355 </i>
    <i name="e_wo_entrp">   -384.88970355 </i>
    <i name="e_0_energy">   -384.88970355 </i>
   </energy>
  </scstep>
  <scstep>
   <time name="dav">  251.71  379.83</time>
   <time name="total">  256.44  386.53</time>
   <energy>
    <i name="e_fr_energy">   -384.88968858 </i>
    <i name="e_wo_entrp">   -384.88968858 </i>
    <i name="e_0_energy">   -384.88968858 </i>
   </energy>
  </scstep>
  <scstep>
   <time name="dav">  208.24  314.31</time>
   <time name="total">  208.90  315.21</time>
   <energy>
    <i name="alphaZ">     71.45224998 </i>
    <i name="ewald">  -1138.06024874 </i>
    <i name="hartreedc">  -1709.05416424 </i>
    <i name="XCdc">    407.76582073 </i>
    <i name="pawpsdc">   1460.00114178 </i>
    <i name="pawaedc">  -1482.59923401 </i>
    <i name="eentropy">      0.00000000 </i>
    <i name="bandstr">  -1148.03111816 </i>
    <i name="atom">   3153.63586372 </i>
    <i name="e_fr_energy">   -384.88968893 </i>
    <i name="e_wo_entrp">   -384.88968893 </i>
    <i name="e_0_energy">   -384.88968893 </i>
   </energy>
  </scstep>
  <structure>
   <crystal>
    <varray name="basis" >
     <v>      12.08583241       0.00000000       0.00000000 </v>
     <v>       0.00000000       8.45365112       0.00000000 </v>
     <v>       0.00000000       0.00000000       8.44838721 </v>
    </varray>
    <i name="volume">    863.16674222 </i>
    <varray name="rec_basis" >
     <v>       0.08274151       0.00000000       0.00000000 </v>
     <v>       0.00000000       0.11829208       0.00000000 </v>
     <v>       0.00000000       0.00000000       0.11836579 </v>
    </varray>
   </crystal>
   <varray name="positions" >
    <v>       0.07359563       0.77781764       0.26058807 </v>
    <v>       0.92640439       0.22218236       0.73941196 </v>
    <v>       0.92640439       0.72218236       0.76058804 </v>
    <v>       0.07359563       0.27781764       0.23941193 </v>
    <v>       0.92640439       0.27781764       0.23941193 </v>
    <v>       0.07359563       0.72218236       0.76058804 </v>
    <v>       0.07359563       0.22218236       0.73941196 </v>
    <v>       0.92640439       0.77781764       0.26058807 </v>
    <v>       0.57359561       0.27781764       0.26058807 </v>
    <v>       0.42640436       0.72218236       0.73941196 </v>
    <v>       0.42640436       0.22218236       0.76058804 </v>
    <v>       0.57359561       0.77781764       0.23941193 </v>
    <v>       0.42640436       0.77781764       0.23941193 </v>
    <v>       0.57359561       0.22218236       0.76058804 </v>
    <v>       0.57359561       0.72218236       0.73941196 </v>
    <v>       0.42640436       0.27781764       0.26058807 </v>
    <v>       0.80180790       0.58076845       0.93282124 </v>
    <v>       0.19819210       0.41923155       0.06717876 </v>
    <v>       0.19819210       0.91923155       0.43282124 </v>
    <v>       0.80180790       0.08076845       0.56717876 </v>
    <v>       0.19819210       0.08076845       0.56717876 </v>
    <v>       0.80180790       0.91923155       0.43282124 </v>
    <v>       0.80180790       0.41923155       0.06717876 </v>
    <v>       0.19819210       0.58076845       0.93282124 </v>
    <v>       0.30180790       0.08076845       0.93282124 </v>
    <v>       0.69819210       0.91923155       0.06717876 </v>
    <v>       0.69819210       0.41923155       0.43282124 </v>
    <v>       0.30180790       0.58076845       0.56717876 </v>
    <v>       0.69819210       0.58076845       0.56717876 </v>
    <v>       0.30180790       0.41923155       0.43282124 </v>
    <v>       0.30180790       0.91923155       0.06717876 </v>
    <v>       0.69819210       0.08076845       0.93282124 </v>
    <v>       0.69770928       0.56726636       0.08095722 </v>
    <v>       0.30229072       0.43273364       0.91904278 </v>
    <v>       0.30229072       0.93273364       0.58095722 </v>
    <v>       0.69770928       0.06726636       0.41904278 </v>
    <v>       0.30229072       0.06726636       0.41904278 </v>
    <v>       0.69770928       0.93273364       0.58095722 </v>
    <v>       0.69770928       0.43273364       0.91904278 </v>
    <v>       0.30229072       0.56726636       0.08095722 </v>
    <v>       0.19770928       0.06726636       0.08095722 </v>
    <v>       0.80229072       0.93273364       0.91904278 </v>
    <v>       0.80229072       0.43273364       0.58095722 </v>
    <v>       0.19770928       0.56726636       0.41904278 </v>
    <v>       0.80229072       0.56726636       0.41904278 </v>
    <v>       0.19770928       0.43273364       0.58095722 </v>
    <v>       0.19770928       0.93273364       0.91904278 </v>
    <v>       0.80229072       0.06726636       0.08095722 </v>
    <v>       0.00000000       0.60383354       0.20648296 </v>
    <v>       0.00000000       0.39616646       0.79351701 </v>
    <v>       0.00000000       0.89616646       0.70648299 </v>
    <v>       0.00000000       0.10383354       0.29351704 </v>
    <v>       0.50000000       0.10383354       0.20648296 </v>
    <v>       0.50000000       0.89616646       0.79351701 </v>
    <v>       0.50000000       0.39616646       0.70648299 </v>
    <v>       0.50000000       0.60383354       0.29351704 </v>
    <v>       0.00000000       0.22881201       0.92128868 </v>
    <v>       0.00000000       0.77118799       0.07871132 </v>
    <v>       0.00000000       0.27118799       0.42128868 </v>
    <v>       0.00000000       0.72881201       0.57871132 </v>
    <v>       0.50000000       0.72881201       0.92128868 </v>
    <v>       0.50000000       0.27118799       0.07871132 </v>
    <v>       0.50000000       0.77118799       0.42128868 </v>
    <v>       0.50000000       0.22881201       0.57871132 </v>
    <v>       0.00000000       0.23254251       0.29847788 </v>
    <v>       0.00000000       0.76745749       0.70152211 </v>
    <v>       0.00000000       0.26745749       0.79847789 </v>
    <v>       0.00000000       0.73254251       0.20152211 </v>
    <v>       0.50000000       0.73254251       0.29847788 </v>
    <v>       0.50000000       0.26745749       0.70152211 </v>
    <v>       0.50000000       0.76745749       0.79847789 </v>
    <v>       0.50000000       0.23254251       0.20152211 </v>
    <v>       0.74967036       0.50000000      -0.00000000 </v>
    <v>       0.25032964       0.50000000      -0.00000000 </v>
    <v>       0.25032964       0.00000000       0.50000000 </v>
    <v>       0.74967036       0.00000000       0.50000000 </v>
    <v>       0.24967036       0.00000000      -0.00000000 </v>
    <v>       0.75032964       0.00000000      -0.00000000 </v>
    <v>       0.75032964       0.50000000       0.50000000 </v>
    <v>       0.24967036       0.50000000       0.50000000 </v>
   </varray>
  </structure>
  <varray name="forces" >
   <v>       0.18475816       0.08126285       0.09443345 </v>
   <v>      -0.18475816      -0.08126285      -0.09443345 </v>
   <v>      -0.18475816      -0.08126285       0.09443345 </v>
   <v>       0.18475816       0.08126285      -0.09443345 </v>
   <v>      -0.18475816       0.08126285      -0.09443345 </v>
   <v>       0.18475816      -0.08126285       0.09443345 </v>
   <v>       0.18475816      -0.08126285      -0.09443345 </v>
   <v>      -0.18475816       0.08126285       0.09443345 </v>
   <v>       0.18475816       0.08126285       0.09443345 </v>
   <v>      -0.18475816      -0.08126285      -0.09443345 </v>
   <v>      -0.18475816      -0.08126285       0.09443345 </v>
   <v>       0.18475816       0.08126285      -0.09443345 </v>
   <v>      -0.18475816       0.08126285      -0.09443345 </v>
   <v>       0.18475816      -0.08126285       0.09443345 </v>
   <v>       0.18475816      -0.08126285      -0.09443345 </v>
   <v>      -0.18475816       0.08126285       0.09443345 </v>
   <v>       0.12717952       0.14749267      -0.11729605 </v>
   <v>      -0.12717952      -0.14749267       0.11729605 </v>
   <v>      -0.12717952      -0.14749267      -0.11729605 </v>
   <v>       0.12717952       0.14749267       0.11729605 </v>
   <v>      -0.12717952       0.14749267       0.11729605 </v>
   <v>       0.12717952      -0.14749267      -0.11729605 </v>
   <v>       0.12717952      -0.14749267       0.11729605 </v>
   <v>      -0.12717952       0.14749267      -0.11729605 </v>
   <v>       0.12717952       0.14749267      -0.11729605 </v>
   <v>      -0.12717952      -0.14749267       0.11729605 </v>
   <v>      -0.12717952      -0.14749267      -0.11729605 </v>
   <v>       0.12717952       0.14749267       0.11729605 </v>
   <v>      -0.12717952       0.14749267       0.11729605 </v>
   <v>       0.12717952      -0.14749267      -0.11729605 </v>
   <v>       0.12717952      -0.14749267       0.11729605 </v>
   <v>      -0.12717952       0.14749267      -0.11729605 </v>
   <v>      -0.13315870       0.11586967       0.14484121 </v>
   <v>       0.13315870      -0.11586967      -0.14484121 </v>
   <v>       0.13315870      -0.11586967       0.14484121 </v>
   <v>      -0.13315870       0.11586967      -0.14484121 </v>
   <v>       0.13315870       0.11586967      -0.14484121 </v>
   <v>      -0.13315870      -0.11586967       0.14484121 </v>
   <v>      -0.13315870      -0.11586967      -0.14484121 </v>
   <v>       0.13315870       0.11586967       0.14484121 </v>
   <v>      -0.13315870       0.11586967       0.14484121 </v>
   <v>       0.13315870      -0.11586967      -0.14484121 </v>
   <v>       0.13315870      -0.11586967       0.14484121 </v>
   <v>      -0.13315870       0.11586967      -0.14484121 </v>
   <v>       0.13315870       0.11586967      -0.14484121 </v>
   <v>      -0.13315870      -0.11586967       0.14484121 </v>
   <v>      -0.13315870      -0.11586967      -0.14484121 </v>
   <v>       0.13315870       0.11586967       0.14484121 </v>
   <v>       0.00000000      -0.23071027      -0.00052834 </v>
   <v>       0.00000000       0.23071027       0.00052834 </v>
   <v>       0.00000000       0.23071027      -0.00052834 </v>
   <v>       0.00000000      -0.23071027       0.00052834 </v>
   <v>       0.00000000      -0.23071027      -0.00052834 </v>
   <v>       0.00000000       0.23071027       0.00052834 </v>
   <v>       0.00000000       0.23071027      -0.00052834 </v>
   <v>       0.00000000      -0.23071027       0.00052834 </v>
   <v>       0.00000000      -0.07140820       0.24905722 </v>
   <v>       0.00000000       0.07140820      -0.24905722 </v>
   <v>       0.00000000       0.07140820       0.24905722 </v>
   <v>       0.00000000      -0.07140820      -0.24905722 </v>
   <v>       0.00000000      -0.07140820       0.24905722 </v>
   <v>       0.00000000       0.07140820      -0.24905722 </v>
   <v>       0.00000000       0.07140820       0.24905722 </v>
   <v>       0.00000000      -0.07140820      -0.24905722 </v>
   <v>       0.00000000      -0.00457767      -0.03920518 </v>
   <v>       0.00000000       0.00457767       0.03920518 </v>
   <v>       0.00000000       0.00457767      -0.03920518 </v>
   <v>       0.00000000      -0.00457767       0.03920518 </v>
   <v>       0.00000000      -0.00457767      -0.03920518 </v>
   <v>       0.00000000       0.00457767       0.03920518 </v>
   <v>       0.00000000       0.00457767      -0.03920518 </v>
   <v>       0.00000000      -0.00457767       0.03920518 </v>
   <v>      -0.00359489      -0.00000000       0.00000000 </v>
   <v>       0.00359489       0.00000000       0.00000000 </v>
   <v>       0.00359489      -0.00000000       0.00000000 </v>
   <v>      -0.00359489       0.00000000       0.00000000 </v>
   <v>      -0.00359489      -0.00000000       0.00000000 </v>
   <v>       0.00359489       0.00000000       0.00000000 </v>
   <v>       0.00359489      -0.00000000       0.00000000 </v>
   <v>      -0.00359489       0.00000000       0.00000000 </v>
  </varray>
  <varray name="stress" >
   <v>       6.08129268       0.00000000       0.00000000 </v>
   <v>       0.00000000       6.26431047       0.00000000 </v>
   <v>       0.00000000       0.00000000       6.54501061 </v>
  </varray>
  <energy>
   <i name="e_fr_energy">   -387.25111909 </i>
   <i name="e_wo_entrp">   -387.25111909 </i>
   <i name="e_0_energy">      0.00000000 </i>
  </energy>
  <time name="totalsc"> 3331.81 6254.16</time>
 </calculation>
 <calculation>
  <scstep>
   <time name="dav">  240.35  363.82</time>
   <time name="total">  244.69  370.81</time>
   <energy>
    <i name="alphaZ">     71.45224998 </i>
    <i name="ewald">  -1160.14982642 </i>
    <i name="hartreedc">  -1697.90474231 </i>
    <i name="XCdc">    407.03632926 </i>
    <i name="pawpsdc">   1459.98857888 </i>
    <i name="pawaedc">  -1482.58624155 </i>
    <i name="eentropy">      0.00000000 </i>
    <i name="bandstr">  -1136.42528905 </i>
    <i name="atom">   3153.63586372 </i>
    <i name="e_fr_energy">   -384.95307749 </i>
    <i name="e_wo_entrp">   -384.95307749 </i>
    <i name="e_0_energy">   -384.95307749 </i>
   </energy>
  </scstep>
  <scstep>
   <time name="dav">  267.78  399.61</time>
   <time name="total">  272.02  406.39</time>
   <energy>
    <i name="e_fr_energy">   -384.93872802 </i>
    <i name="e_wo_entrp">   -384.93872802 </i>
    <i name="e_0_energy">   -384.93872802 </i>
   </energy>
  </scstep>
  <scstep>
   <time name="dav">  267.21  403.85</time>
   <time name="total">  271.79  411.00</time>
   <energy>
    <i name="e_fr_energy">   -384.93768751 </i>
    <i name="e_wo_entrp">   -384.93768751 </i>
    <i name="e_0_energy">   -384.93768751 </i>
   </energy>
  </scstep>
  <scstep>
   <time name="dav">  246.35  349.81</time>
   <time name="total">  249.29  353.07</time>
   <energy>
    <i name="e_fr_energy">   -384.93735607 </i>
    <i name="e_wo_entrp">   -384.93735607 </i>
    <i name="e_0_energy">   -384.93735607 </i>
   </energy>
  </scstep>
  <scstep>
   <time name="dav">  174.20  174.29</time>
   <time name="total">  177.22  177.31</time>
   <energy>
    <i name="e_fr_energy">   -384.93721025 </i>
    <i name="e_wo_entrp">   -384.93721025 </i>
    <i name="e_0_energy">   -384.93721025 </i>
   </energy>
  </scstep>
  <scstep>
   <time name="dav">  160.56  160.64</time>
   <time name="total">  163.38  163.47</time>
   <energy>
    <i name="e_fr_energy">   -384.93717766 </i>
    <i name="e_wo_entrp">   -384.93717766 </i>
    <i name="e_0_energy">   -384.93717766 </i>
   </energy>
  </scstep>
  <scstep>
   <time name="dav">  165.46  165.54</time>
   <time name="total">  168.27  168.36</time>
   <energy>
    <i name="e_fr_energy">   -384.93717440 </i>
    <i name="e_wo_entrp">   -384.93717440 </i>
    <i name="e_0_energy">   -384.93717440 </i>
   </energy>
  </scstep>
  <scstep>
   <time name="dav">  118.59  118.65</time>
   <time name="total">  119.00  119.06</time>
   <energy>
    <i name="alphaZ">     71.45224998 </i>
    <i name="ewald">  -1160.14982642 </i>
    <i name="hartreedc">  -1691.03501155 </i>
    <i name="XCdc">    406.56831181 </i>
    <i name="pawpsdc">   1436.49851585 </i>
    <i name="pawaedc">  -1458.98870798 </i>
    <i name="eentropy">      0.00000000 </i>
    <i name="bandstr">  -1142.91856969 </i>
    <i name="atom">   3153.63586372 </i>
    <i name="e_fr_energy">   -384.93717428 </i>
    <i name="e_wo_entrp">   -384.93717428 </i>
    <i name="e_0_energy">   -384.93717428 </i>
   </energy>
  </scstep>
  <structure>
   <crystal>
    <varray name="basis" >
     <v>      12.08583241       0.00000000       0.00000000 </v>
     <v>       0.00000000       8.45365112       0.00000000 </v>
     <v>       0.00000000       0.00000000       8.44838721 </v>
    </varray>
    <i name="volume">    863.16674222 </i>
    <varray name="rec_basis" >
     <v>       0.08274151       0.00000000       0.00000000 </v>
     <v>       0.00000000       0.11829208       0.00000000 </v>
     <v>       0.00000000       0.00000000       0.11836579 </v>
    </varray>
   </crystal>
   <varray name="positions" >
    <v>       0.07406076       0.77809727       0.26098446 </v>
    <v>       0.92593926       0.22190273       0.73901556 </v>
    <v>       0.92593926       0.72190273       0.76098444 </v>
    <v>       0.07406076       0.27809727       0.23901554 </v>
    <v>       0.92593926       0.27809727       0.23901554 </v>
    <v>       0.07406076       0.72190273       0.76098444 </v>
    <v>       0.07406076       0.22190273       0.73901556 </v>
    <v>       0.92593926       0.77809727       0.26098446 </v>
    <v>       0.57406074       0.27809727       0.26098446 </v>
    <v>       0.42593923       0.72190273       0.73901556 </v>
    <v>       0.42593923       0.22190273       0.76098444 </v>
    <v>       0.57406074       0.77809727       0.23901554 </v>
    <v>       0.42593923       0.77809727       0.23901554 </v>
    <v>       0.57406074       0.22190273       0.76098444 </v>
    <v>       0.57406074       0.72190273       0.73901556 </v>
    <v>       0.42593923       0.27809727       0.26098446 </v>
    <v>       0.80213958       0.58126140       0.93239887 </v>
    <v>       0.19786042       0.41873860       0.06760113 </v>
    <v>       0.19786042       0.91873860       0.43239887 </v>
    <v>       0.80213958       0.08126140       0.56760113 </v>
    <v>       0.19786042       0.08126140       0.56760113 </v>
    <v>       0.80213958       0.91873860       0.43239887 </v>
    <v>       0.80213958       0.41873860       0.06760113 </v>
    <v>       0.19786042       0.58126140       0.93239887 </v>
    <v>       0.30213958       0.08126140       0.93239887 </v>
    <v>       0.69786042       0.91873860       0.06760113 </v>
    <v>       0.69786042       0.41873860       0.43239887 </v>
    <v>       0.30213958       0.58126140       0.56760113 </v>
    <v>       0.69786042       0.58126140       0.56760113 </v>
    <v>       0.30213958       0.41873860       0.43239887 </v>
    <v>       0.30213958       0.91873860       0.06760113 </v>
    <v>       0.69786042       0.08126140       0.93239887 </v>
    <v>       0.69738852       0.56769036       0.08145496 </v>
    <v>       0.30261148       0.43230964       0.91854504 </v>
    <v>       0.30261148       0.93230964       0.58145496 </v>
    <v>       0.69738852       0.06769036       0.41854504 </v>
    <v>       0.30261148       0.06769036       0.41854504 </v>
    <v>       0.69738852       0.93230964       0.58145496 </v>
    <v>       0.69738852       0.43230964       0.91854504 </v>
    <v>       0.30261148       0.56769036       0.08145496 </v>
    <v>       0.19738852       0.06769036       0.08145496 </v>
    <v>       0.80261148       0.93230964       0.91854504 </v>
    <v>       0.80261148       0.43230964       0.58145496 </v>
    <v>       0.19738852       0.56769036       0.41854504 </v>
    <v>       0.80261148       0.56769036       0.41854504 </v>
    <v>       0.19738852       0.43230964       0.58145496 </v>
    <v>       0.19738852       0.93230964       0.91854504 </v>
    <v>       0.80261148       0.06769036       0.08145496 </v>
    <v>       0.00000000       0.60301146       0.20653533 </v>
    <v>       0.00000000       0.39698854       0.79346464 </v>
    <v>       0.00000000       0.89698854       0.70653536 </v>
    <v>       0.00000000       0.10301146       0.29346467 </v>
    <v>       0.50000000       0.10301146       0.20653533 </v>
    <v>       0.50000000       0.89698854       0.79346464 </v>
    <v>       0.50000000       0.39698854       0.70653536 </v>
    <v>       0.50000000       0.60301146       0.29346467 </v>
    <v>       0.00000000       0.22854436       0.92210504 </v>
    <v>       0.00000000       0.77145564       0.07789496 </v>
    <v>       0.00000000       0.27145564       0.42210504 </v>
    <v>       0.00000000       0.72854436       0.57789496 </v>
    <v>       0.50000000       0.72854436       0.92210504 </v>
    <v>       0.50000000       0.27145564       0.07789496 </v>
    <v>       0.50000000       0.77145564       0.42210504 </v>
    <v>       0.50000000       0.22854436       0.57789496 </v>
    <v>       0.00000000       0.23254205       0.29845871 </v>
    <v>       0.00000000       0.76745795       0.70154127 </v>
    <v>       0.00000000       0.26745795       0.79845873 </v>
    <v>       0.00000000       0.73254205       0.20154127 </v>
    <v>       0.50000000       0.73254205       0.29845871 </v>
    <v>       0.50000000       0.26745795       0.70154127 </v>
    <v>       0.50000000       0.76745795       0.79845873 </v>
    <v>       0.50000000       0.23254205       0.20154127 </v>
    <v>       0.74967223       0.50000000      -0.00000000 </v>
    <v>       0.25032777       0.50000000      -0.00000000 </v>
    <v>       0.25032777       0.00000000       0.50000000 </v>
    <v>       0.74967223       0.00000000       0.50000000 </v>
    <v>       0.24967223       0.00000000      -0.00000000 </v>
    <v>       0.75032777       0.00000000      -0.00000000 </v>
    <v>       0.75032777       0.50000000       0.50000000 </v>
    <v>       0.24967223       0.50000000       0.50000000 </v>
   </varray>
  </structure>
  <varray name="forces" >
[...]
       <r>   -15.9928     0.0000     0.0000 </r>
       <r>   -15.9090     0.0000     0.0000 </r>
       <r>   -15.8253     0.0000     0.0000 </r>
       <r>   -15.7415     0.0000     0.0000 </r>
       <r>   -15.6577     0.0000     0.0000 </r>
       <r>   -15.5739     0.0000     0.0000 </r>
       <r>   -15.4902     0.0000     0.0000 </r>
       <r>   -15.4064     0.0000     0.0000 </r>
       <r>   -15.3226     0.0000     0.0000 </r>
       <r>   -15.2389     0.0000     0.0000 </r>
       <r>   -15.1551     0.0000     0.0000 </r>
       <r>   -15.0713     0.0000     0.0000 </r>
       <r>   -14.9875     0.0000     0.0000 </r>
       <r>   -14.9038     1.5118     0.0053 </r>
       <r>   -14.8200    25.7743     1.2099 </r>
       <r>   -14.7362    31.0993     4.2893 </r>
       <r>   -14.6524   141.0942    10.3904 </r>
       <r>   -14.5687   132.5638    20.9611 </r>
       <r>   -14.4849     0.0000    32.0000 </r>
       <r>   -14.4011     0.0000    32.0000 </r>
       <r>   -14.3174     0.0000    32.0000 </r>
       <r>   -14.2336     0.0000    32.0000 </r>
       <r>   -14.1498     0.0000    32.0000 </r>
       <r>   -14.0660     0.0000    32.0000 </r>
       <r>   -13.9823     0.0000    32.0000 </r>
       <r>   -13.8985     0.0000    32.0000 </r>
       <r>   -13.8147     0.0000    32.0000 </r>
       <r>   -13.7309     0.0000    32.0000 </r>
       <r>   -13.6472     0.0000    32.0000 </r>
       <r>   -13.5634     0.0000    32.0000 </r>
       <r>   -13.4796     0.0000    32.0000 </r>
       <r>   -13.3959     0.0000    32.0000 </r>
       <r>   -13.3121     0.0000    32.0000 </r>
       <r>   -13.2283     0.0000    32.0000 </r>
       <r>   -13.1445     0.0000    32.0000 </r>
       <r>   -13.0608     0.0000    32.0000 </r>
       <r>   -12.9770     0.0000    32.0000 </r>
       <r>   -12.8932     0.0000    32.0000 </r>
       <r>   -12.8095     0.0000    32.0000 </r>
       <r>   -12.7257     0.0000    32.0000 </r>
       <r>   -12.6419     0.0000    32.0000 </r>
       <r>   -12.5581     0.0000    32.0000 </r>
       <r>   -12.4744     0.0000    32.0000 </r>
       <r>   -12.3906     0.0000    32.0000 </r>
       <r>   -12.3068     0.0000    32.0000 </r>
       <r>   -12.2230     0.0000    32.0000 </r>
       <r>   -12.1393     0.0000    32.0000 </r>
       <r>   -12.0555     0.0000    32.0000 </r>
       <r>   -11.9717     0.0000    32.0000 </r>
       <r>   -11.8880     0.0000    32.0000 </r>
       <r>   -11.8042     0.0000    32.0000 </r>
       <r>   -11.7204     0.0000    32.0000 </r>
       <r>   -11.6366     0.0000    32.0000 </r>
       <r>   -11.5529     0.0000    32.0000 </r>
       <r>   -11.4691     0.0000    32.0000 </r>
       <r>   -11.3853     0.0000    32.0000 </r>
       <r>   -11.3015     0.0000    32.0000 </r>
       <r>   -11.2178     0.0000    32.0000 </r>
       <r>   -11.1340     0.0000    32.0000 </r>
       <r>   -11.0502     0.0000    32.0000 </r>
       <r>   -10.9665     0.0000    32.0000 </r>
       <r>   -10.8827     0.0000    32.0000 </r>
       <r>   -10.7989     0.0000    32.0000 </r>
       <r>   -10.7151     0.0000    32.0000 </r>
       <r>   -10.6314     0.0000    32.0000 </r>
       <r>   -10.5476     0.0000    32.0000 </r>
       <r>   -10.4638     0.0000    32.0000 </r>
       <r>   -10.3801     0.0000    32.0000 </r>
       <r>   -10.2963     0.0000    32.0000 </r>
       <r>   -10.2125     0.0000    32.0000 </r>
       <r>   -10.1287     0.0000    32.0000 </r>
       <r>   -10.0450     0.0000    32.0000 </r>
       <r>    -9.9612     0.0000    32.0000 </r>
       <r>    -9.8774     0.0000    32.0000 </r>
       <r>    -9.7936     0.0000    32.0000 </r>
       <r>    -9.7099     0.0000    32.0000 </r>
       <r>    -9.6261     0.0000    32.0000 </r>
       <r>    -9.5423     0.0000    32.0000 </r>
       <r>    -9.4586     0.0000    32.0000 </r>
       <r>    -9.3748     0.0000    32.0000 </r>
       <r>    -9.2910     0.0000    32.0000 </r>
       <r>    -9.2072     0.0000    32.0000 </r>
       <r>    -9.1235     0.0000    32.0000 </r>
       <r>    -9.0397     0.0000    32.0000 </r>
       <r>    -8.9559     0.0000    32.0000 </r>
       <r>    -8.8721     0.0000    32.0000 </r>
       <r>    -8.7884     0.0000    32.0000 </r>
       <r>    -8.7046     0.0000    32.0000 </r>
       <r>    -8.6208     0.0000    32.0000 </r>
       <r>    -8.5371     0.0000    32.0000 </r>
       <r>    -8.4533     0.0000    32.0000 </r>
       <r>    -8.3695     0.0000    32.0000 </r>
       <r>    -8.2857     0.0000    32.0000 </r>
       <r>    -8.2020     0.0000    32.0000 </r>
       <r>    -8.1182     0.0000    32.0000 </r>
       <r>    -8.0344     0.0000    32.0000 </r>
       <r>    -7.9507     0.0000    32.0000 </r>
       <r>    -7.8669     0.0000    32.0000 </r>
       <r>    -7.7831     0.0000    32.0000 </r>
       <r>    -7.6993     0.0000    32.0000 </r>
       <r>    -7.6156    31.3129    32.5900 </r>
       <r>    -7.5318    68.3813    36.9168 </r>
       <r>    -7.4480   106.6387    44.4851 </r>
       <r>    -7.3642    66.4625    51.7092 </r>
       <r>    -7.2805    46.5496    57.3485 </r>
       <r>    -7.1967    36.6424    61.8454 </r>
       <r>    -7.1129    59.8865    65.8227 </r>
       <r>    -7.0292    68.3713    71.6412 </r>
       <r>    -6.9454    88.8695    77.7592 </r>
       <r>    -6.8616   178.6151    90.4907 </r>
       <r>    -6.7778   216.5002   105.7322 </r>
       <r>    -6.6941   181.5302   121.0245 </r>
       <r>    -6.6103     1.4023   127.9955 </r>
       <r>    -6.5265     0.0000   128.0000 </r>
       <r>    -6.4427     0.0000   128.0000 </r>
       <r>    -6.3590     0.0000   128.0000 </r>
       <r>    -6.2752     0.0000   128.0000 </r>
       <r>    -6.1914     0.0000   128.0000 </r>
       <r>    -6.1077     0.0000   128.0000 </r>
       <r>    -6.0239     0.0000   128.0000 </r>
       <r>    -5.9401     0.0000   128.0000 </r>
       <r>    -5.8563     0.0000   128.0000 </r>
       <r>    -5.7726     0.0000   128.0000 </r>
       <r>    -5.6888     0.0000   128.0000 </r>
       <r>    -5.6050     0.0000   128.0000 </r>
       <r>    -5.5213     0.0000   128.0000 </r>
       <r>    -5.4375     0.0000   128.0000 </r>
       <r>    -5.3537     0.0000   128.0000 </r>
       <r>    -5.2699     0.0000   128.0000 </r>
       <r>    -5.1862     0.0000   128.0000 </r>
       <r>    -5.1024     0.0000   128.0000 </r>
       <r>    -5.0186     0.0000   128.0000 </r>
       <r>    -4.9348     0.0000   128.0000 </r>
       <r>    -4.8511     0.0000   128.0000 </r>
       <r>    -4.7673     0.0000   128.0000 </r>
       <r>    -4.6835     0.0000   128.0000 </r>
       <r>    -4.5998     0.0000   128.0000 </r>
       <r>    -4.5160     0.0000   128.0000 </r>
       <r>    -4.4322     0.0000   128.0000 </r>
       <r>    -4.3484     0.0000   128.0000 </r>
       <r>    -4.2647     0.0000   128.0000 </r>
       <r>    -4.1809     0.0000   128.0000 </r>
       <r>    -4.0971     0.0000   128.0000 </r>
       <r>    -4.0133     0.0000   128.0000 </r>
       <r>    -3.9296     0.0000   128.0000 </r>
       <r>    -3.8458     0.0000   128.0000 </r>
       <r>    -3.7620     0.0000   128.0000 </r>
       <r>    -3.6783     0.0000   128.0000 </r>
       <r>    -3.5945     0.0000   128.0000 </r>
       <r>    -3.5107     0.0000   128.0000 </r>
       <r>    -3.4269     0.0000   128.0000 </r>
       <r>    -3.3432     0.0000   128.0000 </r>
       <r>    -3.2594     0.0000   128.0000 </r>
       <r>    -3.1756     0.0000   128.0000 </r>
       <r>    -3.0919     0.0000   128.0000 </r>
       <r>    -3.0081     0.0000   128.0000 </r>
       <r>    -2.9243     0.0000   128.0000 </r>
       <r>    -2.8405     0.0000   128.0000 </r>
       <r>    -2.7568     0.0000   128.0000 </r>
       <r>    -2.6730     0.0000   128.0000 </r>
       <r>    -2.5892     0.0000   128.0000 </r>
       <r>    -2.5054     0.0000   128.0000 </r>
       <r>    -2.4217     0.0000   128.0000 </r>
       <r>    -2.3379     0.0000   128.0000 </r>
       <r>    -2.2541     0.0000   128.0000 </r>
       <r>    -2.1704     0.0000   128.0000 </r>
       <r>    -2.0866     0.0000   128.0000 </r>
       <r>    -2.0028     0.0000   128.0000 </r>
       <r>    -1.9190     0.0000   128.0000 </r>
       <r>    -1.8353     0.0000   128.0000 </r>
       <r>    -1.7515     0.0000   128.0000 </r>
       <r>    -1.6677     0.0000   128.0000 </r>
       <r>    -1.5839     0.0000   128.0000 </r>
       <r>    -1.5002     0.0000   128.0000 </r>
       <r>    -1.4164     0.0000   128.0000 </r>
       <r>    -1.3326     0.0000   128.0000 </r>
       <r>    -1.2489     0.0000   128.0000 </r>
       <r>    -1.1651     0.0000   128.0000 </r>
       <r>    -1.0813     0.0000   128.0000 </r>
       <r>    -0.9975     0.0000   128.0000 </r>
       <r>    -0.9138     0.0000   128.0000 </r>
       <r>    -0.8300     0.0000   128.0000 </r>
       <r>    -0.7462     0.0000   128.0000 </r>
       <r>    -0.6625     0.0000   128.0000 </r>
       <r>    -0.5787     0.0000   128.0000 </r>
       <r>    -0.4949     0.0000   128.0000 </r>
       <r>    -0.4111     0.0000   128.0000 </r>
       <r>    -0.3274     0.0000   128.0000 </r>
       <r>    -0.2436     0.0000   128.0000 </r>
       <r>    -0.1598     0.0000   128.0000 </r>
       <r>    -0.0760     0.0000   128.0000 </r>
       <r>     0.0077     0.0000   128.0000 </r>
       <r>     0.0915     0.0000   128.0000 </r>
       <r>     0.1753     0.0000   128.0000 </r>
       <r>     0.2590     0.0000   128.0000 </r>
       <r>     0.3428     0.0000   128.0000 </r>
       <r>     0.4266     0.0000   128.0000 </r>
       <r>     0.5104     0.0000   128.0000 </r>
       <r>     0.5941     0.0000   128.0000 </r>
       <r>     0.6779     0.0000   128.0000 </r>
       <r>     0.7617     0.0000   128.0000 </r>
       <r>     0.8455     0.0000   128.0000 </r>
       <r>     0.9292     0.0000   128.0000 </r>
       <r>     1.0130     0.0198   128.0002 </r>
       <r>     1.0968     0.3984   128.0144 </r>
       <r>     1.1805     1.0886   128.0753 </r>
       <r>     1.2643     1.6869   128.1950 </r>
       <r>     1.3481     1.9434   128.3475 </r>
       <r>     1.4319     2.2117   128.5208 </r>
       <r>     1.5156     2.5569   128.7207 </r>
       <r>     1.5994     2.9213   128.9489 </r>
       <r>     1.6832     3.5060   129.2165 </r>
       <r>     1.7669     4.3740   129.5437 </r>
       <r>     1.8507     5.3606   129.9547 </r>
       <r>     1.9345     6.3969   130.4466 </r>
       <r>     2.0183     5.4215   130.9533 </r>
       <r>     2.1020     4.0368   131.3481 </r>
       <r>     2.1858     3.9526   131.6728 </r>
       <r>     2.2696     4.3332   132.0188 </r>
       <r>     2.3534     5.8578   132.4288 </r>
       <r>     2.4371     9.4684   133.0566 </r>
       <r>     2.5209    13.5108   134.0670 </r>
       <r>     2.6047    10.8157   135.1074 </r>
       <r>     2.6884     6.3768   135.8345 </r>
       <r>     2.7722     7.7945   136.3393 </r>
       <r>     2.8560    21.5129   137.8229 </r>
       <r>     2.9398    14.7985   139.3472 </r>
       <r>     3.0235    23.3537   140.8541 </r>
       <r>     3.1073    22.9379   142.7784 </r>
       <r>     3.1911     9.7939   144.1986 </r>
       <r>     3.2749    14.6245   145.0155 </r>
       <r>     3.3586    18.9328   146.7986 </r>
       <r>     3.4424    14.6369   148.0892 </r>
       <r>     3.5262    19.4534   149.4565 </r>
       <r>     3.6099    23.2201   151.3587 </r>
       <r>     3.6937    22.3733   153.2297 </r>
       <r>     3.7775    19.0926   154.9144 </r>
       <r>     3.8613    43.2454   157.1963 </r>
       <r>     3.9450    14.1157   160.1454 </r>
       <r>     4.0288    21.0597   161.4159 </r>
       <r>     4.1126    28.7702   163.5184 </r>
       <r>     4.1963    24.6182   166.3259 </r>
       <r>     4.2801    16.3667   167.8114 </r>
       <r>     4.3639    20.3410   169.2992 </r>
       <r>     4.4477    25.1742   171.4205 </r>
       <r>     4.5314    32.4732   174.3720 </r>
       <r>     4.6152    18.8401   176.2442 </r>
       <r>     4.6990    88.1329   181.6148 </r>
       <r>     4.7828    10.1011   184.1079 </r>
       <r>     4.8665    20.4673   185.6268 </r>
       <r>     4.9503    21.1173   187.3029 </r>
       <r>     5.0341    25.5734   189.4852 </r>
       <r>     5.1178    17.9751   191.2554 </r>
       <r>     5.2016    44.0330   193.6451 </r>
       <r>     5.2854    32.6053   196.6126 </r>
       <r>     5.3692    18.5282   198.9420 </r>
       <r>     5.4529    34.7747   200.6018 </r>
       <r>     5.5367    30.6107   203.5449 </r>
       <r>     5.6205    23.7934   205.9116 </r>
       <r>     5.7043    17.2946   207.3762 </r>
       <r>     5.7880    21.3836   209.0221 </r>
       <r>     5.8718    13.3263   210.4106 </r>
       <r>     5.9556     7.1614   211.2848 </r>
       <r>     6.0393     3.8369   211.7808 </r>
       <r>     6.1231     1.0404   211.9673 </r>
       <r>     6.2069     0.0130   212.0000 </r>
       <r>     6.2907     0.0000   212.0000 </r>
       <r>     6.3744     0.0000   212.0000 </r>
       <r>     6.4582     0.0000   212.0000 </r>
       <r>     6.5420     0.0000   212.0000 </r>
       <r>     6.6257     0.0000   212.0000 </r>
       <r>     6.7095     0.0000   212.0000 </r>
       <r>     6.7933     0.0000   212.0000 </r>
       <r>     6.8771     0.0000   212.0000 </r>
       <r>     6.9608     0.0000   212.0000 </r>
       <r>     7.0446     0.0000   212.0000 </r>
       <r>     7.1284     0.0000   212.0000 </r>
       <r>     7.2122     0.0000   212.0000 </r>
       <r>     7.2959     0.0000   212.0000 </r>
       <r>     7.3797     0.0000   212.0000 </r>
       <r>     7.4635     0.0000   212.0000 </r>
       <r>     7.5472     0.0000   212.0000 </r>
       <r>     7.6310     0.0000   212.0000 </r>
       <r>     7.7148     0.0000   212.0000 </r>
       <r>     7.7986     0.0000   212.0000 </r>
       <r>     7.8823     0.0000   212.0000 </r>
       <r>     7.9661     0.0000   212.0000 </r>
       <r>     8.0499     0.0000   212.0000 </r>
       <r>     8.1337     0.0000   212.0000 </r>
       <r>     8.2174     0.0000   212.0000 </r>
      </set>
     </set>
    </array>
   </total>
  </dos>
 </calculation>
 <structure name="finalpos" >
  <crystal>
   <varray name="basis" >
    <v>      12.08583241       0.00000000       0.00000000 </v>
    <v>       0.00000000       8.45365112       0.00000000 </v>
    <v>       0.00000000       0.00000000       8.44838721 </v>
   </varray>
   <i name="volume">    863.16674222 </i>
   <varray name="rec_basis" >
    <v>       0.08274151       0.00000000       0.00000000 </v>
    <v>       0.00000000       0.11829208       0.00000000 </v>
    <v>       0.00000000       0.00000000       0.11836579 </v>
   </varray>
  </crystal>
  <varray name="positions" >
   <v>       0.07406076       0.77809727       0.26098446 </v>
   <v>       0.92593926       0.22190273       0.73901556 </v>
   <v>       0.92593926       0.72190273       0.76098444 </v>
   <v>       0.07406076       0.27809727       0.23901554 </v>
   <v>       0.92593926       0.27809727       0.23901554 </v>
   <v>       0.07406076       0.72190273       0.76098444 </v>
   <v>       0.07406076       0.22190273       0.73901556 </v>
   <v>       0.92593926       0.77809727       0.26098446 </v>
   <v>       0.57406074       0.27809727       0.26098446 </v>
   <v>       0.42593923       0.72190273       0.73901556 </v>
   <v>       0.42593923       0.22190273       0.76098444 </v>
   <v>       0.57406074       0.77809727       0.23901554 </v>
   <v>       0.42593923       0.77809727       0.23901554 </v>
   <v>       0.57406074       0.22190273       0.76098444 </v>
   <v>       0.57406074       0.72190273       0.73901556 </v>
   <v>       0.42593923       0.27809727       0.26098446 </v>
   <v>       0.80213958       0.58126140       0.93239887 </v>
   <v>       0.19786042       0.41873860       0.06760113 </v>
   <v>       0.19786042       0.91873860       0.43239887 </v>
   <v>       0.80213958       0.08126140       0.56760113 </v>
   <v>       0.19786042       0.08126140       0.56760113 </v>
   <v>       0.80213958       0.91873860       0.43239887 </v>
   <v>       0.80213958       0.41873860       0.06760113 </v>
   <v>       0.19786042       0.58126140       0.93239887 </v>
   <v>       0.30213958       0.08126140       0.93239887 </v>
   <v>       0.69786042       0.91873860       0.06760113 </v>
   <v>       0.69786042       0.41873860       0.43239887 </v>
   <v>       0.30213958       0.58126140       0.56760113 </v>
   <v>       0.69786042       0.58126140       0.56760113 </v>
   <v>       0.30213958       0.41873860       0.43239887 </v>
   <v>       0.30213958       0.91873860       0.06760113 </v>
   <v>       0.69786042       0.08126140       0.93239887 </v>
   <v>       0.69738852       0.56769036       0.08145496 </v>
   <v>       0.30261148       0.43230964       0.91854504 </v>
   <v>       0.30261148       0.93230964       0.58145496 </v>
   <v>       0.69738852       0.06769036       0.41854504 </v>
   <v>       0.30261148       0.06769036       0.41854504 </v>
   <v>       0.69738852       0.93230964       0.58145496 </v>
   <v>       0.69738852       0.43230964       0.91854504 </v>
   <v>       0.30261148       0.56769036       0.08145496 </v>
   <v>       0.19738852       0.06769036       0.08145496 </v>
   <v>       0.80261148       0.93230964       0.91854504 </v>
   <v>       0.80261148       0.43230964       0.58145496 </v>
   <v>       0.19738852       0.56769036       0.41854504 </v>
   <v>       0.80261148       0.56769036       0.41854504 </v>
   <v>       0.19738852       0.43230964       0.58145496 </v>
   <v>       0.19738852       0.93230964       0.91854504 </v>
   <v>       0.80261148       0.06769036       0.08145496 </v>
   <v>       0.00000000       0.60301146       0.20653533 </v>
   <v>       0.00000000       0.39698854       0.79346464 </v>
   <v>       0.00000000       0.89698854       0.70653536 </v>
   <v>       0.00000000       0.10301146       0.29346467 </v>
   <v>       0.50000000       0.10301146       0.20653533 </v>
   <v>       0.50000000       0.89698854       0.79346464 </v>
   <v>       0.50000000       0.39698854       0.70653536 </v>
   <v>       0.50000000       0.60301146       0.29346467 </v>
   <v>       0.00000000       0.22854436       0.92210504 </v>
   <v>       0.00000000       0.77145564       0.07789496 </v>
   <v>       0.00000000       0.27145564       0.42210504 </v>
   <v>       0.00000000       0.72854436       0.57789496 </v>
   <v>       0.50000000       0.72854436       0.92210504 </v>
   <v>       0.50000000       0.27145564       0.07789496 </v>
   <v>       0.50000000       0.77145564       0.42210504 </v>
   <v>       0.50000000       0.22854436       0.57789496 </v>
   <v>       0.00000000       0.23254205       0.29845871 </v>
   <v>       0.00000000       0.76745795       0.70154127 </v>
   <v>       0.00000000       0.26745795       0.79845873 </v>
   <v>       0.00000000       0.73254205       0.20154127 </v>
   <v>       0.50000000       0.73254205       0.29845871 </v>
   <v>       0.50000000       0.26745795       0.70154127 </v>
   <v>       0.50000000       0.76745795       0.79845873 </v>
   <v>       0.50000000       0.23254205       0.20154127 </v>
   <v>       0.74967223       0.50000000      -0.00000000 </v>
   <v>       0.25032777       0.50000000      -0.00000000 </v>
   <v>       0.25032777       0.00000000       0.50000000 </v>
   <v>       0.74967223       0.00000000       0.50000000 </v>
   <v>       0.24967223       0.00000000      -0.00000000 </v>
   <v>       0.75032777       0.00000000      -0.00000000 </v>
   <v>       0.75032777       0.50000000       0.50000000 </v>
   <v>       0.24967223       0.50000000       0.50000000 </v>
  </varray>
 </structure>
</modeling>
