<?xml version="1.0" encoding="ISO-8859-1"?>
<modeling>
 <generator>
  <i name="program" type="string">vasp </i>
  <i name="version" type="string">5.3.5  </i>
  <i name="subversion" type="string">31Mar14 (build Nov 02 2014 15:17:37) complex                          parallel </i>
  <i name="platform" type="string">ion-Intel-MKL </i>
  <i name="date" type="string">2017 06 28 </i>
  <i name="time" type="string">14:59:49 </i>
 </generator>
 <incar>
  <i type="string" name="SYSTEM">diamond</i>
  <i type="string" name="PREC">normal</i>
  <i type="int" name="NELM">   200</i>
  <i type="int" name="IBRION">     2</i>
  <i name="EDIFF">      0.00000100</i>
  <i name="EDIFFG">      0.00010000</i>
  <i type="int" name="NSW">   200</i>
  <i type="int" name="ISIF">     2</i>
  <i name="ENCUT">    600.00000000</i>
  <i type="int" name="ISMEAR">    -5</i>
  <i type="logical" name="LWAVE"> F  </i>
  <i type="logical" name="LCHARG"> F  </i>
  <i type="int" name="NELM">   200</i>
 </incar>
 <kpoints>
  <generation param="Gamma">
   <v type="int" name="divisions">       4        4        4 </v>
   <v name="usershift">      0.00000000       0.00000000       0.00000000 </v>
   <v name="genvec1">      0.25000000       0.00000000       0.00000000 </v>
   <v name="genvec2">      0.00000000       0.25000000       0.00000000 </v>
   <v name="genvec3">      0.00000000       0.00000000       0.25000000 </v>
   <v name="shift">      0.00000000       0.00000000       0.00000000 </v>
  </generation>
  <varray name="kpointlist" >
   <v>       0.00000000       0.00000000       0.00000000 </v>
   <v>       0.25000000       0.00000000       0.00000000 </v>
   <v>       0.50000000       0.00000000       0.00000000 </v>
   <v>       0.00000000       0.25000000       0.00000000 </v>
   <v>       0.25000000       0.25000000       0.00000000 </v>
   <v>       0.50000000       0.25000000       0.00000000 </v>
   <v>       0.00000000       0.50000000       0.00000000 </v>
   <v>       0.25000000       0.50000000       0.00000000 </v>
   <v>       0.50000000       0.50000000       0.00000000 </v>
   <v>       0.00000000       0.00000000       0.25000000 </v>
   <v>       0.25000000       0.00000000       0.25000000 </v>
   <v>       0.50000000       0.00000000       0.25000000 </v>
   <v>       0.00000000       0.25000000       0.25000000 </v>
   <v>       0.25000000       0.25000000       0.25000000 </v>
   <v>       0.50000000       0.25000000       0.25000000 </v>
   <v>       0.00000000       0.50000000       0.25000000 </v>
   <v>       0.25000000       0.50000000       0.25000000 </v>
   <v>       0.50000000       0.50000000       0.25000000 </v>
   <v>       0.00000000       0.00000000       0.50000000 </v>
   <v>       0.25000000       0.00000000       0.50000000 </v>
   <v>       0.50000000       0.00000000       0.50000000 </v>
   <v>       0.00000000       0.25000000       0.50000000 </v>
   <v>       0.25000000       0.25000000       0.50000000 </v>
   <v>       0.50000000       0.25000000       0.50000000 </v>
   <v>       0.00000000       0.50000000       0.50000000 </v>
   <v>       0.25000000       0.50000000       0.50000000 </v>
   <v>       0.50000000       0.50000000       0.50000000 </v>
  </varray>
  <varray name="weights" >
   <v>       0.01562500 </v>
   <v>       0.03125000 </v>
   <v>       0.01562500 </v>
   <v>       0.03125000 </v>
   <v>       0.06250000 </v>
   <v>       0.03125000 </v>
   <v>       0.01562500 </v>
   <v>       0.03125000 </v>
   <v>       0.01562500 </v>
   <v>       0.03125000 </v>
   <v>       0.06250000 </v>
   <v>       0.03125000 </v>
   <v>       0.06250000 </v>
   <v>       0.12500000 </v>
   <v>       0.06250000 </v>
   <v>       0.03125000 </v>
   <v>       0.06250000 </v>
   <v>       0.03125000 </v>
   <v>       0.01562500 </v>
   <v>       0.03125000 </v>
   <v>       0.01562500 </v>
   <v>       0.03125000 </v>
   <v>       0.06250000 </v>
   <v>       0.03125000 </v>
   <v>       0.01562500 </v>
   <v>       0.03125000 </v>
   <v>       0.01562500 </v>
  </varray>
  <varray name="tetrahedronlist"  type="int" >
   <v type="int" >        2        1        2        5       10 </v>
   <v type="int" >        2        1        4        5       10 </v>
   <v type="int" >        2        4        5       10       13 </v>
   <v type="int" >        2        2        5       10       11 </v>
   <v type="int" >        2        5       10       11       14 </v>
   <v type="int" >        2        5       10       13       14 </v>
   <v type="int" >        2        2        3        6       11 </v>
   <v type="int" >        2        2        5        6       11 </v>
   <v type="int" >        2        5        6       11       14 </v>
   <v type="int" >        2        3        6       11       12 </v>
   <v type="int" >        2        6       11       12       15 </v>
   <v type="int" >        2        6       11       14       15 </v>
   <v type="int" >        2        2        3        5       12 </v>
   <v type="int" >        2        3        5        6       12 </v>
   <v type="int" >        2        5        6       12       15 </v>
   <v type="int" >        2        2        5       11       12 </v>
   <v type="int" >        2        5       11       12       14 </v>
   <v type="int" >        2        5       12       14       15 </v>
   <v type="int" >        2        1        2        4       11 </v>
   <v type="int" >        2        2        4        5       11 </v>
   <v type="int" >        2        4        5       11       14 </v>
   <v type="int" >        2        1        4       10       11 </v>
   <v type="int" >        2        4       10       11       13 </v>
   <v type="int" >        2        4       11       13       14 </v>
   <v type="int" >        2        4        5        8       13 </v>
   <v type="int" >        2        4        7        8       13 </v>
   <v type="int" >        2        7        8       13       16 </v>
   <v type="int" >        2        5        8       13       14 </v>
   <v type="int" >        2        8       13       14       17 </v>
   <v type="int" >        2        8       13       16       17 </v>
   <v type="int" >        2        5        6        9       14 </v>
   <v type="int" >        2        5        8        9       14 </v>
   <v type="int" >        2        8        9       14       17 </v>
   <v type="int" >        2        6        9       14       15 </v>
   <v type="int" >        2        9       14       15       18 </v>
   <v type="int" >        2        9       14       17       18 </v>
   <v type="int" >        2        5        6        8       15 </v>
   <v type="int" >        2        6        8        9       15 </v>
   <v type="int" >        2        8        9       15       18 </v>
   <v type="int" >        2        5        8       14       15 </v>
   <v type="int" >        2        8       14       15       17 </v>
   <v type="int" >        2        8       15       17       18 </v>
   <v type="int" >        2        4        5        7       14 </v>
   <v type="int" >        2        5        7        8       14 </v>
   <v type="int" >        2        7        8       14       17 </v>
   <v type="int" >        2        4        7       13       14 </v>
   <v type="int" >        2        7       13       14       16 </v>
   <v type="int" >        2        7       14       16       17 </v>
   <v type="int" >        2        5        7        8       16 </v>
   <v type="int" >        2        4        5        7       16 </v>
   <v type="int" >        2        4        5       13       16 </v>
   <v type="int" >        2        5        8       16       17 </v>
   <v type="int" >        2        5       14       16       17 </v>
   <v type="int" >        2        5       13       14       16 </v>
   <v type="int" >        2        6        8        9       17 </v>
   <v type="int" >        2        5        6        8       17 </v>
   <v type="int" >        2        5        6       14       17 </v>
   <v type="int" >        2        6        9       17       18 </v>
   <v type="int" >        2        6       15       17       18 </v>
   <v type="int" >        2        6       14       15       17 </v>
   <v type="int" >        2        5        8        9       18 </v>
   <v type="int" >        2        5        6        9       18 </v>
   <v type="int" >        2        5        6       15       18 </v>
   <v type="int" >        2        5        8       17       18 </v>
   <v type="int" >        2        5       14       17       18 </v>
   <v type="int" >        2        5       14       15       18 </v>
   <v type="int" >        2        4        7        8       17 </v>
   <v type="int" >        2        4        5        8       17 </v>
   <v type="int" >        2        4        5       14       17 </v>
   <v type="int" >        2        4        7       16       17 </v>
   <v type="int" >        2        4       13       16       17 </v>
   <v type="int" >        2        4       13       14       17 </v>
   <v type="int" >        2        2        4        5       13 </v>
   <v type="int" >        2        1        2        4       13 </v>
   <v type="int" >        2        1        2       10       13 </v>
   <v type="int" >        2        2        5       13       14 </v>
   <v type="int" >        2        2       11       13       14 </v>
   <v type="int" >        2        2       10       11       13 </v>
   <v type="int" >        2        3        5        6       14 </v>
   <v type="int" >        2        2        3        5       14 </v>
   <v type="int" >        2        2        3       11       14 </v>
   <v type="int" >        2        3        6       14       15 </v>
   <v type="int" >        2        3       12       14       15 </v>
   <v type="int" >        2        3       11       12       14 </v>
   <v type="int" >        2        2        5        6       15 </v>
   <v type="int" >        2        2        3        6       15 </v>
   <v type="int" >        2        2        3       12       15 </v>
   <v type="int" >        2        2        5       14       15 </v>
   <v type="int" >        2        2       11       14       15 </v>
   <v type="int" >        2        2       11       12       15 </v>
   <v type="int" >        2        1        4        5       14 </v>
   <v type="int" >        2        1        2        5       14 </v>
   <v type="int" >        2        1        2       11       14 </v>
   <v type="int" >        2        1        4       13       14 </v>
   <v type="int" >        2        1       10       13       14 </v>
   <v type="int" >        2        1       10       11       14 </v>
   <v type="int" >        2       10       11       14       19 </v>
   <v type="int" >        2       10       13       14       19 </v>
   <v type="int" >        2       13       14       19       22 </v>
   <v type="int" >        2       11       14       19       20 </v>
   <v type="int" >        2       14       19       20       23 </v>
   <v type="int" >        2       14       19       22       23 </v>
   <v type="int" >        2       11       12       15       20 </v>
   <v type="int" >        2       11       14       15       20 </v>
   <v type="int" >        2       14       15       20       23 </v>
   <v type="int" >        2       12       15       20       21 </v>
   <v type="int" >        2       15       20       21       24 </v>
   <v type="int" >        2       15       20       23       24 </v>
   <v type="int" >        2       11       12       14       21 </v>
   <v type="int" >        2       12       14       15       21 </v>
   <v type="int" >        2       14       15       21       24 </v>
   <v type="int" >        2       11       14       20       21 </v>
   <v type="int" >        2       14       20       21       23 </v>
   <v type="int" >        2       14       21       23       24 </v>
   <v type="int" >        2       10       11       13       20 </v>
   <v type="int" >        2       11       13       14       20 </v>
   <v type="int" >        2       13       14       20       23 </v>
   <v type="int" >        2       10       13       19       20 </v>
   <v type="int" >        2       13       19       20       22 </v>
   <v type="int" >        2       13       20       22       23 </v>
   <v type="int" >        2       13       14       17       22 </v>
   <v type="int" >        2       13       16       17       22 </v>
   <v type="int" >        2       16       17       22       25 </v>
   <v type="int" >        2       14       17       22       23 </v>
   <v type="int" >        2       17       22       23       26 </v>
   <v type="int" >        2       17       22       25       26 </v>
   <v type="int" >        2       14       15       18       23 </v>
   <v type="int" >        2       14       17       18       23 </v>
   <v type="int" >        2       17       18       23       26 </v>
   <v type="int" >        2       15       18       23       24 </v>
   <v type="int" >        2       18       23       24       27 </v>
   <v type="int" >        2       18       23       26       27 </v>
   <v type="int" >        2       14       15       17       24 </v>
   <v type="int" >        2       15       17       18       24 </v>
   <v type="int" >        2       17       18       24       27 </v>
   <v type="int" >        2       14       17       23       24 </v>
   <v type="int" >        2       17       23       24       26 </v>
   <v type="int" >        2       17       24       26       27 </v>
   <v type="int" >        2       13       14       16       23 </v>
   <v type="int" >        2       14       16       17       23 </v>
   <v type="int" >        2       16       17       23       26 </v>
   <v type="int" >        2       13       16       22       23 </v>
   <v type="int" >        2       16       22       23       25 </v>
   <v type="int" >        2       16       23       25       26 </v>
   <v type="int" >        2       14       16       17       25 </v>
   <v type="int" >        2       13       14       16       25 </v>
   <v type="int" >        2       13       14       22       25 </v>
   <v type="int" >        2       14       17       25       26 </v>
   <v type="int" >        2       14       23       25       26 </v>
   <v type="int" >        2       14       22       23       25 </v>
   <v type="int" >        2       15       17       18       26 </v>
   <v type="int" >        2       14       15       17       26 </v>
   <v type="int" >        2       14       15       23       26 </v>
   <v type="int" >        2       15       18       26       27 </v>
   <v type="int" >        2       15       24       26       27 </v>
   <v type="int" >        2       15       23       24       26 </v>
   <v type="int" >        2       14       17       18       27 </v>
   <v type="int" >        2       14       15       18       27 </v>
   <v type="int" >        2       14       15       24       27 </v>
   <v type="int" >        2       14       17       26       27 </v>
   <v type="int" >        2       14       23       26       27 </v>
   <v type="int" >        2       14       23       24       27 </v>
   <v type="int" >        2       13       16       17       26 </v>
   <v type="int" >        2       13       14       17       26 </v>
   <v type="int" >        2       13       14       23       26 </v>
   <v type="int" >        2       13       16       25       26 </v>
   <v type="int" >        2       13       22       25       26 </v>
   <v type="int" >        2       13       22       23       26 </v>
   <v type="int" >        2       11       13       14       22 </v>
   <v type="int" >        2       10       11       13       22 </v>
   <v type="int" >        2       10       11       19       22 </v>
   <v type="int" >        2       11       14       22       23 </v>
   <v type="int" >        2       11       20       22       23 </v>
   <v type="int" >        2       11       19       20       22 </v>
   <v type="int" >        2       12       14       15       23 </v>
   <v type="int" >        2       11       12       14       23 </v>
   <v type="int" >        2       11       12       20       23 </v>
   <v type="int" >        2       12       15       23       24 </v>
   <v type="int" >        2       12       21       23       24 </v>
   <v type="int" >        2       12       20       21       23 </v>
   <v type="int" >        2       11       14       15       24 </v>
   <v type="int" >        2       11       12       15       24 </v>
   <v type="int" >        2       11       12       21       24 </v>
   <v type="int" >        2       11       14       23       24 </v>
   <v type="int" >        2       11       20       23       24 </v>
   <v type="int" >        2       11       20       21       24 </v>
   <v type="int" >        2       10       13       14       23 </v>
   <v type="int" >        2       10       11       14       23 </v>
   <v type="int" >        2       10       11       20       23 </v>
   <v type="int" >        2       10       13       22       23 </v>
   <v type="int" >        2       10       19       22       23 </v>
   <v type="int" >        2       10       19       20       23 </v>
  </varray>
  <i name="volumeweight">      0.00260417 </i>
 </kpoints>
 <parameters>
  <separator name="general" >
   <i type="string" name="SYSTEM">diamond</i>
   <i type="logical" name="LCOMPAT"> F  </i>
  </separator>
  <separator name="electronic" >
   <i type="string" name="PREC">normal</i>
   <i name="ENMAX">    600.00000000</i>
   <i name="ENAUG">    644.87300000</i>
   <i name="EDIFF">      0.00000100</i>
   <i type="int" name="IALGO">    38</i>
   <i type="int" name="IWAVPR">    11</i>
   <i type="int" name="NBANDS">   106</i>
   <i name="NELECT">    128.00000000</i>
   <i type="int" name="TURBO">     0</i>
   <i type="int" name="IRESTART">     0</i>
   <i type="int" name="NREBOOT">     0</i>
   <i type="int" name="NMIN">     0</i>
   <i name="EREF">      0.00000000</i>
   <separator name="electronic smearing" >
    <i type="int" name="ISMEAR">    -5</i>
    <i name="SIGMA">      0.20000000</i>
    <i name="KSPACING">      0.50000000</i>
    <i type="logical" name="KGAMMA"> T  </i>
   </separator>
   <separator name="electronic projectors" >
    <i type="logical" name="LREAL"> F  </i>
    <v name="ROPT">      0.00000000      0.00000000</v>
    <i type="int" name="LMAXPAW">  -100</i>
    <i type="int" name="LMAXMIX">     2</i>
    <i type="logical" name="NLSPLINE"> F  </i>
   </separator>
   <separator name="electronic startup" >
    <i type="int" name="ISTART">     0</i>
    <i type="int" name="ICHARG">     2</i>
    <i type="int" name="INIWAV">     1</i>
   </separator>
   <separator name="electronic spin" >
    <i type="int" name="ISPIN">     1</i>
    <i type="logical" name="LNONCOLLINEAR"> F  </i>
    <v name="MAGMOM">      1.00000000      1.00000000      1.00000000      1.00000000      1.00000000      1.00000000      1.00000000      1.00000000      1.00000000      1.00000000      1.00000000      1.00000000      1.00000000      1.00000000      1.00000000      1.00000000      1.00000000      1.00000000      1.00000000      1.00000000
      1.00000000      1.00000000      1.00000000      1.00000000      1.00000000      1.00000000      1.00000000      1.00000000      1.00000000      1.00000000      1.00000000      1.00000000      1.00000000      1.00000000      1.00000000      1.00000000      1.00000000      1.00000000      1.00000000      1.00000000
      1.00000000      1.00000000      1.00000000      1.00000000      1.00000000      1.00000000      1.00000000      1.00000000      1.00000000      1.00000000      1.00000000      1.00000000      1.00000000      1.00000000      1.00000000      1.00000000      1.00000000      1.00000000      1.00000000      1.00000000
      1.00000000      1.00000000      1.00000000      1.00000000      1.00000000      1.00000000      1.00000000      1.00000000      1.00000000      1.00000000      1.00000000      1.00000000      1.00000000      1.00000000      1.00000000      1.00000000      1.00000000      1.00000000      1.00000000      1.00000000
</v>
    <i name="NUPDOWN">     -1.00000000</i>
    <i type="logical" name="LSORBIT"> F  </i>
    <v name="SAXIS">      0.00000000      0.00000000      1.00000000</v>
    <i type="logical" name="LSPIRAL"> F  </i>
    <v name="QSPIRAL">      0.00000000      0.00000000      0.00000000</v>
    <i type="logical" name="LZEROZ"> F  </i>
   </separator>
   <separator name="electronic exchange-correlation" >
    <i type="logical" name="LASPH"> F  </i>
    <i type="logical" name="LMETAGGA"> F  </i>
   </separator>
   <separator name="electronic convergence" >
    <i type="int" name="NELM">   200</i>
    <i type="int" name="NELMDL">     0</i>
    <i type="int" name="NELMIN">     2</i>
    <i name="ENINI">    600.00000000</i>
    <separator name="electronic convergence detail" >
     <i type="logical" name="LDIAG"> T  </i>
     <i type="logical" name="LSUBROT"> F  </i>
     <i name="WEIMIN">      0.00100000</i>
     <i name="EBREAK">      0.00000000</i>
     <i name="DEPER">      0.30000000</i>
     <i type="int" name="NRMM">     4</i>
     <i name="TIME">      0.40000000</i>
    </separator>
   </separator>
   <separator name="electronic mixer" >
    <i name="AMIX">      0.40000000</i>
    <i name="BMIX">      1.00000000</i>
    <i name="AMIN">      0.10000000</i>
    <i name="AMIX_MAG">      1.60000000</i>
    <i name="BMIX_MAG">      1.00000000</i>
    <separator name="electronic mixer details" >
     <i type="int" name="IMIX">     4</i>
     <i type="int" name="MAXMIX">   -45</i>
     <i name="WC">    100.00000000</i>
     <i type="int" name="INIMIX">     1</i>
     <i type="int" name="MIXPRE">     1</i>
     <i type="int" name="MREMOVE">     5</i>
    </separator>
   </separator>
   <separator name="electronic dipolcorrection" >
    <i type="logical" name="LDIPOL"> F  </i>
    <i type="logical" name="LMONO"> F  </i>
    <i type="int" name="IDIPOL">     0</i>
    <i name="EPSILON">      1.00000000</i>
    <v name="DIPOL">   -100.00000000   -100.00000000   -100.00000000</v>
    <i name="EFIELD">      0.00000000</i>
   </separator>
  </separator>
  <separator name="grids" >
   <i type="int" name="NGX">    72</i>
   <i type="int" name="NGY">    54</i>
   <i type="int" name="NGZ">    54</i>
   <i type="int" name="NGXF">   144</i>
   <i type="int" name="NGYF">   108</i>
   <i type="int" name="NGZF">   108</i>
   <i type="logical" name="ADDGRID"> F  </i>
  </separator>
  <separator name="ionic" >
   <i type="int" name="NSW">   200</i>
   <i type="int" name="IBRION">     2</i>
   <i type="int" name="ISIF">     2</i>
   <i name="PSTRESS">      0.00000000</i>
   <i name="EDIFFG">      0.00010000</i>
   <i type="int" name="NFREE">     1</i>
   <i name="POTIM">      0.50000000</i>
   <i name="SMASS">     -3.00000000</i>
   <i name="SCALEE">      1.00000000</i>
  </separator>
  <separator name="ionic md" >
   <i name="TEBEG">      0.00010000</i>
   <i name="TEEND">      0.00010000</i>
   <i type="int" name="NBLOCK">     1</i>
   <i type="int" name="KBLOCK">   200</i>
   <i type="int" name="NPACO">   256</i>
   <i name="APACO">     16.00000000</i>
  </separator>
  <separator name="symmetry" >
   <i type="int" name="ISYM">     2</i>
   <i name="SYMPREC">      0.00001000</i>
  </separator>
  <separator name="dos" >
   <i type="logical" name="LORBIT"> F  </i>
   <v name="RWIGS">     -1.00000000     -1.00000000</v>
   <i type="int" name="NEDOS">   301</i>
   <i name="EMIN">     10.00000000</i>
   <i name="EMAX">    -10.00000000</i>
   <i name="EFERMI">      0.00000000</i>
  </separator>
  <separator name="writing" >
   <i type="int" name="NWRITE">     2</i>
   <i type="logical" name="LWAVE"> F  </i>
   <i type="logical" name="LCHARG"> F  </i>
   <i type="logical" name="LPARD"> F  </i>
   <i type="logical" name="LVTOT"> F  </i>
   <i type="logical" name="LVHAR"> F  </i>
   <i type="logical" name="LELF"> F  </i>
   <i type="logical" name="LOPTICS"> F  </i>
   <v name="STM">      0.00000000      0.00000000      0.00000000      0.00000000      0.00000000      0.00000000      0.00000000</v>
  </separator>
  <separator name="performance" >
   <i type="int" name="NPAR">     2</i>
   <i type="int" name="NSIM">     4</i>
   <i type="int" name="NBLK">    -1</i>
   <i type="logical" name="LPLANE"> T  </i>
   <i type="logical" name="LSCALAPACK"> T  </i>
   <i type="logical" name="LSCAAWARE"> F  </i>
   <i type="logical" name="LSCALU"> F  </i>
   <i type="logical" name="LASYNC"> F  </i>
   <i type="logical" name="LORBITALREAL"> F  </i>
  </separator>
  <separator name="miscellaneous" >
   <i type="int" name="IDIOT">     3</i>
   <i type="logical" name="LMUSIC"> F  </i>
   <v name="POMASS">      1.00000000     12.01100000</v>
   <v name="DARWINR">      0.00000000      0.00000000</v>
   <v name="DARWINV">      1.00000000      1.00000000</v>
   <i type="logical" name="LCORR"> T  </i>
  </separator>
  <i type="logical" name="GGA_COMPAT"> T  </i>
  <i type="logical" name="LBERRY"> F  </i>
  <i type="int" name="ICORELEVEL">     0</i>
  <i type="logical" name="LDAU"> F  </i>
  <i type="int" name="I_CONSTRAINED_M">     0</i>
  <separator name="electronic exchange-correlation" >
   <i type="string" name="GGA">--</i>
   <i type="int" name="VOSKOWN">     0</i>
   <i type="logical" name="LHFCALC"> F  </i>
   <i type="string" name="PRECFOCK"></i>
   <i type="logical" name="LSYMGRAD"> F  </i>
   <i type="logical" name="LHFONE"> F  </i>
   <i type="logical" name="LRHFCALC"> F  </i>
   <i type="logical" name="LTHOMAS"> F  </i>
   <i type="logical" name="LMODELHF"> F  </i>
   <i name="ENCUT4O">     -1.00000000</i>
   <i type="int" name="EXXOEP">     0</i>
   <i type="int" name="FOURORBIT">     0</i>
   <i name="AEXX">      0.00000000</i>
   <i name="HFALPHA">      0.00000000</i>
   <i name="MCALPHA">      0.00000000</i>
   <i name="ALDAX">      1.00000000</i>
   <i name="AGGAX">      1.00000000</i>
   <i name="ALDAC">      1.00000000</i>
   <i name="AGGAC">      1.00000000</i>
   <i type="int" name="NKREDX">     1</i>
   <i type="int" name="NKREDY">     1</i>
   <i type="int" name="NKREDZ">     1</i>
   <i type="logical" name="SHIFTRED"> F  </i>
   <i type="logical" name="ODDONLY"> F  </i>
   <i type="logical" name="EVENONLY"> F  </i>
   <i type="int" name="LMAXFOCK">     0</i>
   <i type="int" name="NMAXFOCKAE">     0</i>
   <i type="logical" name="LFOCKAEDFT"> F  </i>
   <i name="HFSCREEN">      0.00000000</i>
   <i name="HFSCREENC">      0.00000000</i>
   <i type="int" name="NBANDSGWLOW">     0</i>
  </separator>
  <separator name="vdW DFT" >
   <i type="logical" name="LUSE_VDW"> F  </i>
   <i name="Zab_VDW">     -0.84910000</i>
   <i name="PARAM1">      0.12340000</i>
   <i name="PARAM2">      1.00000000</i>
   <i name="PARAM3">      0.00000000</i>
  </separator>
  <separator name="model GW" >
   <i type="int" name="MODEL_GW">     0</i>
   <i name="MODEL_EPS0">      6.47375057</i>
   <i name="MODEL_ALPHA">      1.00000000</i>
  </separator>
  <separator name="linear response parameters" >
   <i type="logical" name="LEPSILON"> F  </i>
   <i type="logical" name="LRPA"> F  </i>
   <i type="logical" name="LNABLA"> F  </i>
   <i type="logical" name="LVEL"> F  </i>
   <i type="int" name="KINTER">     0</i>
   <i name="CSHIFT">      0.10000000</i>
   <i name="OMEGAMAX">     -1.00000000</i>
   <i name="DEG_THRESHOLD">      0.00200000</i>
  </separator>
  <separator name="orbital magnetization" >
   <i type="logical" name="NUCIND"> F  </i>
   <v name="MAGPOS">      0.00000000      0.00000000      0.00000000</v>
   <i type="logical" name="LNICSALL"> T  </i>
   <i type="logical" name="ORBITALMAG"> F  </i>
   <i type="logical" name="LMAGBLOCH"> F  </i>
   <i type="logical" name="LCHIMAG"> F  </i>
   <i type="logical" name="LGAUGE"> T  </i>
   <i type="int" name="MAGATOM">     0</i>
   <v name="MAGDIPOL">      0.00000000      0.00000000      0.00000000</v>
   <v name="AVECCONST">      0.00000000      0.00000000      0.00000000</v>
  </separator>
  <separator name="response functions" >
   <i type="logical" name="LADDER"> F  </i>
   <i type="logical" name="LFXC"> F  </i>
   <i type="logical" name="LHARTREE"> T  </i>
   <i type="int" name="IBSE">     0</i>
   <i type="logical" name="LTCTE"> F  </i>
   <i type="logical" name="LTETE"> F  </i>
   <i type="logical" name="LTRIPLET"> F  </i>
   <i type="logical" name="LFXCEPS"> F  </i>
   <i type="logical" name="LFXHEG"> F  </i>
   <i type="logical" name="L2ORDER"> F  </i>
   <i type="logical" name="LUSEW"> F  </i>
   <i name="ENCUTGW">     -2.00000000</i>
   <i name="ENCUTGWSOFT">     -2.00000000</i>
   <i name="ENCUTLF">     -1.00000000</i>
   <i type="int" name="LMAXMP2">    -1</i>
   <i name="SCISSOR">      0.00000000</i>
   <i type="int" name="NOMEGA">     0</i>
   <i type="int" name="NOMEGAR">     0</i>
   <i type="int" name="NBANDSGW">    -1</i>
   <i type="int" name="NBANDSO">    -1</i>
   <i type="int" name="NBANDSV">    -1</i>
   <i type="int" name="NELM">   200</i>
   <i type="int" name="DIM">     3</i>
   <i type="int" name="ANTIRES">     0</i>
   <i name="OMEGAMAX">    -30.00000000</i>
   <i name="OMEGAMIN">    -30.00000000</i>
   <i name="OMEGATL">   -200.00000000</i>
   <i type="int" name="OMEGAGRID">     0</i>
   <i name="CSHIFT">     -0.10000000</i>
   <i type="logical" name="SELFENERGY"> F  </i>
   <i type="logical" name="LSPECTRAL"> F  </i>
   <i type="logical" name="ODDONLYGW"> F  </i>
   <i type="logical" name="EVENONLYGW"> F  </i>
   <i type="int" name="NKREDLFX">     1</i>
   <i type="int" name="NKREDLFY">     1</i>
   <i type="int" name="NKREDLFZ">     1</i>
   <i type="int" name="MAXMEM">  1800</i>
   <i type="int" name="TELESCOPE">     0</i>
   <i type="int" name="TAUPAR">     1</i>
  </separator>
  <separator name="External order field" >
   <i name="OFIELD_KAPPA">      0.00000000</i>
   <v name="OFIELD_K">      0.00000000      0.00000000      0.00000000</v>
   <i name="OFIELD_Q6_NEAR">      0.00000000</i>
   <i name="OFIELD_Q6_FAR">      0.00000000</i>
   <i name="OFIELD_A">      0.00000000</i>
  </separator>
 </parameters>
 <atominfo>
  <atoms>      80 </atoms>
  <types>       2 </types>
  <array name="atoms" >
   <dimension dim="1">ion</dimension>
   <field type="string">element</field>
   <field type="int">atomtype</field>
   <set>
    <rc><c>H </c><c>   1</c></rc>
    <rc><c>H </c><c>   1</c></rc>
    <rc><c>H </c><c>   1</c></rc>
    <rc><c>H </c><c>   1</c></rc>
    <rc><c>H </c><c>   1</c></rc>
    <rc><c>H </c><c>   1</c></rc>
    <rc><c>H </c><c>   1</c></rc>
    <rc><c>H </c><c>   1</c></rc>
    <rc><c>H </c><c>   1</c></rc>
    <rc><c>H </c><c>   1</c></rc>
    <rc><c>H </c><c>   1</c></rc>
    <rc><c>H </c><c>   1</c></rc>
    <rc><c>H </c><c>   1</c></rc>
    <rc><c>H </c><c>   1</c></rc>
    <rc><c>H </c><c>   1</c></rc>
    <rc><c>H </c><c>   1</c></rc>
    <rc><c>H </c><c>   1</c></rc>
    <rc><c>H </c><c>   1</c></rc>
    <rc><c>H </c><c>   1</c></rc>
    <rc><c>H </c><c>   1</c></rc>
    <rc><c>H </c><c>   1</c></rc>
    <rc><c>H </c><c>   1</c></rc>
    <rc><c>H </c><c>   1</c></rc>
    <rc><c>H </c><c>   1</c></rc>
    <rc><c>H </c><c>   1</c></rc>
    <rc><c>H </c><c>   1</c></rc>
    <rc><c>H </c><c>   1</c></rc>
    <rc><c>H </c><c>   1</c></rc>
    <rc><c>H </c><c>   1</c></rc>
    <rc><c>H </c><c>   1</c></rc>
    <rc><c>H </c><c>   1</c></rc>
    <rc><c>H </c><c>   1</c></rc>
    <rc><c>H </c><c>   1</c></rc>
    <rc><c>H </c><c>   1</c></rc>
    <rc><c>H </c><c>   1</c></rc>
    <rc><c>H </c><c>   1</c></rc>
    <rc><c>H </c><c>   1</c></rc>
    <rc><c>H </c><c>   1</c></rc>
    <rc><c>H </c><c>   1</c></rc>
    <rc><c>H </c><c>   1</c></rc>
    <rc><c>H </c><c>   1</c></rc>
    <rc><c>H </c><c>   1</c></rc>
    <rc><c>H </c><c>   1</c></rc>
    <rc><c>H </c><c>   1</c></rc>
    <rc><c>H </c><c>   1</c></rc>
    <rc><c>H </c><c>   1</c></rc>
    <rc><c>H </c><c>   1</c></rc>
    <rc><c>H </c><c>   1</c></rc>
    <rc><c>H </c><c>   1</c></rc>
    <rc><c>H </c><c>   1</c></rc>
    <rc><c>H </c><c>   1</c></rc>
    <rc><c>H </c><c>   1</c></rc>
    <rc><c>H </c><c>   1</c></rc>
    <rc><c>H </c><c>   1</c></rc>
    <rc><c>H </c><c>   1</c></rc>
    <rc><c>H </c><c>   1</c></rc>
    <rc><c>H </c><c>   1</c></rc>
    <rc><c>H </c><c>   1</c></rc>
    <rc><c>H </c><c>   1</c></rc>
    <rc><c>H </c><c>   1</c></rc>
    <rc><c>H </c><c>   1</c></rc>
    <rc><c>H </c><c>   1</c></rc>
    <rc><c>H </c><c>   1</c></rc>
    <rc><c>H </c><c>   1</c></rc>
    <rc><c>C </c><c>   2</c></rc>
    <rc><c>C </c><c>   2</c></rc>
    <rc><c>C </c><c>   2</c></rc>
    <rc><c>C </c><c>   2</c></rc>
    <rc><c>C </c><c>   2</c></rc>
    <rc><c>C </c><c>   2</c></rc>
    <rc><c>C </c><c>   2</c></rc>
    <rc><c>C </c><c>   2</c></rc>
    <rc><c>C </c><c>   2</c></rc>
    <rc><c>C </c><c>   2</c></rc>
    <rc><c>C </c><c>   2</c></rc>
    <rc><c>C </c><c>   2</c></rc>
    <rc><c>C </c><c>   2</c></rc>
    <rc><c>C </c><c>   2</c></rc>
    <rc><c>C </c><c>   2</c></rc>
    <rc><c>C </c><c>   2</c></rc>
   </set>
  </array>
  <array name="atomtypes" >
   <dimension dim="1">type</dimension>
   <field type="int">atomspertype</field>
   <field type="string">element</field>
   <field>mass</field>
   <field>valence</field>
   <field type="string">pseudopotential</field>
   <set>
    <rc><c>  64</c><c>H </c><c>      1.00000000</c><c>      1.00000000</c><c>PAW_PBE H 15Jun2001                     </c></rc>
    <rc><c>  16</c><c>C </c><c>     12.01100000</c><c>      4.00000000</c><c>PAW_PBE C 08Apr2002                     </c></rc>
   </set>
  </array>
 </atominfo>
 <structure name="initialpos" >
  <crystal>
   <varray name="basis" >
    <v>      12.08583241       0.00000000       0.00000000 </v>
    <v>       0.00000000       8.45365112       0.00000000 </v>
    <v>       0.00000000       0.00000000       8.44838721 </v>
   </varray>
   <i name="volume">    863.16674222 </i>
   <varray name="rec_basis" >
    <v>       0.08274151       0.00000000       0.00000000 </v>
    <v>       0.00000000       0.11829208       0.00000000 </v>
    <v>       0.00000000       0.00000000       0.11836579 </v>
   </varray>
  </crystal>
  <varray name="positions" >
   <v>       0.07496258       0.77863942       0.26175302 </v>
   <v>       0.92503744       0.22136058       0.73824701 </v>
   <v>       0.92503744       0.72136058       0.76175299 </v>
   <v>       0.07496258       0.27863942       0.23824698 </v>
   <v>       0.92503744       0.27863942       0.23824698 </v>
   <v>       0.07496258       0.72136058       0.76175299 </v>
   <v>       0.07496258       0.22136058       0.73824701 </v>
   <v>       0.92503744       0.77863942       0.26175302 </v>
   <v>       0.57496256       0.27863942       0.26175302 </v>
   <v>       0.42503741       0.72136058       0.73824701 </v>
   <v>       0.42503741       0.22136058       0.76175299 </v>
   <v>       0.57496256       0.77863942       0.23824698 </v>
   <v>       0.42503741       0.77863942       0.23824698 </v>
   <v>       0.57496256       0.22136058       0.76175299 </v>
   <v>       0.57496256       0.72136058       0.73824701 </v>
   <v>       0.42503741       0.27863942       0.26175302 </v>
   <v>       0.80278266       0.58221714       0.93157996 </v>
   <v>       0.19721734       0.41778286       0.06842004 </v>
   <v>       0.19721734       0.91778286       0.43157996 </v>
   <v>       0.80278266       0.08221714       0.56842004 </v>
   <v>       0.19721734       0.08221714       0.56842004 </v>
   <v>       0.80278266       0.91778286       0.43157996 </v>
   <v>       0.80278266       0.41778286       0.06842004 </v>
   <v>       0.19721734       0.58221714       0.93157996 </v>
   <v>       0.30278266       0.08221714       0.93157996 </v>
   <v>       0.69721734       0.91778286       0.06842004 </v>
   <v>       0.69721734       0.41778286       0.43157996 </v>
   <v>       0.30278266       0.58221714       0.56842004 </v>
   <v>       0.69721734       0.58221714       0.56842004 </v>
   <v>       0.30278266       0.41778286       0.43157996 </v>
   <v>       0.30278266       0.91778286       0.06842004 </v>
   <v>       0.69721734       0.08221714       0.93157996 </v>
   <v>       0.69676663       0.56851243       0.08242000 </v>
   <v>       0.30323337       0.43148757       0.91758000 </v>
   <v>       0.30323337       0.93148757       0.58242000 </v>
   <v>       0.69676663       0.06851243       0.41758000 </v>
   <v>       0.30323337       0.06851243       0.41758000 </v>
   <v>       0.69676663       0.93148757       0.58242000 </v>
   <v>       0.69676663       0.43148757       0.91758000 </v>
   <v>       0.30323337       0.56851243       0.08242000 </v>
   <v>       0.19676663       0.06851243       0.08242000 </v>
   <v>       0.80323337       0.93148757       0.91758000 </v>
   <v>       0.80323337       0.43148757       0.58242000 </v>
   <v>       0.19676663       0.56851243       0.41758000 </v>
   <v>       0.80323337       0.56851243       0.41758000 </v>
   <v>       0.19676663       0.43148757       0.58242000 </v>
   <v>       0.19676663       0.93148757       0.91758000 </v>
   <v>       0.80323337       0.06851243       0.08242000 </v>
   <v>       0.00000000       0.60141758       0.20663685 </v>
   <v>       0.00000000       0.39858242       0.79336312 </v>
   <v>       0.00000000       0.89858242       0.70663688 </v>
   <v>       0.00000000       0.10141758       0.29336315 </v>
   <v>       0.50000000       0.10141758       0.20663685 </v>
   <v>       0.50000000       0.89858242       0.79336312 </v>
   <v>       0.50000000       0.39858242       0.70663688 </v>
   <v>       0.50000000       0.60141758       0.29336315 </v>
   <v>       0.00000000       0.22802544       0.92368784 </v>
   <v>       0.00000000       0.77197456       0.07631216 </v>
   <v>       0.00000000       0.27197456       0.42368784 </v>
   <v>       0.00000000       0.72802544       0.57631216 </v>
   <v>       0.50000000       0.72802544       0.92368784 </v>
   <v>       0.50000000       0.27197456       0.07631216 </v>
   <v>       0.50000000       0.77197456       0.42368784 </v>
   <v>       0.50000000       0.22802544       0.57631216 </v>
   <v>       0.00000000       0.23254117       0.29842156 </v>
   <v>       0.00000000       0.76745883       0.70157842 </v>
   <v>       0.00000000       0.26745883       0.79842158 </v>
   <v>       0.00000000       0.73254117       0.20157842 </v>
   <v>       0.50000000       0.73254117       0.29842156 </v>
   <v>       0.50000000       0.26745883       0.70157842 </v>
   <v>       0.50000000       0.76745883       0.79842158 </v>
   <v>       0.50000000       0.23254117       0.20157842 </v>
   <v>       0.74967585       0.50000000       0.00000000 </v>
   <v>       0.25032415       0.50000000       0.00000000 </v>
   <v>       0.25032415       0.00000000       0.50000000 </v>
   <v>       0.74967585       0.00000000       0.50000000 </v>
   <v>       0.24967585       0.00000000       0.00000000 </v>
   <v>       0.75032415       0.00000000       0.00000000 </v>
   <v>       0.75032415       0.50000000       0.50000000 </v>
   <v>       0.24967585       0.50000000       0.50000000 </v>
  </varray>
 </structure>
 <calculation>
  <scstep>
   <time name="dav">  247.80  374.73</time>
   <time name="total">  248.48  375.42</time>
   <energy>
    <i name="alphaZ">     71.45224998 </i>
    <i name="ewald">  -1201.96934967 </i>
    <i name="hartreedc">  -1210.49819230 </i>
    <i name="XCdc">    365.16463515 </i>
    <i name="pawpsdc">    655.30793496 </i>
    <i name="pawaedc">   -674.29210410 </i>
    <i name="eentropy">      0.00000000 </i>
    <i name="bandstr">   -709.60661678 </i>
    <i name="atom">   3153.63586372 </i>
    <i name="e_fr_energy">    449.19442096 </i>
    <i name="e_wo_entrp">    449.19442096 </i>
    <i name="e_0_energy">    449.19442096 </i>
   </energy>
  </scstep>
  <scstep>
   <time name="dav">  291.00  435.92</time>
   <time name="total">  291.10  436.06</time>
   <energy>
    <i name="e_fr_energy">   -346.79213592 </i>
    <i name="e_wo_entrp">   -346.79213592 </i>
    <i name="e_0_energy">   -346.79213592 </i>
   </energy>
  </scstep>
  <scstep>
   <time name="dav">  305.60  456.63</time>
   <time name="total">  305.62  456.67</time>
   <energy>
    <i name="e_fr_energy">   -430.91163562 </i>
    <i name="e_wo_entrp">   -430.91163562 </i>
    <i name="e_0_energy">   -430.91163562 </i>
   </energy>
  </scstep>
  <scstep>
   <time name="dav">  301.70  453.09</time>
   <time name="total">  301.71  453.11</time>
   <energy>
    <i name="e_fr_energy">   -433.38434002 </i>
    <i name="e_wo_entrp">   -433.38434002 </i>
    <i name="e_0_energy">   -433.38434002 </i>
   </energy>
  </scstep>
  <scstep>
   <time name="dav">  297.17  449.40</time>
   <time name="total">  301.20  455.73</time>
   <energy>
    <i name="e_fr_energy">   -433.44730155 </i>
    <i name="e_wo_entrp">   -433.44730155 </i>
    <i name="e_0_energy">   -433.44730155 </i>
   </energy>
  </scstep>
  <scstep>
   <time name="dav">  274.93  415.03</time>
   <time name="total">  279.56  421.74</time>
   <energy>
    <i name="e_fr_energy">   -390.61974688 </i>
    <i name="e_wo_entrp">   -390.61974688 </i>
    <i name="e_0_energy">   -390.61974688 </i>
   </energy>
  </scstep>
  <scstep>
   <time name="dav">  294.00  435.98</time>
   <time name="total">  298.70  443.14</time>
   <energy>
    <i name="e_fr_energy">   -385.96265595 </i>
    <i name="e_wo_entrp">   -385.96265595 </i>
    <i name="e_0_energy">   -385.96265595 </i>
   </energy>
  </scstep>
  <scstep>
   <time name="dav">  279.25  419.73</time>
   <time name="total">  284.32  427.42</time>
   <energy>
    <i name="e_fr_energy">   -384.87127771 </i>
    <i name="e_wo_entrp">   -384.87127771 </i>
    <i name="e_0_energy">   -384.87127771 </i>
   </energy>
  </scstep>
  <scstep>
   <time name="dav">  291.18  439.94</time>
   <time name="total">  297.22  448.70</time>
   <energy>
    <i name="e_fr_energy">   -384.73443116 </i>
    <i name="e_wo_entrp">   -384.73443116 </i>
    <i name="e_0_energy">   -384.73443116 </i>
   </energy>
  </scstep>
  <scstep>
   <time name="dav">  265.59  394.81</time>
   <time name="total">  270.37  401.90</time>
   <energy>
    <i name="e_fr_energy">   -384.75395149 </i>
    <i name="e_wo_entrp">   -384.75395149 </i>
    <i name="e_0_energy">   -384.75395149 </i>
   </energy>
  </scstep>
  <scstep>
   <time name="dav">  282.64  429.55</time>
   <time name="total">  286.86  436.14</time>
   <energy>
    <i name="e_fr_energy">   -384.74820680 </i>
    <i name="e_wo_entrp">   -384.74820680 </i>
    <i name="e_0_energy">   -384.74820680 </i>
   </energy>
  </scstep>
  <scstep>
   <time name="dav">  291.57  435.78</time>
   <time name="total">  295.56  441.76</time>
   <energy>
    <i name="e_fr_energy">   -384.74856177 </i>
    <i name="e_wo_entrp">   -384.74856177 </i>
    <i name="e_0_energy">   -384.74856177 </i>
   </energy>
  </scstep>
  <scstep>
   <time name="dav">  272.56  410.54</time>
   <time name="total">  278.09  418.91</time>
   <energy>
    <i name="e_fr_energy">   -384.74852915 </i>
    <i name="e_wo_entrp">   -384.74852915 </i>
    <i name="e_0_energy">   -384.74852915 </i>
   </energy>
  </scstep>
  <scstep>
   <time name="dav">  295.07  437.34</time>
   <time name="total">  300.27  445.35</time>
   <energy>
    <i name="e_fr_energy">   -384.74853983 </i>
    <i name="e_wo_entrp">   -384.74853983 </i>
    <i name="e_0_energy">   -384.74853983 </i>
   </energy>
  </scstep>
  <scstep>
   <time name="dav">  298.58  448.75</time>
   <time name="total">  302.94  455.99</time>
   <energy>
    <i name="e_fr_energy">   -384.74853811 </i>
    <i name="e_wo_entrp">   -384.74853811 </i>
    <i name="e_0_energy">   -384.74853811 </i>
   </energy>
  </scstep>
  <scstep>
   <time name="dav">  206.75  311.57</time>
   <time name="total">  207.36  312.61</time>
   <energy>
    <i name="alphaZ">     71.45224998 </i>
    <i name="ewald">  -1201.96934967 </i>
    <i name="hartreedc">  -1656.72425272 </i>
    <i name="XCdc">    404.28791162 </i>
    <i name="pawpsdc">   1392.82740447 </i>
    <i name="pawaedc">  -1415.11299498 </i>
    <i name="eentropy">      0.00000000 </i>
    <i name="bandstr">  -1133.14537021 </i>
    <i name="atom">   3153.63586372 </i>
    <i name="e_fr_energy">   -384.74853778 </i>
    <i name="e_wo_entrp">   -384.74853778 </i>
    <i name="e_0_energy">   -384.74853778 </i>
   </energy>
  </scstep>
  <structure>
   <crystal>
    <varray name="basis" >
     <v>      12.08583241       0.00000000       0.00000000 </v>
     <v>       0.00000000       8.45365112       0.00000000 </v>
     <v>       0.00000000       0.00000000       8.44838721 </v>
    </varray>
    <i name="volume">    863.16674222 </i>
    <varray name="rec_basis" >
     <v>       0.08274151       0.00000000       0.00000000 </v>
     <v>       0.00000000       0.11829208       0.00000000 </v>
     <v>       0.00000000       0.00000000       0.11836579 </v>
    </varray>
   </crystal>
   <varray name="positions" >
    <v>       0.07496258       0.77863942       0.26175302 </v>
    <v>       0.92503744       0.22136058       0.73824701 </v>
    <v>       0.92503744       0.72136058       0.76175299 </v>
    <v>       0.07496258       0.27863942       0.23824698 </v>
    <v>       0.92503744       0.27863942       0.23824698 </v>
    <v>       0.07496258       0.72136058       0.76175299 </v>
    <v>       0.07496258       0.22136058       0.73824701 </v>
    <v>       0.92503744       0.77863942       0.26175302 </v>
    <v>       0.57496256       0.27863942       0.26175302 </v>
    <v>       0.42503741       0.72136058       0.73824701 </v>
    <v>       0.42503741       0.22136058       0.76175299 </v>
    <v>       0.57496256       0.77863942       0.23824698 </v>
    <v>       0.42503741       0.77863942       0.23824698 </v>
    <v>       0.57496256       0.22136058       0.76175299 </v>
    <v>       0.57496256       0.72136058       0.73824701 </v>
    <v>       0.42503741       0.27863942       0.26175302 </v>
    <v>       0.80278266       0.58221714       0.93157996 </v>
    <v>       0.19721734       0.41778286       0.06842004 </v>
    <v>       0.19721734       0.91778286       0.43157996 </v>
    <v>       0.80278266       0.08221714       0.56842004 </v>
    <v>       0.19721734       0.08221714       0.56842004 </v>
    <v>       0.80278266       0.91778286       0.43157996 </v>
    <v>       0.80278266       0.41778286       0.06842004 </v>
    <v>       0.19721734       0.58221714       0.93157996 </v>
    <v>       0.30278266       0.08221714       0.93157996 </v>
    <v>       0.69721734       0.91778286       0.06842004 </v>
    <v>       0.69721734       0.41778286       0.43157996 </v>
    <v>       0.30278266       0.58221714       0.56842004 </v>
    <v>       0.69721734       0.58221714       0.56842004 </v>
    <v>       0.30278266       0.41778286       0.43157996 </v>
    <v>       0.30278266       0.91778286       0.06842004 </v>
    <v>       0.69721734       0.08221714       0.93157996 </v>
    <v>       0.69676663       0.56851243       0.08242000 </v>
    <v>       0.30323337       0.43148757       0.91758000 </v>
    <v>       0.30323337       0.93148757       0.58242000 </v>
    <v>       0.69676663       0.06851243       0.41758000 </v>
    <v>       0.30323337       0.06851243       0.41758000 </v>
    <v>       0.69676663       0.93148757       0.58242000 </v>
    <v>       0.69676663       0.43148757       0.91758000 </v>
    <v>       0.30323337       0.56851243       0.08242000 </v>
    <v>       0.19676663       0.06851243       0.08242000 </v>
    <v>       0.80323337       0.93148757       0.91758000 </v>
    <v>       0.80323337       0.43148757       0.58242000 </v>
    <v>       0.19676663       0.56851243       0.41758000 </v>
    <v>       0.80323337       0.56851243       0.41758000 </v>
    <v>       0.19676663       0.43148757       0.58242000 </v>
    <v>       0.19676663       0.93148757       0.91758000 </v>
    <v>       0.80323337       0.06851243       0.08242000 </v>
    <v>       0.00000000       0.60141758       0.20663685 </v>
    <v>       0.00000000       0.39858242       0.79336312 </v>
    <v>       0.00000000       0.89858242       0.70663688 </v>
    <v>       0.00000000       0.10141758       0.29336315 </v>
    <v>       0.50000000       0.10141758       0.20663685 </v>
    <v>       0.50000000       0.89858242       0.79336312 </v>
    <v>       0.50000000       0.39858242       0.70663688 </v>
    <v>       0.50000000       0.60141758       0.29336315 </v>
    <v>       0.00000000       0.22802544       0.92368784 </v>
    <v>       0.00000000       0.77197456       0.07631216 </v>
    <v>       0.00000000       0.27197456       0.42368784 </v>
    <v>       0.00000000       0.72802544       0.57631216 </v>
    <v>       0.50000000       0.72802544       0.92368784 </v>
    <v>       0.50000000       0.27197456       0.07631216 </v>
    <v>       0.50000000       0.77197456       0.42368784 </v>
    <v>       0.50000000       0.22802544       0.57631216 </v>
    <v>       0.00000000       0.23254117       0.29842156 </v>
    <v>       0.00000000       0.76745883       0.70157842 </v>
    <v>       0.00000000       0.26745883       0.79842158 </v>
    <v>       0.00000000       0.73254117       0.20157842 </v>
    <v>       0.50000000       0.73254117       0.29842156 </v>
    <v>       0.50000000       0.26745883       0.70157842 </v>
    <v>       0.50000000       0.76745883       0.79842158 </v>
    <v>       0.50000000       0.23254117       0.20157842 </v>
    <v>       0.74967585       0.50000000       0.00000000 </v>
    <v>       0.25032415       0.50000000       0.00000000 </v>
    <v>       0.25032415       0.00000000       0.50000000 </v>
    <v>       0.74967585       0.00000000       0.50000000 </v>
    <v>       0.24967585       0.00000000       0.00000000 </v>
    <v>       0.75032415       0.00000000       0.00000000 </v>
    <v>       0.75032415       0.50000000       0.50000000 </v>
    <v>       0.24967585       0.50000000       0.50000000 </v>
   </varray>
  </structure>
  <varray name="forces" >
   <v>      -0.34244988      -0.14400360      -0.20401014 </v>
   <v>       0.34244988       0.14400360       0.20401014 </v>
   <v>       0.34244988       0.14400360      -0.20401014 </v>
   <v>      -0.34244988      -0.14400360       0.20401014 </v>
   <v>       0.34244988      -0.14400360       0.20401014 </v>
   <v>      -0.34244988       0.14400360      -0.20401014 </v>
   <v>      -0.34244988       0.14400360       0.20401014 </v>
   <v>       0.34244988      -0.14400360      -0.20401014 </v>
   <v>      -0.34244988      -0.14400360      -0.20401014 </v>
   <v>       0.34244988       0.14400360       0.20401014 </v>
   <v>       0.34244988       0.14400360      -0.20401014 </v>
   <v>      -0.34244988      -0.14400360       0.20401014 </v>
   <v>       0.34244988      -0.14400360       0.20401014 </v>
   <v>      -0.34244988       0.14400360      -0.20401014 </v>
   <v>      -0.34244988       0.14400360       0.20401014 </v>
   <v>       0.34244988      -0.14400360      -0.20401014 </v>
   <v>      -0.24420026      -0.25385648       0.21737602 </v>
   <v>       0.24420026       0.25385648      -0.21737602 </v>
   <v>       0.24420026       0.25385648       0.21737602 </v>
   <v>      -0.24420026      -0.25385648      -0.21737602 </v>
   <v>       0.24420026      -0.25385648      -0.21737602 </v>
   <v>      -0.24420026       0.25385648       0.21737602 </v>
   <v>      -0.24420026       0.25385648      -0.21737602 </v>
   <v>       0.24420026      -0.25385648       0.21737602 </v>
   <v>      -0.24420026      -0.25385648       0.21737602 </v>
   <v>       0.24420026       0.25385648      -0.21737602 </v>
   <v>       0.24420026       0.25385648       0.21737602 </v>
   <v>      -0.24420026      -0.25385648      -0.21737602 </v>
   <v>       0.24420026      -0.25385648      -0.21737602 </v>
   <v>      -0.24420026       0.25385648       0.21737602 </v>
   <v>      -0.24420026       0.25385648      -0.21737602 </v>
   <v>       0.24420026      -0.25385648       0.21737602 </v>
   <v>       0.23615423      -0.21835170      -0.25616659 </v>
   <v>      -0.23615423       0.21835170       0.25616659 </v>
   <v>      -0.23615423       0.21835170      -0.25616659 </v>
   <v>       0.23615423      -0.21835170       0.25616659 </v>
   <v>      -0.23615423      -0.21835170       0.25616659 </v>
   <v>       0.23615423       0.21835170      -0.25616659 </v>
   <v>       0.23615423       0.21835170       0.25616659 </v>
   <v>      -0.23615423      -0.21835170      -0.25616659 </v>
   <v>       0.23615423      -0.21835170      -0.25616659 </v>
   <v>      -0.23615423       0.21835170       0.25616659 </v>
   <v>      -0.23615423       0.21835170      -0.25616659 </v>
   <v>       0.23615423      -0.21835170       0.25616659 </v>
   <v>      -0.23615423      -0.21835170       0.25616659 </v>
   <v>       0.23615423       0.21835170      -0.25616659 </v>
   <v>       0.23615423       0.21835170       0.25616659 </v>
   <v>      -0.23615423      -0.21835170      -0.25616659 </v>
   <v>       0.00000000       0.42335457      -0.02694979 </v>
   <v>       0.00000000      -0.42335457       0.02694979 </v>
   <v>       0.00000000      -0.42335457      -0.02694979 </v>
   <v>       0.00000000       0.42335457       0.02694979 </v>
   <v>       0.00000000       0.42335457      -0.02694979 </v>
   <v>       0.00000000      -0.42335457       0.02694979 </v>
   <v>       0.00000000      -0.42335457      -0.02694979 </v>
   <v>       0.00000000       0.42335457       0.02694979 </v>
   <v>       0.00000000       0.13783190      -0.42014696 </v>
   <v>       0.00000000      -0.13783190       0.42014696 </v>
   <v>       0.00000000      -0.13783190      -0.42014696 </v>
   <v>       0.00000000       0.13783190       0.42014696 </v>
   <v>       0.00000000       0.13783190      -0.42014696 </v>
   <v>       0.00000000      -0.13783190       0.42014696 </v>
   <v>       0.00000000      -0.13783190      -0.42014696 </v>
   <v>       0.00000000       0.13783190       0.42014696 </v>
   <v>       0.00000000       0.00023469       0.00986194 </v>
   <v>       0.00000000      -0.00023469      -0.00986194 </v>
   <v>       0.00000000      -0.00023469       0.00986194 </v>
   <v>       0.00000000       0.00023469      -0.00986194 </v>
   <v>       0.00000000       0.00023469       0.00986194 </v>
   <v>       0.00000000      -0.00023469      -0.00986194 </v>
   <v>       0.00000000      -0.00023469       0.00986194 </v>
   <v>       0.00000000       0.00023469      -0.00986194 </v>
   <v>      -0.00137361       0.00000000       0.00000000 </v>
   <v>       0.00137361       0.00000000      -0.00000000 </v>
   <v>       0.00137361       0.00000000      -0.00000000 </v>
   <v>      -0.00137361       0.00000000       0.00000000 </v>
   <v>      -0.00137361       0.00000000       0.00000000 </v>
   <v>       0.00137361       0.00000000      -0.00000000 </v>
   <v>       0.00137361       0.00000000       0.00000000 </v>
   <v>      -0.00137361       0.00000000       0.00000000 </v>
  </varray>
  <varray name="stress" >
   <v>     -21.54853698       0.00000000       0.00000000 </v>
   <v>       0.00000000     -21.53330931      -0.00000000 </v>
   <v>       0.00000000       0.00000000     -21.87077993 </v>
  </varray>
  <energy>
   <i name="e_fr_energy">   -387.11902302 </i>
   <i name="e_wo_entrp">   -387.11902302 </i>
   <i name="e_0_energy">      0.00000000 </i>
  </energy>
  <time name="totalsc"> 4899.70 7341.24</time>
 </calculation>
 <calculation>
  <scstep>
   <time name="dav">  252.58  379.73</time>
   <time name="total">  257.39  387.69</time>
   <energy>
    <i name="alphaZ">     71.45224998 </i>
    <i name="ewald">  -1138.06024874 </i>
    <i name="hartreedc">  -1689.03772701 </i>
    <i name="XCdc">    406.40818950 </i>
    <i name="pawpsdc">   1392.83652187 </i>
    <i name="pawaedc">  -1415.12257773 </i>
    <i name="eentropy">      0.00000000 </i>
    <i name="bandstr">  -1167.12701650 </i>
    <i name="atom">   3153.63586372 </i>
    <i name="e_fr_energy">   -385.01474490 </i>
    <i name="e_wo_entrp">   -385.01474490 </i>
    <i name="e_0_energy">   -385.01474490 </i>
   </energy>
  </scstep>
  <scstep>
   <time name="dav">  287.10  430.83</time>
   <time name="total">  291.51  437.60</time>
   <energy>
    <i name="e_fr_energy">   -384.90288339 </i>
    <i name="e_wo_entrp">   -384.90288339 </i>
    <i name="e_0_energy">   -384.90288339 </i>
   </energy>
  </scstep>
  <scstep>
   <time name="dav">  286.67  431.44</time>
   <time name="total">  291.03  437.98</time>
   <energy>
    <i name="e_fr_energy">   -384.89455772 </i>
    <i name="e_wo_entrp">   -384.89455772 </i>
    <i name="e_0_energy">   -384.89455772 </i>
   </energy>
  </scstep>
  <scstep>
   <time name="dav">  276.48  417.64</time>
   <time name="total">  281.29  425.17</time>
   <energy>
    <i name="e_fr_energy">   -384.89097825 </i>
    <i name="e_wo_entrp">   -384.89097825 </i>
    <i name="e_0_energy">   -384.89097825 </i>
   </energy>
  </scstep>
  <scstep>
   <time name="dav">  293.60  443.84</time>
   <time name="total">  298.49  451.48</time>
   <energy>
    <i name="e_fr_energy">   -384.89012978 </i>
    <i name="e_wo_entrp">   -384.89012978 </i>
    <i name="e_0_energy">   -384.89012978 </i>
   </energy>
  </scstep>
  <scstep>
   <time name="dav">  267.09  406.21</time>
   <time name="total">  271.75  413.83</time>
   <energy>
    <i name="e_fr_energy">   -384.88975618 </i>
    <i name="e_wo_entrp">   -384.88975618 </i>
    <i name="e_0_energy">   -384.88975618 </i>
   </energy>
  </scstep>
  <scstep>
   <time name="dav">  276.36  417.65</time>
   <time name="total">  280.96  424.56</time>
   <energy>
    <i name="e_fr_energy">   -384.88971201 </i>
    <i name="e_wo_entrp">   -384.88971201 </i>
    <i name="e_0_energy">   -384.88971201 </i>
   </energy>
  </scstep>
  <scstep>
   <time name="dav">  298.79  451.57</time>
   <time name="total">  303.65  459.00</time>
   <energy>
    <i name="e_fr_energy">   -384.88970546 </i>
    <i name="e_wo_entrp">   -384.88970546 </i>
    <i name="e_0_energy">   -384.88970546 </i>
   </energy>
  </scstep>
  <scstep>
   <time name="dav">  282.27  427.18</time>
   <time name="total">  286.43  434.60</time>
   <energy>
    <i name="e_fr_energy">   -384.88970355 </i>
    <i name="e_wo_entrp">   -384.88970355 </i>
    <i name="e_0_energy">   -384.88970355 </i>
   </energy>
  </scstep>
  <scstep>
   <time name="dav">  264.64  398.78</time>
   <time name="total">  269.17  405.68</time>
   <energy>
    <i name="e_fr_energy">   -384.88968858 </i>
    <i name="e_wo_entrp">   -384.88968858 </i>
    <i name="e_0_energy">   -384.88968858 </i>
   </energy>
  </scstep>
  <scstep>
   <time name="dav">  221.83  334.66</time>
   <time name="total">  222.48  335.60</time>
   <energy>
    <i name="alphaZ">     71.45224998 </i>
    <i name="ewald">  -1138.06024874 </i>
    <i name="hartreedc">  -1709.05416423 </i>
    <i name="XCdc">    407.76582073 </i>
    <i name="pawpsdc">   1460.00114177 </i>
    <i name="pawaedc">  -1482.59923399 </i>
    <i name="eentropy">      0.00000000 </i>
    <i name="bandstr">  -1148.03111817 </i>
    <i name="atom">   3153.63586372 </i>
    <i name="e_fr_energy">   -384.88968893 </i>
    <i name="e_wo_entrp">   -384.88968893 </i>
    <i name="e_0_energy">   -384.88968893 </i>
   </energy>
  </scstep>
  <structure>
   <crystal>
    <varray name="basis" >
     <v>      12.08583241       0.00000000       0.00000000 </v>
     <v>       0.00000000       8.45365112       0.00000000 </v>
     <v>       0.00000000       0.00000000       8.44838721 </v>
    </varray>
    <i name="volume">    863.16674222 </i>
    <varray name="rec_basis" >
     <v>       0.08274151       0.00000000       0.00000000 </v>
     <v>       0.00000000       0.11829208       0.00000000 </v>
     <v>       0.00000000       0.00000000       0.11836579 </v>
    </varray>
   </crystal>
   <varray name="positions" >
    <v>       0.07359563       0.77781764       0.26058807 </v>
    <v>       0.92640439       0.22218236       0.73941196 </v>
    <v>       0.92640439       0.72218236       0.76058804 </v>
    <v>       0.07359563       0.27781764       0.23941193 </v>
    <v>       0.92640439       0.27781764       0.23941193 </v>
    <v>       0.07359563       0.72218236       0.76058804 </v>
    <v>       0.07359563       0.22218236       0.73941196 </v>
    <v>       0.92640439       0.77781764       0.26058807 </v>
    <v>       0.57359561       0.27781764       0.26058807 </v>
    <v>       0.42640436       0.72218236       0.73941196 </v>
    <v>       0.42640436       0.22218236       0.76058804 </v>
    <v>       0.57359561       0.77781764       0.23941193 </v>
    <v>       0.42640436       0.77781764       0.23941193 </v>
    <v>       0.57359561       0.22218236       0.76058804 </v>
    <v>       0.57359561       0.72218236       0.73941196 </v>
    <v>       0.42640436       0.27781764       0.26058807 </v>
    <v>       0.80180790       0.58076845       0.93282124 </v>
    <v>       0.19819210       0.41923155       0.06717876 </v>
    <v>       0.19819210       0.91923155       0.43282124 </v>
    <v>       0.80180790       0.08076845       0.56717876 </v>
    <v>       0.19819210       0.08076845       0.56717876 </v>
    <v>       0.80180790       0.91923155       0.43282124 </v>
    <v>       0.80180790       0.41923155       0.06717876 </v>
    <v>       0.19819210       0.58076845       0.93282124 </v>
    <v>       0.30180790       0.08076845       0.93282124 </v>
    <v>       0.69819210       0.91923155       0.06717876 </v>
    <v>       0.69819210       0.41923155       0.43282124 </v>
    <v>       0.30180790       0.58076845       0.56717876 </v>
    <v>       0.69819210       0.58076845       0.56717876 </v>
    <v>       0.30180790       0.41923155       0.43282124 </v>
    <v>       0.30180790       0.91923155       0.06717876 </v>
    <v>       0.69819210       0.08076845       0.93282124 </v>
    <v>       0.69770928       0.56726636       0.08095722 </v>
    <v>       0.30229072       0.43273364       0.91904278 </v>
    <v>       0.30229072       0.93273364       0.58095722 </v>
    <v>       0.69770928       0.06726636       0.41904278 </v>
    <v>       0.30229072       0.06726636       0.41904278 </v>
    <v>       0.69770928       0.93273364       0.58095722 </v>
    <v>       0.69770928       0.43273364       0.91904278 </v>
    <v>       0.30229072       0.56726636       0.08095722 </v>
    <v>       0.19770928       0.06726636       0.08095722 </v>
    <v>       0.80229072       0.93273364       0.91904278 </v>
    <v>       0.80229072       0.43273364       0.58095722 </v>
    <v>       0.19770928       0.56726636       0.41904278 </v>
    <v>       0.80229072       0.56726636       0.41904278 </v>
    <v>       0.19770928       0.43273364       0.58095722 </v>
    <v>       0.19770928       0.93273364       0.91904278 </v>
    <v>       0.80229072       0.06726636       0.08095722 </v>
    <v>       0.00000000       0.60383354       0.20648296 </v>
    <v>       0.00000000       0.39616646       0.79351701 </v>
    <v>       0.00000000       0.89616646       0.70648299 </v>
    <v>       0.00000000       0.10383354       0.29351704 </v>
    <v>       0.50000000       0.10383354       0.20648296 </v>
    <v>       0.50000000       0.89616646       0.79351701 </v>
    <v>       0.50000000       0.39616646       0.70648299 </v>
    <v>       0.50000000       0.60383354       0.29351704 </v>
    <v>       0.00000000       0.22881201       0.92128868 </v>
    <v>       0.00000000       0.77118799       0.07871132 </v>
    <v>       0.00000000       0.27118799       0.42128868 </v>
    <v>       0.00000000       0.72881201       0.57871132 </v>
    <v>       0.50000000       0.72881201       0.92128868 </v>
    <v>       0.50000000       0.27118799       0.07871132 </v>
    <v>       0.50000000       0.77118799       0.42128868 </v>
    <v>       0.50000000       0.22881201       0.57871132 </v>
    <v>       0.00000000       0.23254251       0.29847788 </v>
    <v>       0.00000000       0.76745749       0.70152211 </v>
    <v>       0.00000000       0.26745749       0.79847789 </v>
    <v>       0.00000000       0.73254251       0.20152211 </v>
    <v>       0.50000000       0.73254251       0.29847788 </v>
    <v>       0.50000000       0.26745749       0.70152211 </v>
    <v>       0.50000000       0.76745749       0.79847789 </v>
    <v>       0.50000000       0.23254251       0.20152211 </v>
    <v>       0.74967036       0.50000000       0.00000000 </v>
    <v>       0.25032964       0.50000000      -0.00000000 </v>
    <v>       0.25032964       0.00000000       0.50000000 </v>
    <v>       0.74967036       0.00000000       0.50000000 </v>
    <v>       0.24967036       0.00000000       0.00000000 </v>
    <v>       0.75032964       0.00000000      -0.00000000 </v>
    <v>       0.75032964       0.50000000       0.50000000 </v>
    <v>       0.24967036       0.50000000       0.50000000 </v>
   </varray>
  </structure>
  <varray name="forces" >
   <v>       0.18475816       0.08126285       0.09443345 </v>
   <v>      -0.18475816      -0.08126285      -0.09443345 </v>
   <v>      -0.18475816      -0.08126285       0.09443345 </v>
   <v>       0.18475816       0.08126285      -0.09443345 </v>
   <v>      -0.18475816       0.08126285      -0.09443345 </v>
   <v>       0.18475816      -0.08126285       0.09443345 </v>
   <v>       0.18475816      -0.08126285      -0.09443345 </v>
   <v>      -0.18475816       0.08126285       0.09443345 </v>
   <v>       0.18475816       0.08126285       0.09443345 </v>
   <v>      -0.18475816      -0.08126285      -0.09443345 </v>
   <v>      -0.18475816      -0.08126285       0.09443345 </v>
   <v>       0.18475816       0.08126285      -0.09443345 </v>
   <v>      -0.18475816       0.08126285      -0.09443345 </v>
   <v>       0.18475816      -0.08126285       0.09443345 </v>
   <v>       0.18475816      -0.08126285      -0.09443345 </v>
   <v>      -0.18475816       0.08126285       0.09443345 </v>
   <v>       0.12717952       0.14749267      -0.11729605 </v>
   <v>      -0.12717952      -0.14749267       0.11729605 </v>
   <v>      -0.12717952      -0.14749267      -0.11729605 </v>
   <v>       0.12717952       0.14749267       0.11729605 </v>
   <v>      -0.12717952       0.14749267       0.11729605 </v>
   <v>       0.12717952      -0.14749267      -0.11729605 </v>
   <v>       0.12717952      -0.14749267       0.11729605 </v>
   <v>      -0.12717952       0.14749267      -0.11729605 </v>
   <v>       0.12717952       0.14749267      -0.11729605 </v>
   <v>      -0.12717952      -0.14749267       0.11729605 </v>
   <v>      -0.12717952      -0.14749267      -0.11729605 </v>
   <v>       0.12717952       0.14749267       0.11729605 </v>
   <v>      -0.12717952       0.14749267       0.11729605 </v>
   <v>       0.12717952      -0.14749267      -0.11729605 </v>
   <v>       0.12717952      -0.14749267       0.11729605 </v>
   <v>      -0.12717952       0.14749267      -0.11729605 </v>
   <v>      -0.13315870       0.11586967       0.14484121 </v>
   <v>       0.13315870      -0.11586967      -0.14484121 </v>
   <v>       0.13315870      -0.11586967       0.14484121 </v>
   <v>      -0.13315870       0.11586967      -0.14484121 </v>
   <v>       0.13315870       0.11586967      -0.14484121 </v>
   <v>      -0.13315870      -0.11586967       0.14484121 </v>
   <v>      -0.13315870      -0.11586967      -0.14484121 </v>
   <v>       0.13315870       0.11586967       0.14484121 </v>
   <v>      -0.13315870       0.11586967       0.14484121 </v>
   <v>       0.13315870      -0.11586967      -0.14484121 </v>
   <v>       0.13315870      -0.11586967       0.14484121 </v>
   <v>      -0.13315870       0.11586967      -0.14484121 </v>
   <v>       0.13315870       0.11586967      -0.14484121 </v>
   <v>      -0.13315870      -0.11586967       0.14484121 </v>
   <v>      -0.13315870      -0.11586967      -0.14484121 </v>
   <v>       0.13315870       0.11586967       0.14484121 </v>
   <v>       0.00000000      -0.23071027      -0.00052834 </v>
   <v>       0.00000000       0.23071027       0.00052834 </v>
   <v>       0.00000000       0.23071027      -0.00052834 </v>
   <v>       0.00000000      -0.23071027       0.00052834 </v>
   <v>       0.00000000      -0.23071027      -0.00052834 </v>
   <v>       0.00000000       0.23071027       0.00052834 </v>
   <v>       0.00000000       0.23071027      -0.00052834 </v>
   <v>       0.00000000      -0.23071027       0.00052834 </v>
   <v>       0.00000000      -0.07140820       0.24905722 </v>
   <v>       0.00000000       0.07140820      -0.24905722 </v>
   <v>       0.00000000       0.07140820       0.24905722 </v>
   <v>       0.00000000      -0.07140820      -0.24905722 </v>
   <v>       0.00000000      -0.07140820       0.24905722 </v>
   <v>       0.00000000       0.07140820      -0.24905722 </v>
   <v>       0.00000000       0.07140820       0.24905722 </v>
   <v>       0.00000000      -0.07140820      -0.24905722 </v>
   <v>       0.00000000      -0.00457767      -0.03920518 </v>
   <v>       0.00000000       0.00457767       0.03920518 </v>
   <v>       0.00000000       0.00457767      -0.03920518 </v>
   <v>       0.00000000      -0.00457767       0.03920518 </v>
   <v>       0.00000000      -0.00457767      -0.03920518 </v>
   <v>       0.00000000       0.00457767       0.03920518 </v>
   <v>       0.00000000       0.00457767      -0.03920518 </v>
   <v>       0.00000000      -0.00457767       0.03920518 </v>
   <v>      -0.00359489       0.00000000       0.00000000 </v>
   <v>       0.00359489       0.00000000       0.00000000 </v>
   <v>       0.00359489       0.00000000       0.00000000 </v>
   <v>      -0.00359489       0.00000000       0.00000000 </v>
   <v>      -0.00359489       0.00000000       0.00000000 </v>
   <v>       0.00359489       0.00000000       0.00000000 </v>
   <v>       0.00359489       0.00000000       0.00000000 </v>
   <v>      -0.00359489       0.00000000       0.00000000 </v>
  </varray>
  <varray name="stress" >
   <v>       6.08129256       0.00000000       0.00000000 </v>
   <v>       0.00000000       6.26431047       0.00000000 </v>
   <v>       0.00000000       0.00000000       6.54501058 </v>
  </varray>
  <energy>
   <i name="e_fr_energy">   -387.25111909 </i>
   <i name="e_wo_entrp">   -387.25111909 </i>
   <i name="e_0_energy">      0.00000000 </i>
  </energy>
  <time name="totalsc"> 3390.11 5108.33</time>
 </calculation>
 <calculation>
  <scstep>
   <time name="dav">  258.47  392.47</time>
   <time name="total">  262.95  399.64</time>
   <energy>
    <i name="alphaZ">     71.45224998 </i>
    <i name="ewald">  -1160.14982640 </i>
    <i name="hartreedc">  -1697.90474231 </i>
    <i name="XCdc">    407.03632926 </i>
    <i name="pawpsdc">   1459.98857888 </i>
    <i name="pawaedc">  -1482.58624154 </i>
    <i name="eentropy">      0.00000000 </i>
    <i name="bandstr">  -1136.42528907 </i>
    <i name="atom">   3153.63586372 </i>
    <i name="e_fr_energy">   -384.95307749 </i>
    <i name="e_wo_entrp">   -384.95307749 </i>
    <i name="e_0_energy">   -384.95307749 </i>
   </energy>
  </scstep>
  <scstep>
   <time name="dav">  287.34  429.64</time>
   <time name="total">  292.13  436.85</time>
   <energy>
    <i name="e_fr_energy">   -384.93872802 </i>
    <i name="e_wo_entrp">   -384.93872802 </i>
    <i name="e_0_energy">   -384.93872802 </i>
   </energy>
  </scstep>
  <scstep>
   <time name="dav">  287.41  434.46</time>
   <time name="total">  292.12  442.12</time>
   <energy>
    <i name="e_fr_energy">   -384.93768751 </i>
    <i name="e_wo_entrp">   -384.93768751 </i>
    <i name="e_0_energy">   -384.93768751 </i>
   </energy>
  </scstep>
  <scstep>
   <time name="dav">  280.63  427.52</time>
   <time name="total">  285.20  434.91</time>
   <energy>
    <i name="e_fr_energy">   -384.93735607 </i>
    <i name="e_wo_entrp">   -384.93735607 </i>
    <i name="e_0_energy">   -384.93735607 </i>
   </energy>
  </scstep>
  <scstep>
   <time name="dav">  296.40  448.28</time>
   <time name="total">  300.87  455.64</time>
   <energy>
    <i name="e_fr_energy">   -384.93721025 </i>
    <i name="e_wo_entrp">   -384.93721025 </i>
    <i name="e_0_energy">   -384.93721025 </i>
   </energy>
  </scstep>
  <scstep>
   <time name="dav">  267.60  406.63</time>
   <time name="total">  273.07  414.20</time>
   <energy>
    <i name="e_fr_energy">   -384.93717766 </i>
    <i name="e_wo_entrp">   -384.93717766 </i>
    <i name="e_0_energy">   -384.93717766 </i>
   </energy>
  </scstep>
  <scstep>
   <time name="dav">  272.17  412.35</time>
   <time name="total">  276.76  419.80</time>
   <energy>
    <i name="e_fr_energy">   -384.93717440 </i>
    <i name="e_wo_entrp">   -384.93717440 </i>
    <i name="e_0_energy">   -384.93717440 </i>
   </energy>
  </scstep>
  <scstep>
   <time name="dav">  203.17  306.91</time>
   <time name="total">  203.95  308.02</time>
   <energy>
    <i name="alphaZ">     71.45224998 </i>
    <i name="ewald">  -1160.14982640 </i>
    <i name="hartreedc">  -1691.03501157 </i>
    <i name="XCdc">    406.56831181 </i>
    <i name="pawpsdc">   1436.49851587 </i>
    <i name="pawaedc">  -1458.98870801 </i>
    <i name="eentropy">      0.00000000 </i>
    <i name="bandstr">  -1142.91856968 </i>
    <i name="atom">   3153.63586372 </i>
    <i name="e_fr_energy">   -384.93717428 </i>
    <i name="e_wo_entrp">   -384.93717428 </i>
    <i name="e_0_energy">   -384.93717428 </i>
   </energy>
  </scstep>
  <structure>
   <crystal>
    <varray name="basis" >
     <v>      12.08583241       0.00000000       0.00000000 </v>
     <v>       0.00000000       8.45365112       0.00000000 </v>
     <v>       0.00000000       0.00000000       8.44838721 </v>
    </varray>
    <i name="volume">    863.16674222 </i>
    <varray name="rec_basis" >
     <v>       0.08274151       0.00000000       0.00000000 </v>
     <v>       0.00000000       0.11829208       0.00000000 </v>
     <v>       0.00000000       0.00000000       0.11836579 </v>
    </varray>
   </crystal>
   <varray name="positions" >
    <v>       0.07406076       0.77809727       0.26098446 </v>
    <v>       0.92593926       0.22190273       0.73901556 </v>
    <v>       0.92593926       0.72190273       0.76098444 </v>
    <v>       0.07406076       0.27809727       0.23901554 </v>
    <v>       0.92593926       0.27809727       0.23901554 </v>
    <v>       0.07406076       0.72190273       0.76098444 </v>
    <v>       0.07406076       0.22190273       0.73901556 </v>
    <v>       0.92593926       0.77809727       0.26098446 </v>
    <v>       0.57406074       0.27809727       0.26098446 </v>
    <v>       0.42593923       0.72190273       0.73901556 </v>
    <v>       0.42593923       0.22190273       0.76098444 </v>
    <v>       0.57406074       0.77809727       0.23901554 </v>
    <v>       0.42593923       0.77809727       0.23901554 </v>
    <v>       0.57406074       0.22190273       0.76098444 </v>
    <v>       0.57406074       0.72190273       0.73901556 </v>
    <v>       0.42593923       0.27809727       0.26098446 </v>
    <v>       0.80213958       0.58126140       0.93239887 </v>
    <v>       0.19786042       0.41873860       0.06760113 </v>
    <v>       0.19786042       0.91873860       0.43239887 </v>
    <v>       0.80213958       0.08126140       0.56760113 </v>
    <v>       0.19786042       0.08126140       0.56760113 </v>
    <v>       0.80213958       0.91873860       0.43239887 </v>
    <v>       0.80213958       0.41873860       0.06760113 </v>
    <v>       0.19786042       0.58126140       0.93239887 </v>
    <v>       0.30213958       0.08126140       0.93239887 </v>
    <v>       0.69786042       0.91873860       0.06760113 </v>
    <v>       0.69786042       0.41873860       0.43239887 </v>
    <v>       0.30213958       0.58126140       0.56760113 </v>
    <v>       0.69786042       0.58126140       0.56760113 </v>
    <v>       0.30213958       0.41873860       0.43239887 </v>
    <v>       0.30213958       0.91873860       0.06760113 </v>
    <v>       0.69786042       0.08126140       0.93239887 </v>
    <v>       0.69738852       0.56769036       0.08145496 </v>
    <v>       0.30261148       0.43230964       0.91854504 </v>
    <v>       0.30261148       0.93230964       0.58145496 </v>
    <v>       0.69738852       0.06769036       0.41854504 </v>
    <v>       0.30261148       0.06769036       0.41854504 </v>
    <v>       0.69738852       0.93230964       0.58145496 </v>
    <v>       0.69738852       0.43230964       0.91854504 </v>
    <v>       0.30261148       0.56769036       0.08145496 </v>
    <v>       0.19738852       0.06769036       0.08145496 </v>
    <v>       0.80261148       0.93230964       0.91854504 </v>
    <v>       0.80261148       0.43230964       0.58145496 </v>
    <v>       0.19738852       0.56769036       0.41854504 </v>
    <v>       0.80261148       0.56769036       0.41854504 </v>
    <v>       0.19738852       0.43230964       0.58145496 </v>
    <v>       0.19738852       0.93230964       0.91854504 </v>
    <v>       0.80261148       0.06769036       0.08145496 </v>
    <v>       0.00000000       0.60301146       0.20653533 </v>
    <v>       0.00000000       0.39698854       0.79346464 </v>
    <v>       0.00000000       0.89698854       0.70653536 </v>
    <v>       0.00000000       0.10301146       0.29346467 </v>
    <v>       0.50000000       0.10301146       0.20653533 </v>
    <v>       0.50000000       0.89698854       0.79346464 </v>
    <v>       0.50000000       0.39698854       0.70653536 </v>
    <v>       0.50000000       0.60301146       0.29346467 </v>
    <v>       0.00000000       0.22854436       0.92210504 </v>
    <v>       0.00000000       0.77145564       0.07789496 </v>
    <v>       0.00000000       0.27145564       0.42210504 </v>
    <v>       0.00000000       0.72854436       0.57789496 </v>
    <v>       0.50000000       0.72854436       0.92210504 </v>
    <v>       0.50000000       0.27145564       0.07789496 </v>
    <v>       0.50000000       0.77145564       0.42210504 </v>
    <v>       0.50000000       0.22854436       0.57789496 </v>
    <v>       0.00000000       0.23254205       0.29845871 </v>
    <v>       0.00000000       0.76745795       0.70154127 </v>
    <v>       0.00000000       0.26745795       0.79845873 </v>
    <v>       0.00000000       0.73254205       0.20154127 </v>
    <v>       0.50000000       0.73254205       0.29845871 </v>
    <v>       0.50000000       0.26745795       0.70154127 </v>
    <v>       0.50000000       0.76745795       0.79845873 </v>
    <v>       0.50000000       0.23254205       0.20154127 </v>
    <v>       0.74967223       0.50000000       0.00000000 </v>
    <v>       0.25032777       0.50000000      -0.00000000 </v>
    <v>       0.25032777       0.00000000       0.50000000 </v>
    <v>       0.74967223       0.00000000       0.50000000 </v>
    <v>       0.24967223       0.00000000       0.00000000 </v>
    <v>       0.75032777       0.00000000      -0.00000000 </v>
    <v>       0.75032777       0.50000000       0.50000000 </v>
    <v>       0.24967223       0.50000000       0.50000000 </v>
   </varray>
  </structure>
  <varray name="forces" >
[...]
       <r>   -15.9934     0.0000     0.0000 </r>
       <r>   -15.9097     0.0000     0.0000 </r>
       <r>   -15.8260     0.0000     0.0000 </r>
       <r>   -15.7422     0.0000     0.0000 </r>
       <r>   -15.6585     0.0000     0.0000 </r>
       <r>   -15.5748     0.0000     0.0000 </r>
       <r>   -15.4910     0.0000     0.0000 </r>
       <r>   -15.4073     0.0000     0.0000 </r>
       <r>   -15.3236     0.0000     0.0000 </r>
       <r>   -15.2399     0.0000     0.0000 </r>
       <r>   -15.1561     0.0000     0.0000 </r>
       <r>   -15.0724     0.0000     0.0000 </r>
       <r>   -14.9887     0.0000     0.0000 </r>
       <r>   -14.9050     1.2173     0.0038 </r>
       <r>   -14.8212    25.2792     1.1814 </r>
       <r>   -14.7375    30.2811     4.2542 </r>
       <r>   -14.6538   142.3983    10.2249 </r>
       <r>   -14.5700   131.0901    20.7894 </r>
       <r>   -14.4863     0.0000    32.0000 </r>
       <r>   -14.4026     0.0000    32.0000 </r>
       <r>   -14.3189     0.0000    32.0000 </r>
       <r>   -14.2351     0.0000    32.0000 </r>
       <r>   -14.1514     0.0000    32.0000 </r>
       <r>   -14.0677     0.0000    32.0000 </r>
       <r>   -13.9840     0.0000    32.0000 </r>
       <r>   -13.9002     0.0000    32.0000 </r>
       <r>   -13.8165     0.0000    32.0000 </r>
       <r>   -13.7328     0.0000    32.0000 </r>
       <r>   -13.6490     0.0000    32.0000 </r>
       <r>   -13.5653     0.0000    32.0000 </r>
       <r>   -13.4816     0.0000    32.0000 </r>
       <r>   -13.3979     0.0000    32.0000 </r>
       <r>   -13.3141     0.0000    32.0000 </r>
       <r>   -13.2304     0.0000    32.0000 </r>
       <r>   -13.1467     0.0000    32.0000 </r>
       <r>   -13.0630     0.0000    32.0000 </r>
       <r>   -12.9792     0.0000    32.0000 </r>
       <r>   -12.8955     0.0000    32.0000 </r>
       <r>   -12.8118     0.0000    32.0000 </r>
       <r>   -12.7280     0.0000    32.0000 </r>
       <r>   -12.6443     0.0000    32.0000 </r>
       <r>   -12.5606     0.0000    32.0000 </r>
       <r>   -12.4769     0.0000    32.0000 </r>
       <r>   -12.3931     0.0000    32.0000 </r>
       <r>   -12.3094     0.0000    32.0000 </r>
       <r>   -12.2257     0.0000    32.0000 </r>
       <r>   -12.1420     0.0000    32.0000 </r>
       <r>   -12.0582     0.0000    32.0000 </r>
       <r>   -11.9745     0.0000    32.0000 </r>
       <r>   -11.8908     0.0000    32.0000 </r>
       <r>   -11.8070     0.0000    32.0000 </r>
       <r>   -11.7233     0.0000    32.0000 </r>
       <r>   -11.6396     0.0000    32.0000 </r>
       <r>   -11.5559     0.0000    32.0000 </r>
       <r>   -11.4721     0.0000    32.0000 </r>
       <r>   -11.3884     0.0000    32.0000 </r>
       <r>   -11.3047     0.0000    32.0000 </r>
       <r>   -11.2210     0.0000    32.0000 </r>
       <r>   -11.1372     0.0000    32.0000 </r>
       <r>   -11.0535     0.0000    32.0000 </r>
       <r>   -10.9698     0.0000    32.0000 </r>
       <r>   -10.8860     0.0000    32.0000 </r>
       <r>   -10.8023     0.0000    32.0000 </r>
       <r>   -10.7186     0.0000    32.0000 </r>
       <r>   -10.6349     0.0000    32.0000 </r>
       <r>   -10.5511     0.0000    32.0000 </r>
       <r>   -10.4674     0.0000    32.0000 </r>
       <r>   -10.3837     0.0000    32.0000 </r>
       <r>   -10.3000     0.0000    32.0000 </r>
       <r>   -10.2162     0.0000    32.0000 </r>
       <r>   -10.1325     0.0000    32.0000 </r>
       <r>   -10.0488     0.0000    32.0000 </r>
       <r>    -9.9650     0.0000    32.0000 </r>
       <r>    -9.8813     0.0000    32.0000 </r>
       <r>    -9.7976     0.0000    32.0000 </r>
       <r>    -9.7139     0.0000    32.0000 </r>
       <r>    -9.6301     0.0000    32.0000 </r>
       <r>    -9.5464     0.0000    32.0000 </r>
       <r>    -9.4627     0.0000    32.0000 </r>
       <r>    -9.3790     0.0000    32.0000 </r>
       <r>    -9.2952     0.0000    32.0000 </r>
       <r>    -9.2115     0.0000    32.0000 </r>
       <r>    -9.1278     0.0000    32.0000 </r>
       <r>    -9.0440     0.0000    32.0000 </r>
       <r>    -8.9603     0.0000    32.0000 </r>
       <r>    -8.8766     0.0000    32.0000 </r>
       <r>    -8.7929     0.0000    32.0000 </r>
       <r>    -8.7091     0.0000    32.0000 </r>
       <r>    -8.6254     0.0000    32.0000 </r>
       <r>    -8.5417     0.0000    32.0000 </r>
       <r>    -8.4580     0.0000    32.0000 </r>
       <r>    -8.3742     0.0000    32.0000 </r>
       <r>    -8.2905     0.0000    32.0000 </r>
       <r>    -8.2068     0.0000    32.0000 </r>
       <r>    -8.1230     0.0000    32.0000 </r>
       <r>    -8.0393     0.0000    32.0000 </r>
       <r>    -7.9556     0.0000    32.0000 </r>
       <r>    -7.8719     0.0000    32.0000 </r>
       <r>    -7.7881     0.0000    32.0000 </r>
       <r>    -7.7044     0.0000    32.0000 </r>
       <r>    -7.6207    24.6215    32.4275 </r>
       <r>    -7.5370    65.4431    36.5765 </r>
       <r>    -7.4532   107.1476    43.9549 </r>
       <r>    -7.3695    70.1584    51.3775 </r>
       <r>    -7.2858    51.8523    57.0873 </r>
       <r>    -7.2020    38.9965    61.6539 </r>
       <r>    -7.1183    59.0290    65.5101 </r>
       <r>    -7.0346    70.2485    71.2504 </r>
       <r>    -6.9509    97.8970    77.2107 </r>
       <r>    -6.8671   148.5869    89.5704 </r>
       <r>    -6.7834   213.8721   104.4974 </r>
       <r>    -6.6997   180.3016   120.0939 </r>
       <r>    -6.6160     3.0028   127.9862 </r>
       <r>    -6.5322     0.0000   128.0000 </r>
       <r>    -6.4485     0.0000   128.0000 </r>
       <r>    -6.3648     0.0000   128.0000 </r>
       <r>    -6.2810     0.0000   128.0000 </r>
       <r>    -6.1973     0.0000   128.0000 </r>
       <r>    -6.1136     0.0000   128.0000 </r>
       <r>    -6.0299     0.0000   128.0000 </r>
       <r>    -5.9461     0.0000   128.0000 </r>
       <r>    -5.8624     0.0000   128.0000 </r>
       <r>    -5.7787     0.0000   128.0000 </r>
       <r>    -5.6950     0.0000   128.0000 </r>
       <r>    -5.6112     0.0000   128.0000 </r>
       <r>    -5.5275     0.0000   128.0000 </r>
       <r>    -5.4438     0.0000   128.0000 </r>
       <r>    -5.3600     0.0000   128.0000 </r>
       <r>    -5.2763     0.0000   128.0000 </r>
       <r>    -5.1926     0.0000   128.0000 </r>
       <r>    -5.1089     0.0000   128.0000 </r>
       <r>    -5.0251     0.0000   128.0000 </r>
       <r>    -4.9414     0.0000   128.0000 </r>
       <r>    -4.8577     0.0000   128.0000 </r>
       <r>    -4.7740     0.0000   128.0000 </r>
       <r>    -4.6902     0.0000   128.0000 </r>
       <r>    -4.6065     0.0000   128.0000 </r>
       <r>    -4.5228     0.0000   128.0000 </r>
       <r>    -4.4390     0.0000   128.0000 </r>
       <r>    -4.3553     0.0000   128.0000 </r>
       <r>    -4.2716     0.0000   128.0000 </r>
       <r>    -4.1879     0.0000   128.0000 </r>
       <r>    -4.1041     0.0000   128.0000 </r>
       <r>    -4.0204     0.0000   128.0000 </r>
       <r>    -3.9367     0.0000   128.0000 </r>
       <r>    -3.8530     0.0000   128.0000 </r>
       <r>    -3.7692     0.0000   128.0000 </r>
       <r>    -3.6855     0.0000   128.0000 </r>
       <r>    -3.6018     0.0000   128.0000 </r>
       <r>    -3.5180     0.0000   128.0000 </r>
       <r>    -3.4343     0.0000   128.0000 </r>
       <r>    -3.3506     0.0000   128.0000 </r>
       <r>    -3.2669     0.0000   128.0000 </r>
       <r>    -3.1831     0.0000   128.0000 </r>
       <r>    -3.0994     0.0000   128.0000 </r>
       <r>    -3.0157     0.0000   128.0000 </r>
       <r>    -2.9320     0.0000   128.0000 </r>
       <r>    -2.8482     0.0000   128.0000 </r>
       <r>    -2.7645     0.0000   128.0000 </r>
       <r>    -2.6808     0.0000   128.0000 </r>
       <r>    -2.5970     0.0000   128.0000 </r>
       <r>    -2.5133     0.0000   128.0000 </r>
       <r>    -2.4296     0.0000   128.0000 </r>
       <r>    -2.3459     0.0000   128.0000 </r>
       <r>    -2.2621     0.0000   128.0000 </r>
       <r>    -2.1784     0.0000   128.0000 </r>
       <r>    -2.0947     0.0000   128.0000 </r>
       <r>    -2.0110     0.0000   128.0000 </r>
       <r>    -1.9272     0.0000   128.0000 </r>
       <r>    -1.8435     0.0000   128.0000 </r>
       <r>    -1.7598     0.0000   128.0000 </r>
       <r>    -1.6760     0.0000   128.0000 </r>
       <r>    -1.5923     0.0000   128.0000 </r>
       <r>    -1.5086     0.0000   128.0000 </r>
       <r>    -1.4249     0.0000   128.0000 </r>
       <r>    -1.3411     0.0000   128.0000 </r>
       <r>    -1.2574     0.0000   128.0000 </r>
       <r>    -1.1737     0.0000   128.0000 </r>
       <r>    -1.0900     0.0000   128.0000 </r>
       <r>    -1.0062     0.0000   128.0000 </r>
       <r>    -0.9225     0.0000   128.0000 </r>
       <r>    -0.8388     0.0000   128.0000 </r>
       <r>    -0.7550     0.0000   128.0000 </r>
       <r>    -0.6713     0.0000   128.0000 </r>
       <r>    -0.5876     0.0000   128.0000 </r>
       <r>    -0.5039     0.0000   128.0000 </r>
       <r>    -0.4201     0.0000   128.0000 </r>
       <r>    -0.3364     0.0000   128.0000 </r>
       <r>    -0.2527     0.0000   128.0000 </r>
       <r>    -0.1690     0.0000   128.0000 </r>
       <r>    -0.0852     0.0000   128.0000 </r>
       <r>    -0.0015     0.0000   128.0000 </r>
       <r>     0.0822     0.0000   128.0000 </r>
       <r>     0.1660     0.0000   128.0000 </r>
       <r>     0.2497     0.0000   128.0000 </r>
       <r>     0.3334     0.0000   128.0000 </r>
       <r>     0.4171     0.0000   128.0000 </r>
       <r>     0.5009     0.0000   128.0000 </r>
       <r>     0.5846     0.0000   128.0000 </r>
       <r>     0.6683     0.0000   128.0000 </r>
       <r>     0.7520     0.0000   128.0000 </r>
       <r>     0.8358     0.0000   128.0000 </r>
       <r>     0.9195     0.0000   128.0000 </r>
       <r>     1.0032     0.0068   128.0000 </r>
       <r>     1.0870     0.3296   128.0107 </r>
       <r>     1.1707     0.9960   128.0649 </r>
       <r>     1.2544     1.6415   128.1783 </r>
       <r>     1.3381     1.9149   128.3280 </r>
       <r>     1.4219     2.1730   128.4986 </r>
       <r>     1.5056     2.5173   128.6949 </r>
       <r>     1.5893     2.8659   128.9194 </r>
       <r>     1.6730     3.4219   129.1810 </r>
       <r>     1.7568     4.2428   129.4994 </r>
       <r>     1.8405     5.2669   129.8997 </r>
       <r>     1.9242     6.2815   130.3807 </r>
       <r>     2.0080     5.5995   130.8958 </r>
       <r>     2.0917     4.1832   131.3051 </r>
       <r>     2.1754     3.9140   131.6314 </r>
       <r>     2.2591     4.2728   131.9733 </r>
       <r>     2.3429     5.5311   132.3683 </r>
       <r>     2.4266     8.8799   132.9588 </r>
       <r>     2.5103    13.4422   133.9222 </r>
       <r>     2.5940    11.2645   134.9881 </r>
       <r>     2.6778     6.9335   135.7625 </r>
       <r>     2.7615     6.8629   136.2601 </r>
       <r>     2.8452    24.2084   137.5785 </r>
       <r>     2.9290    15.3165   139.1828 </r>
       <r>     3.0127    22.3439   140.6033 </r>
       <r>     3.0964    22.7975   142.5247 </r>
       <r>     3.1801    11.5395   144.0790 </r>
       <r>     3.2639    12.4131   144.8643 </r>
       <r>     3.3476    21.2472   146.5724 </r>
       <r>     3.4313    14.8630   147.9246 </r>
       <r>     3.5150    18.5203   149.2445 </r>
       <r>     3.5988    23.7293   151.0941 </r>
       <r>     3.6825    22.2089   152.9764 </r>
       <r>     3.7662    18.0947   154.6997 </r>
       <r>     3.8500    36.4362   156.7276 </r>
       <r>     3.9337    16.8937   159.9639 </r>
       <r>     4.0174    19.8110   161.1705 </r>
       <r>     4.1011    28.3196   163.1804 </r>
       <r>     4.1849    27.9727   166.0168 </r>
       <r>     4.2686    16.4510   167.6213 </r>
       <r>     4.3523    19.4885   169.0713 </r>
       <r>     4.4360    27.6272   171.1025 </r>
       <r>     4.5198    36.4119   173.9710 </r>
       <r>     4.6035    12.5997   176.0729 </r>
       <r>     4.6872    85.3757   180.5554 </r>
       <r>     4.7710     7.7548   184.0005 </r>
       <r>     4.8547    20.7121   185.3803 </r>
       <r>     4.9384    19.9464   187.0575 </r>
       <r>     5.0221    26.4870   189.1747 </r>
       <r>     5.1059    17.4634   191.0410 </r>
       <r>     5.1896    45.5253   193.0956 </r>
       <r>     5.2733    33.0811   196.2099 </r>
       <r>     5.3570    20.2918   198.7071 </r>
       <r>     5.4408    28.2308   200.2167 </r>
       <r>     5.5245    31.5693   203.1720 </r>
       <r>     5.6082    25.0333   205.6170 </r>
       <r>     5.6920    15.3195   207.1759 </r>
       <r>     5.7757    21.2203   208.7628 </r>
       <r>     5.8594    14.0890   210.2455 </r>
       <r>     5.9431     7.6607   211.1976 </r>
       <r>     6.0269     4.6618   211.7343 </r>
       <r>     6.1106     1.2998   211.9592 </r>
       <r>     6.1943     0.0136   212.0000 </r>
       <r>     6.2780     0.0000   212.0000 </r>
       <r>     6.3618     0.0000   212.0000 </r>
       <r>     6.4455     0.0000   212.0000 </r>
       <r>     6.5292     0.0000   212.0000 </r>
       <r>     6.6130     0.0000   212.0000 </r>
       <r>     6.6967     0.0000   212.0000 </r>
       <r>     6.7804     0.0000   212.0000 </r>
       <r>     6.8641     0.0000   212.0000 </r>
       <r>     6.9479     0.0000   212.0000 </r>
       <r>     7.0316     0.0000   212.0000 </r>
       <r>     7.1153     0.0000   212.0000 </r>
       <r>     7.1990     0.0000   212.0000 </r>
       <r>     7.2828     0.0000   212.0000 </r>
       <r>     7.3665     0.0000   212.0000 </r>
       <r>     7.4502     0.0000   212.0000 </r>
       <r>     7.5340     0.0000   212.0000 </r>
       <r>     7.6177     0.0000   212.0000 </r>
       <r>     7.7014     0.0000   212.0000 </r>
       <r>     7.7851     0.0000   212.0000 </r>
       <r>     7.8689     0.0000   212.0000 </r>
       <r>     7.9526     0.0000   212.0000 </r>
       <r>     8.0363     0.0000   212.0000 </r>
       <r>     8.1200     0.0000   212.0000 </r>
       <r>     8.2038     0.0000   212.0000 </r>
      </set>
     </set>
    </array>
   </total>
  </dos>
 </calculation>
 <structure name="finalpos" >
  <crystal>
   <varray name="basis" >
    <v>      12.08583241       0.00000000       0.00000000 </v>
    <v>       0.00000000       8.45365112       0.00000000 </v>
    <v>       0.00000000       0.00000000       8.44838721 </v>
   </varray>
   <i name="volume">    863.16674222 </i>
   <varray name="rec_basis" >
    <v>       0.08274151       0.00000000       0.00000000 </v>
    <v>       0.00000000       0.11829208       0.00000000 </v>
    <v>       0.00000000       0.00000000       0.11836579 </v>
   </varray>
  </crystal>
  <varray name="positions" >
   <v>       0.07405716       0.77810051       0.26095706 </v>
   <v>       0.92594287       0.22189949       0.73904297 </v>
   <v>       0.92594287       0.72189949       0.76095703 </v>
   <v>       0.07405716       0.27810051       0.23904294 </v>
   <v>       0.92594287       0.27810051       0.23904294 </v>
   <v>       0.07405716       0.72189949       0.76095703 </v>
   <v>       0.07405716       0.22189949       0.73904297 </v>
   <v>       0.92594287       0.77810051       0.26095706 </v>
   <v>       0.57405713       0.27810051       0.26095706 </v>
   <v>       0.42594284       0.72189949       0.73904297 </v>
   <v>       0.42594284       0.22189949       0.76095703 </v>
   <v>       0.57405713       0.77810051       0.23904294 </v>
   <v>       0.42594284       0.77810051       0.23904294 </v>
   <v>       0.57405713       0.22189949       0.76095703 </v>
   <v>       0.57405713       0.72189949       0.73904297 </v>
   <v>       0.42594284       0.27810051       0.26095706 </v>
   <v>       0.80213193       0.58127364       0.93240221 </v>
   <v>       0.19786807       0.41872636       0.06759779 </v>
   <v>       0.19786807       0.91872636       0.43240221 </v>
   <v>       0.80213193       0.08127364       0.56759779 </v>
   <v>       0.19786807       0.08127364       0.56759779 </v>
   <v>       0.80213193       0.91872636       0.43240221 </v>
   <v>       0.80213193       0.41872636       0.06759779 </v>
   <v>       0.19786807       0.58127364       0.93240221 </v>
   <v>       0.30213193       0.08127364       0.93240221 </v>
   <v>       0.69786807       0.91872636       0.06759779 </v>
   <v>       0.69786807       0.41872636       0.43240221 </v>
   <v>       0.30213193       0.58127364       0.56759779 </v>
   <v>       0.69786807       0.58127364       0.56759779 </v>
   <v>       0.30213193       0.41872636       0.43240221 </v>
   <v>       0.30213193       0.91872636       0.06759779 </v>
   <v>       0.69786807       0.08127364       0.93240221 </v>
   <v>       0.69738479       0.56768405       0.08146119 </v>
   <v>       0.30261521       0.43231595       0.91853881 </v>
   <v>       0.30261521       0.93231595       0.58146119 </v>
   <v>       0.69738479       0.06768405       0.41853881 </v>
   <v>       0.30261521       0.06768405       0.41853881 </v>
   <v>       0.69738479       0.93231595       0.58146119 </v>
   <v>       0.69738479       0.43231595       0.91853881 </v>
   <v>       0.30261521       0.56768405       0.08146119 </v>
   <v>       0.19738479       0.06768405       0.08146119 </v>
   <v>       0.80261521       0.93231595       0.91853881 </v>
   <v>       0.80261521       0.43231595       0.58146119 </v>
   <v>       0.19738479       0.56768405       0.41853881 </v>
   <v>       0.80261521       0.56768405       0.41853881 </v>
   <v>       0.19738479       0.43231595       0.58146119 </v>
   <v>       0.19738479       0.93231595       0.91853881 </v>
   <v>       0.80261521       0.06768405       0.08146119 </v>
   <v>       0.00000000       0.60301464       0.20651132 </v>
   <v>       0.00000000       0.39698536       0.79348865 </v>
   <v>       0.00000000       0.89698536       0.70651135 </v>
   <v>       0.00000000       0.10301464       0.29348868 </v>
   <v>       0.50000000       0.10301464       0.20651132 </v>
   <v>       0.50000000       0.89698536       0.79348865 </v>
   <v>       0.50000000       0.39698536       0.70651135 </v>
   <v>       0.50000000       0.60301464       0.29348868 </v>
   <v>       0.00000000       0.22855154       0.92213169 </v>
   <v>       0.00000000       0.77144846       0.07786831 </v>
   <v>       0.00000000       0.27144846       0.42213169 </v>
   <v>       0.00000000       0.72855154       0.57786831 </v>
   <v>       0.50000000       0.72855154       0.92213169 </v>
   <v>       0.50000000       0.27144846       0.07786831 </v>
   <v>       0.50000000       0.77144846       0.42213169 </v>
   <v>       0.50000000       0.22855154       0.57786831 </v>
   <v>       0.00000000       0.23253576       0.29840772 </v>
   <v>       0.00000000       0.76746424       0.70159226 </v>
   <v>       0.00000000       0.26746424       0.79840774 </v>
   <v>       0.00000000       0.73253576       0.20159226 </v>
   <v>       0.50000000       0.73253576       0.29840772 </v>
   <v>       0.50000000       0.26746424       0.70159226 </v>
   <v>       0.50000000       0.76746424       0.79840774 </v>
   <v>       0.50000000       0.23253576       0.20159226 </v>
   <v>       0.74966760       0.50000000      -0.00000000 </v>
   <v>       0.25033240       0.50000000      -0.00000000 </v>
   <v>       0.25033240       0.00000000       0.50000000 </v>
   <v>       0.74966760       0.00000000       0.50000000 </v>
   <v>       0.24966760      -0.00000000      -0.00000000 </v>
   <v>       0.75033240       0.00000000      -0.00000000 </v>
   <v>       0.75033240       0.50000000       0.50000000 </v>
   <v>       0.24966760       0.50000000       0.50000000 </v>
  </varray>
 </structure>
</modeling>
