<?xml version="1.0" encoding="ISO-8859-1"?>
<modeling>
 <generator>
  <i name="program" type="string">vasp </i>
  <i name="version" type="string">5.3.5  </i>
  <i name="subversion" type="string">31Mar14 (build Nov 02 2014 15:17:37) complex                          parallel </i>
  <i name="platform" type="string">ion-Intel-MKL </i>
  <i name="date" type="string">2017 06 25 </i>
  <i name="time" type="string">00:50:49 </i>
 </generator>
 <incar>
  <i type="string" name="SYSTEM">diamond</i>
  <i type="string" name="PREC">normal</i>
  <i type="int" name="NELM">   200</i>
  <i type="int" name="IBRION">     2</i>
  <i name="EDIFF">      0.00000100</i>
  <i name="EDIFFG">      0.00010000</i>
  <i type="int" name="NSW">   200</i>
  <i type="int" name="ISIF">     2</i>
  <i name="ENCUT">    600.00000000</i>
  <i type="int" name="ISMEAR">    -5</i>
  <i type="logical" name="LWAVE"> F  </i>
  <i type="logical" name="LCHARG"> F  </i>
  <i type="int" name="NELM">   200</i>
 </incar>
 <kpoints>
  <generation param="Gamma">
   <v type="int" name="divisions">       4        4        4 </v>
   <v name="usershift">      0.00000000       0.00000000       0.00000000 </v>
   <v name="genvec1">      0.25000000       0.00000000       0.00000000 </v>
   <v name="genvec2">      0.00000000       0.25000000       0.00000000 </v>
   <v name="genvec3">      0.00000000       0.00000000       0.25000000 </v>
   <v name="shift">      0.00000000       0.00000000       0.00000000 </v>
  </generation>
  <varray name="kpointlist" >
   <v>       0.00000000       0.00000000       0.00000000 </v>
   <v>       0.25000000       0.00000000       0.00000000 </v>
   <v>       0.50000000       0.00000000       0.00000000 </v>
   <v>       0.00000000       0.25000000       0.00000000 </v>
   <v>       0.25000000       0.25000000       0.00000000 </v>
   <v>       0.50000000       0.25000000       0.00000000 </v>
   <v>       0.00000000       0.50000000       0.00000000 </v>
   <v>       0.25000000       0.50000000       0.00000000 </v>
   <v>       0.50000000       0.50000000       0.00000000 </v>
   <v>       0.00000000       0.00000000       0.25000000 </v>
   <v>       0.25000000       0.00000000       0.25000000 </v>
   <v>       0.50000000       0.00000000       0.25000000 </v>
   <v>       0.00000000       0.25000000       0.25000000 </v>
   <v>       0.25000000       0.25000000       0.25000000 </v>
   <v>       0.50000000       0.25000000       0.25000000 </v>
   <v>       0.00000000       0.50000000       0.25000000 </v>
   <v>       0.25000000       0.50000000       0.25000000 </v>
   <v>       0.50000000       0.50000000       0.25000000 </v>
   <v>       0.00000000       0.00000000       0.50000000 </v>
   <v>       0.25000000       0.00000000       0.50000000 </v>
   <v>       0.50000000       0.00000000       0.50000000 </v>
   <v>       0.00000000       0.25000000       0.50000000 </v>
   <v>       0.25000000       0.25000000       0.50000000 </v>
   <v>       0.50000000       0.25000000       0.50000000 </v>
   <v>       0.00000000       0.50000000       0.50000000 </v>
   <v>       0.25000000       0.50000000       0.50000000 </v>
   <v>       0.50000000       0.50000000       0.50000000 </v>
  </varray>
  <varray name="weights" >
   <v>       0.01562500 </v>
   <v>       0.03125000 </v>
   <v>       0.01562500 </v>
   <v>       0.03125000 </v>
   <v>       0.06250000 </v>
   <v>       0.03125000 </v>
   <v>       0.01562500 </v>
   <v>       0.03125000 </v>
   <v>       0.01562500 </v>
   <v>       0.03125000 </v>
   <v>       0.06250000 </v>
   <v>       0.03125000 </v>
   <v>       0.06250000 </v>
   <v>       0.12500000 </v>
   <v>       0.06250000 </v>
   <v>       0.03125000 </v>
   <v>       0.06250000 </v>
   <v>       0.03125000 </v>
   <v>       0.01562500 </v>
   <v>       0.03125000 </v>
   <v>       0.01562500 </v>
   <v>       0.03125000 </v>
   <v>       0.06250000 </v>
   <v>       0.03125000 </v>
   <v>       0.01562500 </v>
   <v>       0.03125000 </v>
   <v>       0.01562500 </v>
  </varray>
  <varray name="tetrahedronlist"  type="int" >
   <v type="int" >        2        1        2        5       10 </v>
   <v type="int" >        2        1        4        5       10 </v>
   <v type="int" >        2        4        5       10       13 </v>
   <v type="int" >        2        2        5       10       11 </v>
   <v type="int" >        2        5       10       11       14 </v>
   <v type="int" >        2        5       10       13       14 </v>
   <v type="int" >        2        2        3        6       11 </v>
   <v type="int" >        2        2        5        6       11 </v>
   <v type="int" >        2        5        6       11       14 </v>
   <v type="int" >        2        3        6       11       12 </v>
   <v type="int" >        2        6       11       12       15 </v>
   <v type="int" >        2        6       11       14       15 </v>
   <v type="int" >        2        2        3        5       12 </v>
   <v type="int" >        2        3        5        6       12 </v>
   <v type="int" >        2        5        6       12       15 </v>
   <v type="int" >        2        2        5       11       12 </v>
   <v type="int" >        2        5       11       12       14 </v>
   <v type="int" >        2        5       12       14       15 </v>
   <v type="int" >        2        1        2        4       11 </v>
   <v type="int" >        2        2        4        5       11 </v>
   <v type="int" >        2        4        5       11       14 </v>
   <v type="int" >        2        1        4       10       11 </v>
   <v type="int" >        2        4       10       11       13 </v>
   <v type="int" >        2        4       11       13       14 </v>
   <v type="int" >        2        4        5        8       13 </v>
   <v type="int" >        2        4        7        8       13 </v>
   <v type="int" >        2        7        8       13       16 </v>
   <v type="int" >        2        5        8       13       14 </v>
   <v type="int" >        2        8       13       14       17 </v>
   <v type="int" >        2        8       13       16       17 </v>
   <v type="int" >        2        5        6        9       14 </v>
   <v type="int" >        2        5        8        9       14 </v>
   <v type="int" >        2        8        9       14       17 </v>
   <v type="int" >        2        6        9       14       15 </v>
   <v type="int" >        2        9       14       15       18 </v>
   <v type="int" >        2        9       14       17       18 </v>
   <v type="int" >        2        5        6        8       15 </v>
   <v type="int" >        2        6        8        9       15 </v>
   <v type="int" >        2        8        9       15       18 </v>
   <v type="int" >        2        5        8       14       15 </v>
   <v type="int" >        2        8       14       15       17 </v>
   <v type="int" >        2        8       15       17       18 </v>
   <v type="int" >        2        4        5        7       14 </v>
   <v type="int" >        2        5        7        8       14 </v>
   <v type="int" >        2        7        8       14       17 </v>
   <v type="int" >        2        4        7       13       14 </v>
   <v type="int" >        2        7       13       14       16 </v>
   <v type="int" >        2        7       14       16       17 </v>
   <v type="int" >        2        5        7        8       16 </v>
   <v type="int" >        2        4        5        7       16 </v>
   <v type="int" >        2        4        5       13       16 </v>
   <v type="int" >        2        5        8       16       17 </v>
   <v type="int" >        2        5       14       16       17 </v>
   <v type="int" >        2        5       13       14       16 </v>
   <v type="int" >        2        6        8        9       17 </v>
   <v type="int" >        2        5        6        8       17 </v>
   <v type="int" >        2        5        6       14       17 </v>
   <v type="int" >        2        6        9       17       18 </v>
   <v type="int" >        2        6       15       17       18 </v>
   <v type="int" >        2        6       14       15       17 </v>
   <v type="int" >        2        5        8        9       18 </v>
   <v type="int" >        2        5        6        9       18 </v>
   <v type="int" >        2        5        6       15       18 </v>
   <v type="int" >        2        5        8       17       18 </v>
   <v type="int" >        2        5       14       17       18 </v>
   <v type="int" >        2        5       14       15       18 </v>
   <v type="int" >        2        4        7        8       17 </v>
   <v type="int" >        2        4        5        8       17 </v>
   <v type="int" >        2        4        5       14       17 </v>
   <v type="int" >        2        4        7       16       17 </v>
   <v type="int" >        2        4       13       16       17 </v>
   <v type="int" >        2        4       13       14       17 </v>
   <v type="int" >        2        2        4        5       13 </v>
   <v type="int" >        2        1        2        4       13 </v>
   <v type="int" >        2        1        2       10       13 </v>
   <v type="int" >        2        2        5       13       14 </v>
   <v type="int" >        2        2       11       13       14 </v>
   <v type="int" >        2        2       10       11       13 </v>
   <v type="int" >        2        3        5        6       14 </v>
   <v type="int" >        2        2        3        5       14 </v>
   <v type="int" >        2        2        3       11       14 </v>
   <v type="int" >        2        3        6       14       15 </v>
   <v type="int" >        2        3       12       14       15 </v>
   <v type="int" >        2        3       11       12       14 </v>
   <v type="int" >        2        2        5        6       15 </v>
   <v type="int" >        2        2        3        6       15 </v>
   <v type="int" >        2        2        3       12       15 </v>
   <v type="int" >        2        2        5       14       15 </v>
   <v type="int" >        2        2       11       14       15 </v>
   <v type="int" >        2        2       11       12       15 </v>
   <v type="int" >        2        1        4        5       14 </v>
   <v type="int" >        2        1        2        5       14 </v>
   <v type="int" >        2        1        2       11       14 </v>
   <v type="int" >        2        1        4       13       14 </v>
   <v type="int" >        2        1       10       13       14 </v>
   <v type="int" >        2        1       10       11       14 </v>
   <v type="int" >        2       10       11       14       19 </v>
   <v type="int" >        2       10       13       14       19 </v>
   <v type="int" >        2       13       14       19       22 </v>
   <v type="int" >        2       11       14       19       20 </v>
   <v type="int" >        2       14       19       20       23 </v>
   <v type="int" >        2       14       19       22       23 </v>
   <v type="int" >        2       11       12       15       20 </v>
   <v type="int" >        2       11       14       15       20 </v>
   <v type="int" >        2       14       15       20       23 </v>
   <v type="int" >        2       12       15       20       21 </v>
   <v type="int" >        2       15       20       21       24 </v>
   <v type="int" >        2       15       20       23       24 </v>
   <v type="int" >        2       11       12       14       21 </v>
   <v type="int" >        2       12       14       15       21 </v>
   <v type="int" >        2       14       15       21       24 </v>
   <v type="int" >        2       11       14       20       21 </v>
   <v type="int" >        2       14       20       21       23 </v>
   <v type="int" >        2       14       21       23       24 </v>
   <v type="int" >        2       10       11       13       20 </v>
   <v type="int" >        2       11       13       14       20 </v>
   <v type="int" >        2       13       14       20       23 </v>
   <v type="int" >        2       10       13       19       20 </v>
   <v type="int" >        2       13       19       20       22 </v>
   <v type="int" >        2       13       20       22       23 </v>
   <v type="int" >        2       13       14       17       22 </v>
   <v type="int" >        2       13       16       17       22 </v>
   <v type="int" >        2       16       17       22       25 </v>
   <v type="int" >        2       14       17       22       23 </v>
   <v type="int" >        2       17       22       23       26 </v>
   <v type="int" >        2       17       22       25       26 </v>
   <v type="int" >        2       14       15       18       23 </v>
   <v type="int" >        2       14       17       18       23 </v>
   <v type="int" >        2       17       18       23       26 </v>
   <v type="int" >        2       15       18       23       24 </v>
   <v type="int" >        2       18       23       24       27 </v>
   <v type="int" >        2       18       23       26       27 </v>
   <v type="int" >        2       14       15       17       24 </v>
   <v type="int" >        2       15       17       18       24 </v>
   <v type="int" >        2       17       18       24       27 </v>
   <v type="int" >        2       14       17       23       24 </v>
   <v type="int" >        2       17       23       24       26 </v>
   <v type="int" >        2       17       24       26       27 </v>
   <v type="int" >        2       13       14       16       23 </v>
   <v type="int" >        2       14       16       17       23 </v>
   <v type="int" >        2       16       17       23       26 </v>
   <v type="int" >        2       13       16       22       23 </v>
   <v type="int" >        2       16       22       23       25 </v>
   <v type="int" >        2       16       23       25       26 </v>
   <v type="int" >        2       14       16       17       25 </v>
   <v type="int" >        2       13       14       16       25 </v>
   <v type="int" >        2       13       14       22       25 </v>
   <v type="int" >        2       14       17       25       26 </v>
   <v type="int" >        2       14       23       25       26 </v>
   <v type="int" >        2       14       22       23       25 </v>
   <v type="int" >        2       15       17       18       26 </v>
   <v type="int" >        2       14       15       17       26 </v>
   <v type="int" >        2       14       15       23       26 </v>
   <v type="int" >        2       15       18       26       27 </v>
   <v type="int" >        2       15       24       26       27 </v>
   <v type="int" >        2       15       23       24       26 </v>
   <v type="int" >        2       14       17       18       27 </v>
   <v type="int" >        2       14       15       18       27 </v>
   <v type="int" >        2       14       15       24       27 </v>
   <v type="int" >        2       14       17       26       27 </v>
   <v type="int" >        2       14       23       26       27 </v>
   <v type="int" >        2       14       23       24       27 </v>
   <v type="int" >        2       13       16       17       26 </v>
   <v type="int" >        2       13       14       17       26 </v>
   <v type="int" >        2       13       14       23       26 </v>
   <v type="int" >        2       13       16       25       26 </v>
   <v type="int" >        2       13       22       25       26 </v>
   <v type="int" >        2       13       22       23       26 </v>
   <v type="int" >        2       11       13       14       22 </v>
   <v type="int" >        2       10       11       13       22 </v>
   <v type="int" >        2       10       11       19       22 </v>
   <v type="int" >        2       11       14       22       23 </v>
   <v type="int" >        2       11       20       22       23 </v>
   <v type="int" >        2       11       19       20       22 </v>
   <v type="int" >        2       12       14       15       23 </v>
   <v type="int" >        2       11       12       14       23 </v>
   <v type="int" >        2       11       12       20       23 </v>
   <v type="int" >        2       12       15       23       24 </v>
   <v type="int" >        2       12       21       23       24 </v>
   <v type="int" >        2       12       20       21       23 </v>
   <v type="int" >        2       11       14       15       24 </v>
   <v type="int" >        2       11       12       15       24 </v>
   <v type="int" >        2       11       12       21       24 </v>
   <v type="int" >        2       11       14       23       24 </v>
   <v type="int" >        2       11       20       23       24 </v>
   <v type="int" >        2       11       20       21       24 </v>
   <v type="int" >        2       10       13       14       23 </v>
   <v type="int" >        2       10       11       14       23 </v>
   <v type="int" >        2       10       11       20       23 </v>
   <v type="int" >        2       10       13       22       23 </v>
   <v type="int" >        2       10       19       22       23 </v>
   <v type="int" >        2       10       19       20       23 </v>
  </varray>
  <i name="volumeweight">      0.00260417 </i>
 </kpoints>
 <parameters>
  <separator name="general" >
   <i type="string" name="SYSTEM">diamond</i>
   <i type="logical" name="LCOMPAT"> F  </i>
  </separator>
  <separator name="electronic" >
   <i type="string" name="PREC">normal</i>
   <i name="ENMAX">    600.00000000</i>
   <i name="ENAUG">    644.87300000</i>
   <i name="EDIFF">      0.00000100</i>
   <i type="int" name="IALGO">    38</i>
   <i type="int" name="IWAVPR">    11</i>
   <i type="int" name="NBANDS">   106</i>
   <i name="NELECT">    128.00000000</i>
   <i type="int" name="TURBO">     0</i>
   <i type="int" name="IRESTART">     0</i>
   <i type="int" name="NREBOOT">     0</i>
   <i type="int" name="NMIN">     0</i>
   <i name="EREF">      0.00000000</i>
   <separator name="electronic smearing" >
    <i type="int" name="ISMEAR">    -5</i>
    <i name="SIGMA">      0.20000000</i>
    <i name="KSPACING">      0.50000000</i>
    <i type="logical" name="KGAMMA"> T  </i>
   </separator>
   <separator name="electronic projectors" >
    <i type="logical" name="LREAL"> F  </i>
    <v name="ROPT">      0.00000000      0.00000000</v>
    <i type="int" name="LMAXPAW">  -100</i>
    <i type="int" name="LMAXMIX">     2</i>
    <i type="logical" name="NLSPLINE"> F  </i>
   </separator>
   <separator name="electronic startup" >
    <i type="int" name="ISTART">     0</i>
    <i type="int" name="ICHARG">     2</i>
    <i type="int" name="INIWAV">     1</i>
   </separator>
   <separator name="electronic spin" >
    <i type="int" name="ISPIN">     1</i>
    <i type="logical" name="LNONCOLLINEAR"> F  </i>
    <v name="MAGMOM">      1.00000000      1.00000000      1.00000000      1.00000000      1.00000000      1.00000000      1.00000000      1.00000000      1.00000000      1.00000000      1.00000000      1.00000000      1.00000000      1.00000000      1.00000000      1.00000000      1.00000000      1.00000000      1.00000000      1.00000000
      1.00000000      1.00000000      1.00000000      1.00000000      1.00000000      1.00000000      1.00000000      1.00000000      1.00000000      1.00000000      1.00000000      1.00000000      1.00000000      1.00000000      1.00000000      1.00000000      1.00000000      1.00000000      1.00000000      1.00000000
      1.00000000      1.00000000      1.00000000      1.00000000      1.00000000      1.00000000      1.00000000      1.00000000      1.00000000      1.00000000      1.00000000      1.00000000      1.00000000      1.00000000      1.00000000      1.00000000      1.00000000      1.00000000      1.00000000      1.00000000
      1.00000000      1.00000000      1.00000000      1.00000000      1.00000000      1.00000000      1.00000000      1.00000000      1.00000000      1.00000000      1.00000000      1.00000000      1.00000000      1.00000000      1.00000000      1.00000000      1.00000000      1.00000000      1.00000000      1.00000000
</v>
    <i name="NUPDOWN">     -1.00000000</i>
    <i type="logical" name="LSORBIT"> F  </i>
    <v name="SAXIS">      0.00000000      0.00000000      1.00000000</v>
    <i type="logical" name="LSPIRAL"> F  </i>
    <v name="QSPIRAL">      0.00000000      0.00000000      0.00000000</v>
    <i type="logical" name="LZEROZ"> F  </i>
   </separator>
   <separator name="electronic exchange-correlation" >
    <i type="logical" name="LASPH"> F  </i>
    <i type="logical" name="LMETAGGA"> F  </i>
   </separator>
   <separator name="electronic convergence" >
    <i type="int" name="NELM">   200</i>
    <i type="int" name="NELMDL">     0</i>
    <i type="int" name="NELMIN">     2</i>
    <i name="ENINI">    600.00000000</i>
    <separator name="electronic convergence detail" >
     <i type="logical" name="LDIAG"> T  </i>
     <i type="logical" name="LSUBROT"> F  </i>
     <i name="WEIMIN">      0.00100000</i>
     <i name="EBREAK">      0.00000000</i>
     <i name="DEPER">      0.30000000</i>
     <i type="int" name="NRMM">     4</i>
     <i name="TIME">      0.40000000</i>
    </separator>
   </separator>
   <separator name="electronic mixer" >
    <i name="AMIX">      0.40000000</i>
    <i name="BMIX">      1.00000000</i>
    <i name="AMIN">      0.10000000</i>
    <i name="AMIX_MAG">      1.60000000</i>
    <i name="BMIX_MAG">      1.00000000</i>
    <separator name="electronic mixer details" >
     <i type="int" name="IMIX">     4</i>
     <i type="int" name="MAXMIX">   -45</i>
     <i name="WC">    100.00000000</i>
     <i type="int" name="INIMIX">     1</i>
     <i type="int" name="MIXPRE">     1</i>
     <i type="int" name="MREMOVE">     5</i>
    </separator>
   </separator>
   <separator name="electronic dipolcorrection" >
    <i type="logical" name="LDIPOL"> F  </i>
    <i type="logical" name="LMONO"> F  </i>
    <i type="int" name="IDIPOL">     0</i>
    <i name="EPSILON">      1.00000000</i>
    <v name="DIPOL">   -100.00000000   -100.00000000   -100.00000000</v>
    <i name="EFIELD">      0.00000000</i>
   </separator>
  </separator>
  <separator name="grids" >
   <i type="int" name="NGX">    72</i>
   <i type="int" name="NGY">    50</i>
   <i type="int" name="NGZ">    50</i>
   <i type="int" name="NGXF">   144</i>
   <i type="int" name="NGYF">   100</i>
   <i type="int" name="NGZF">   100</i>
   <i type="logical" name="ADDGRID"> F  </i>
  </separator>
  <separator name="ionic" >
   <i type="int" name="NSW">   200</i>
   <i type="int" name="IBRION">     2</i>
   <i type="int" name="ISIF">     2</i>
   <i name="PSTRESS">      0.00000000</i>
   <i name="EDIFFG">      0.00010000</i>
   <i type="int" name="NFREE">     1</i>
   <i name="POTIM">      0.50000000</i>
   <i name="SMASS">     -3.00000000</i>
   <i name="SCALEE">      1.00000000</i>
  </separator>
  <separator name="ionic md" >
   <i name="TEBEG">      0.00010000</i>
   <i name="TEEND">      0.00010000</i>
   <i type="int" name="NBLOCK">     1</i>
   <i type="int" name="KBLOCK">   200</i>
   <i type="int" name="NPACO">   256</i>
   <i name="APACO">     16.00000000</i>
  </separator>
  <separator name="symmetry" >
   <i type="int" name="ISYM">     2</i>
   <i name="SYMPREC">      0.00001000</i>
  </separator>
  <separator name="dos" >
   <i type="logical" name="LORBIT"> F  </i>
   <v name="RWIGS">     -1.00000000     -1.00000000</v>
   <i type="int" name="NEDOS">   301</i>
   <i name="EMIN">     10.00000000</i>
   <i name="EMAX">    -10.00000000</i>
   <i name="EFERMI">      0.00000000</i>
  </separator>
  <separator name="writing" >
   <i type="int" name="NWRITE">     2</i>
   <i type="logical" name="LWAVE"> F  </i>
   <i type="logical" name="LCHARG"> F  </i>
   <i type="logical" name="LPARD"> F  </i>
   <i type="logical" name="LVTOT"> F  </i>
   <i type="logical" name="LVHAR"> F  </i>
   <i type="logical" name="LELF"> F  </i>
   <i type="logical" name="LOPTICS"> F  </i>
   <v name="STM">      0.00000000      0.00000000      0.00000000      0.00000000      0.00000000      0.00000000      0.00000000</v>
  </separator>
  <separator name="performance" >
   <i type="int" name="NPAR">     2</i>
   <i type="int" name="NSIM">     4</i>
   <i type="int" name="NBLK">    -1</i>
   <i type="logical" name="LPLANE"> T  </i>
   <i type="logical" name="LSCALAPACK"> T  </i>
   <i type="logical" name="LSCAAWARE"> F  </i>
   <i type="logical" name="LSCALU"> F  </i>
   <i type="logical" name="LASYNC"> F  </i>
   <i type="logical" name="LORBITALREAL"> F  </i>
  </separator>
  <separator name="miscellaneous" >
   <i type="int" name="IDIOT">     3</i>
   <i type="logical" name="LMUSIC"> F  </i>
   <v name="POMASS">      1.00000000     12.01100000</v>
   <v name="DARWINR">      0.00000000      0.00000000</v>
   <v name="DARWINV">      1.00000000      1.00000000</v>
   <i type="logical" name="LCORR"> T  </i>
  </separator>
  <i type="logical" name="GGA_COMPAT"> T  </i>
  <i type="logical" name="LBERRY"> F  </i>
  <i type="int" name="ICORELEVEL">     0</i>
  <i type="logical" name="LDAU"> F  </i>
  <i type="int" name="I_CONSTRAINED_M">     0</i>
  <separator name="electronic exchange-correlation" >
   <i type="string" name="GGA">--</i>
   <i type="int" name="VOSKOWN">     0</i>
   <i type="logical" name="LHFCALC"> F  </i>
   <i type="string" name="PRECFOCK"></i>
   <i type="logical" name="LSYMGRAD"> F  </i>
   <i type="logical" name="LHFONE"> F  </i>
   <i type="logical" name="LRHFCALC"> F  </i>
   <i type="logical" name="LTHOMAS"> F  </i>
   <i type="logical" name="LMODELHF"> F  </i>
   <i name="ENCUT4O">     -1.00000000</i>
   <i type="int" name="EXXOEP">     0</i>
   <i type="int" name="FOURORBIT">     0</i>
   <i name="AEXX">      0.00000000</i>
   <i name="HFALPHA">      0.00000000</i>
   <i name="MCALPHA">      0.00000000</i>
   <i name="ALDAX">      1.00000000</i>
   <i name="AGGAX">      1.00000000</i>
   <i name="ALDAC">      1.00000000</i>
   <i name="AGGAC">      1.00000000</i>
   <i type="int" name="NKREDX">     1</i>
   <i type="int" name="NKREDY">     1</i>
   <i type="int" name="NKREDZ">     1</i>
   <i type="logical" name="SHIFTRED"> F  </i>
   <i type="logical" name="ODDONLY"> F  </i>
   <i type="logical" name="EVENONLY"> F  </i>
   <i type="int" name="LMAXFOCK">     0</i>
   <i type="int" name="NMAXFOCKAE">     0</i>
   <i type="logical" name="LFOCKAEDFT"> F  </i>
   <i name="HFSCREEN">      0.00000000</i>
   <i name="HFSCREENC">      0.00000000</i>
   <i type="int" name="NBANDSGWLOW">     0</i>
  </separator>
  <separator name="vdW DFT" >
   <i type="logical" name="LUSE_VDW"> F  </i>
   <i name="Zab_VDW">     -0.84910000</i>
   <i name="PARAM1">      0.12340000</i>
   <i name="PARAM2">      1.00000000</i>
   <i name="PARAM3">      0.00000000</i>
  </separator>
  <separator name="model GW" >
   <i type="int" name="MODEL_GW">     0</i>
   <i name="MODEL_EPS0">      6.23834146</i>
   <i name="MODEL_ALPHA">      1.00000000</i>
  </separator>
  <separator name="linear response parameters" >
   <i type="logical" name="LEPSILON"> F  </i>
   <i type="logical" name="LRPA"> F  </i>
   <i type="logical" name="LNABLA"> F  </i>
   <i type="logical" name="LVEL"> F  </i>
   <i type="int" name="KINTER">     0</i>
   <i name="CSHIFT">      0.10000000</i>
   <i name="OMEGAMAX">     -1.00000000</i>
   <i name="DEG_THRESHOLD">      0.00200000</i>
  </separator>
  <separator name="orbital magnetization" >
   <i type="logical" name="NUCIND"> F  </i>
   <v name="MAGPOS">      0.00000000      0.00000000      0.00000000</v>
   <i type="logical" name="LNICSALL"> T  </i>
   <i type="logical" name="ORBITALMAG"> F  </i>
   <i type="logical" name="LMAGBLOCH"> F  </i>
   <i type="logical" name="LCHIMAG"> F  </i>
   <i type="logical" name="LGAUGE"> T  </i>
   <i type="int" name="MAGATOM">     0</i>
   <v name="MAGDIPOL">      0.00000000      0.00000000      0.00000000</v>
   <v name="AVECCONST">      0.00000000      0.00000000      0.00000000</v>
  </separator>
  <separator name="response functions" >
   <i type="logical" name="LADDER"> F  </i>
   <i type="logical" name="LFXC"> F  </i>
   <i type="logical" name="LHARTREE"> T  </i>
   <i type="int" name="IBSE">     0</i>
   <i type="logical" name="LTCTE"> F  </i>
   <i type="logical" name="LTETE"> F  </i>
   <i type="logical" name="LTRIPLET"> F  </i>
   <i type="logical" name="LFXCEPS"> F  </i>
   <i type="logical" name="LFXHEG"> F  </i>
   <i type="logical" name="L2ORDER"> F  </i>
   <i type="logical" name="LUSEW"> F  </i>
   <i name="ENCUTGW">     -2.00000000</i>
   <i name="ENCUTGWSOFT">     -2.00000000</i>
   <i name="ENCUTLF">     -1.00000000</i>
   <i type="int" name="LMAXMP2">    -1</i>
   <i name="SCISSOR">      0.00000000</i>
   <i type="int" name="NOMEGA">     0</i>
   <i type="int" name="NOMEGAR">     0</i>
   <i type="int" name="NBANDSGW">    -1</i>
   <i type="int" name="NBANDSO">    -1</i>
   <i type="int" name="NBANDSV">    -1</i>
   <i type="int" name="NELM">   200</i>
   <i type="int" name="DIM">     3</i>
   <i type="int" name="ANTIRES">     0</i>
   <i name="OMEGAMAX">    -30.00000000</i>
   <i name="OMEGAMIN">    -30.00000000</i>
   <i name="OMEGATL">   -200.00000000</i>
   <i type="int" name="OMEGAGRID">     0</i>
   <i name="CSHIFT">     -0.10000000</i>
   <i type="logical" name="SELFENERGY"> F  </i>
   <i type="logical" name="LSPECTRAL"> F  </i>
   <i type="logical" name="ODDONLYGW"> F  </i>
   <i type="logical" name="EVENONLYGW"> F  </i>
   <i type="int" name="NKREDLFX">     1</i>
   <i type="int" name="NKREDLFY">     1</i>
   <i type="int" name="NKREDLFZ">     1</i>
   <i type="int" name="MAXMEM">  1800</i>
   <i type="int" name="TELESCOPE">     0</i>
   <i type="int" name="TAUPAR">     1</i>
  </separator>
  <separator name="External order field" >
   <i name="OFIELD_KAPPA">      0.00000000</i>
   <v name="OFIELD_K">      0.00000000      0.00000000      0.00000000</v>
   <i name="OFIELD_Q6_NEAR">      0.00000000</i>
   <i name="OFIELD_Q6_FAR">      0.00000000</i>
   <i name="OFIELD_A">      0.00000000</i>
  </separator>
 </parameters>
 <atominfo>
  <atoms>      80 </atoms>
  <types>       2 </types>
  <array name="atoms" >
   <dimension dim="1">ion</dimension>
   <field type="string">element</field>
   <field type="int">atomtype</field>
   <set>
    <rc><c>H </c><c>   1</c></rc>
    <rc><c>H </c><c>   1</c></rc>
    <rc><c>H </c><c>   1</c></rc>
    <rc><c>H </c><c>   1</c></rc>
    <rc><c>H </c><c>   1</c></rc>
    <rc><c>H </c><c>   1</c></rc>
    <rc><c>H </c><c>   1</c></rc>
    <rc><c>H </c><c>   1</c></rc>
    <rc><c>H </c><c>   1</c></rc>
    <rc><c>H </c><c>   1</c></rc>
    <rc><c>H </c><c>   1</c></rc>
    <rc><c>H </c><c>   1</c></rc>
    <rc><c>H </c><c>   1</c></rc>
    <rc><c>H </c><c>   1</c></rc>
    <rc><c>H </c><c>   1</c></rc>
    <rc><c>H </c><c>   1</c></rc>
    <rc><c>H </c><c>   1</c></rc>
    <rc><c>H </c><c>   1</c></rc>
    <rc><c>H </c><c>   1</c></rc>
    <rc><c>H </c><c>   1</c></rc>
    <rc><c>H </c><c>   1</c></rc>
    <rc><c>H </c><c>   1</c></rc>
    <rc><c>H </c><c>   1</c></rc>
    <rc><c>H </c><c>   1</c></rc>
    <rc><c>H </c><c>   1</c></rc>
    <rc><c>H </c><c>   1</c></rc>
    <rc><c>H </c><c>   1</c></rc>
    <rc><c>H </c><c>   1</c></rc>
    <rc><c>H </c><c>   1</c></rc>
    <rc><c>H </c><c>   1</c></rc>
    <rc><c>H </c><c>   1</c></rc>
    <rc><c>H </c><c>   1</c></rc>
    <rc><c>H </c><c>   1</c></rc>
    <rc><c>H </c><c>   1</c></rc>
    <rc><c>H </c><c>   1</c></rc>
    <rc><c>H </c><c>   1</c></rc>
    <rc><c>H </c><c>   1</c></rc>
    <rc><c>H </c><c>   1</c></rc>
    <rc><c>H </c><c>   1</c></rc>
    <rc><c>H </c><c>   1</c></rc>
    <rc><c>H </c><c>   1</c></rc>
    <rc><c>H </c><c>   1</c></rc>
    <rc><c>H </c><c>   1</c></rc>
    <rc><c>H </c><c>   1</c></rc>
    <rc><c>H </c><c>   1</c></rc>
    <rc><c>H </c><c>   1</c></rc>
    <rc><c>H </c><c>   1</c></rc>
    <rc><c>H </c><c>   1</c></rc>
    <rc><c>H </c><c>   1</c></rc>
    <rc><c>H </c><c>   1</c></rc>
    <rc><c>H </c><c>   1</c></rc>
    <rc><c>H </c><c>   1</c></rc>
    <rc><c>H </c><c>   1</c></rc>
    <rc><c>H </c><c>   1</c></rc>
    <rc><c>H </c><c>   1</c></rc>
    <rc><c>H </c><c>   1</c></rc>
    <rc><c>H </c><c>   1</c></rc>
    <rc><c>H </c><c>   1</c></rc>
    <rc><c>H </c><c>   1</c></rc>
    <rc><c>H </c><c>   1</c></rc>
    <rc><c>H </c><c>   1</c></rc>
    <rc><c>H </c><c>   1</c></rc>
    <rc><c>H </c><c>   1</c></rc>
    <rc><c>H </c><c>   1</c></rc>
    <rc><c>C </c><c>   2</c></rc>
    <rc><c>C </c><c>   2</c></rc>
    <rc><c>C </c><c>   2</c></rc>
    <rc><c>C </c><c>   2</c></rc>
    <rc><c>C </c><c>   2</c></rc>
    <rc><c>C </c><c>   2</c></rc>
    <rc><c>C </c><c>   2</c></rc>
    <rc><c>C </c><c>   2</c></rc>
    <rc><c>C </c><c>   2</c></rc>
    <rc><c>C </c><c>   2</c></rc>
    <rc><c>C </c><c>   2</c></rc>
    <rc><c>C </c><c>   2</c></rc>
    <rc><c>C </c><c>   2</c></rc>
    <rc><c>C </c><c>   2</c></rc>
    <rc><c>C </c><c>   2</c></rc>
    <rc><c>C </c><c>   2</c></rc>
   </set>
  </array>
  <array name="atomtypes" >
   <dimension dim="1">type</dimension>
   <field type="int">atomspertype</field>
   <field type="string">element</field>
   <field>mass</field>
   <field>valence</field>
   <field type="string">pseudopotential</field>
   <set>
    <rc><c>  64</c><c>H </c><c>      1.00000000</c><c>      1.00000000</c><c>PAW_PBE H 15Jun2001                     </c></rc>
    <rc><c>  16</c><c>C </c><c>     12.01100000</c><c>      4.00000000</c><c>PAW_PBE C 08Apr2002                     </c></rc>
   </set>
  </array>
 </atominfo>
 <structure name="initialpos" >
  <crystal>
   <varray name="basis" >
    <v>      11.93752501       0.00000000       0.00000000 </v>
    <v>       0.00000000       8.34991486       0.00000000 </v>
    <v>       0.00000000       0.00000000       8.34471555 </v>
   </varray>
   <i name="volume">    831.77886076 </i>
   <varray name="rec_basis" >
    <v>       0.08376946       0.00000000       0.00000000 </v>
    <v>       0.00000000       0.11976170       0.00000000 </v>
    <v>       0.00000000       0.00000000       0.11983632 </v>
   </varray>
  </crystal>
  <varray name="positions" >
   <v>       0.07496258       0.77863942       0.26175302 </v>
   <v>       0.92503744       0.22136058       0.73824701 </v>
   <v>       0.92503744       0.72136058       0.76175299 </v>
   <v>       0.07496258       0.27863942       0.23824698 </v>
   <v>       0.92503744       0.27863942       0.23824698 </v>
   <v>       0.07496258       0.72136058       0.76175299 </v>
   <v>       0.07496258       0.22136058       0.73824701 </v>
   <v>       0.92503744       0.77863942       0.26175302 </v>
   <v>       0.57496256       0.27863942       0.26175302 </v>
   <v>       0.42503741       0.72136058       0.73824701 </v>
   <v>       0.42503741       0.22136058       0.76175299 </v>
   <v>       0.57496256       0.77863942       0.23824698 </v>
   <v>       0.42503741       0.77863942       0.23824698 </v>
   <v>       0.57496256       0.22136058       0.76175299 </v>
   <v>       0.57496256       0.72136058       0.73824701 </v>
   <v>       0.42503741       0.27863942       0.26175302 </v>
   <v>       0.80278266       0.58221714       0.93157996 </v>
   <v>       0.19721734       0.41778286       0.06842004 </v>
   <v>       0.19721734       0.91778286       0.43157996 </v>
   <v>       0.80278266       0.08221714       0.56842004 </v>
   <v>       0.19721734       0.08221714       0.56842004 </v>
   <v>       0.80278266       0.91778286       0.43157996 </v>
   <v>       0.80278266       0.41778286       0.06842004 </v>
   <v>       0.19721734       0.58221714       0.93157996 </v>
   <v>       0.30278266       0.08221714       0.93157996 </v>
   <v>       0.69721734       0.91778286       0.06842004 </v>
   <v>       0.69721734       0.41778286       0.43157996 </v>
   <v>       0.30278266       0.58221714       0.56842004 </v>
   <v>       0.69721734       0.58221714       0.56842004 </v>
   <v>       0.30278266       0.41778286       0.43157996 </v>
   <v>       0.30278266       0.91778286       0.06842004 </v>
   <v>       0.69721734       0.08221714       0.93157996 </v>
   <v>       0.69676663       0.56851243       0.08242000 </v>
   <v>       0.30323337       0.43148757       0.91758000 </v>
   <v>       0.30323337       0.93148757       0.58242000 </v>
   <v>       0.69676663       0.06851243       0.41758000 </v>
   <v>       0.30323337       0.06851243       0.41758000 </v>
   <v>       0.69676663       0.93148757       0.58242000 </v>
   <v>       0.69676663       0.43148757       0.91758000 </v>
   <v>       0.30323337       0.56851243       0.08242000 </v>
   <v>       0.19676663       0.06851243       0.08242000 </v>
   <v>       0.80323337       0.93148757       0.91758000 </v>
   <v>       0.80323337       0.43148757       0.58242000 </v>
   <v>       0.19676663       0.56851243       0.41758000 </v>
   <v>       0.80323337       0.56851243       0.41758000 </v>
   <v>       0.19676663       0.43148757       0.58242000 </v>
   <v>       0.19676663       0.93148757       0.91758000 </v>
   <v>       0.80323337       0.06851243       0.08242000 </v>
   <v>       0.00000000       0.60141758       0.20663685 </v>
   <v>       0.00000000       0.39858242       0.79336312 </v>
   <v>       0.00000000       0.89858242       0.70663688 </v>
   <v>       0.00000000       0.10141758       0.29336315 </v>
   <v>       0.50000000       0.10141758       0.20663685 </v>
   <v>       0.50000000       0.89858242       0.79336312 </v>
   <v>       0.50000000       0.39858242       0.70663688 </v>
   <v>       0.50000000       0.60141758       0.29336315 </v>
   <v>       0.00000000       0.22802544       0.92368784 </v>
   <v>       0.00000000       0.77197456       0.07631216 </v>
   <v>       0.00000000       0.27197456       0.42368784 </v>
   <v>       0.00000000       0.72802544       0.57631216 </v>
   <v>       0.50000000       0.72802544       0.92368784 </v>
   <v>       0.50000000       0.27197456       0.07631216 </v>
   <v>       0.50000000       0.77197456       0.42368784 </v>
   <v>       0.50000000       0.22802544       0.57631216 </v>
   <v>       0.00000000       0.23254117       0.29842156 </v>
   <v>       0.00000000       0.76745883       0.70157842 </v>
   <v>       0.00000000       0.26745883       0.79842158 </v>
   <v>       0.00000000       0.73254117       0.20157842 </v>
   <v>       0.50000000       0.73254117       0.29842156 </v>
   <v>       0.50000000       0.26745883       0.70157842 </v>
   <v>       0.50000000       0.76745883       0.79842158 </v>
   <v>       0.50000000       0.23254117       0.20157842 </v>
   <v>       0.74967585       0.50000000       0.00000000 </v>
   <v>       0.25032415       0.50000000       0.00000000 </v>
   <v>       0.25032415       0.00000000       0.50000000 </v>
   <v>       0.74967585       0.00000000       0.50000000 </v>
   <v>       0.24967585       0.00000000       0.00000000 </v>
   <v>       0.75032415       0.00000000       0.00000000 </v>
   <v>       0.75032415       0.50000000       0.50000000 </v>
   <v>       0.24967585       0.50000000       0.50000000 </v>
  </varray>
 </structure>
 <calculation>
  <scstep>
   <time name="dav">  215.61  314.20</time>
   <time name="total">  216.40  315.09</time>
   <energy>
    <i name="alphaZ">     74.14856129 </i>
    <i name="ewald">  -1216.90217279 </i>
    <i name="hartreedc">  -1192.41641713 </i>
    <i name="XCdc">    366.78101948 </i>
    <i name="pawpsdc">    655.30793496 </i>
    <i name="pawaedc">   -674.29210410 </i>
    <i name="eentropy">      0.00000000 </i>
    <i name="bandstr">   -714.37217017 </i>
    <i name="atom">   3153.63586372 </i>
    <i name="e_fr_energy">    451.89051526 </i>
    <i name="e_wo_entrp">    451.89051526 </i>
    <i name="e_0_energy">    451.89051526 </i>
   </energy>
  </scstep>
  <scstep>
   <time name="dav">  249.75  394.81</time>
   <time name="total">  249.76  394.83</time>
   <energy>
    <i name="e_fr_energy">   -350.73350049 </i>
    <i name="e_wo_entrp">   -350.73350049 </i>
    <i name="e_0_energy">   -350.73350049 </i>
   </energy>
  </scstep>
  <scstep>
   <time name="dav">  266.78  408.30</time>
   <time name="total">  266.81  408.36</time>
   <energy>
    <i name="e_fr_energy">   -433.70117471 </i>
    <i name="e_wo_entrp">   -433.70117471 </i>
    <i name="e_0_energy">   -433.70117471 </i>
   </energy>
  </scstep>
  <scstep>
   <time name="dav">  266.50  393.46</time>
   <time name="total">  266.52  393.51</time>
   <energy>
    <i name="e_fr_energy">   -436.03852142 </i>
    <i name="e_wo_entrp">   -436.03852142 </i>
    <i name="e_0_energy">   -436.03852142 </i>
   </energy>
  </scstep>
  <scstep>
   <time name="dav">  269.53  399.91</time>
   <time name="total">  272.30  405.21</time>
   <energy>
    <i name="e_fr_energy">   -436.09479479 </i>
    <i name="e_wo_entrp">   -436.09479479 </i>
    <i name="e_0_energy">   -436.09479479 </i>
   </energy>
  </scstep>
  <scstep>
   <time name="dav">  245.12  357.43</time>
   <time name="total">  249.12  363.26</time>
   <energy>
    <i name="e_fr_energy">   -390.99194531 </i>
    <i name="e_wo_entrp">   -390.99194531 </i>
    <i name="e_0_energy">   -390.99194531 </i>
   </energy>
  </scstep>
  <scstep>
   <time name="dav">  252.30  380.01</time>
   <time name="total">  255.89  386.40</time>
   <energy>
    <i name="e_fr_energy">   -386.05933982 </i>
    <i name="e_wo_entrp">   -386.05933982 </i>
    <i name="e_0_energy">   -386.05933982 </i>
   </energy>
  </scstep>
  <scstep>
   <time name="dav">  247.65  366.22</time>
   <time name="total">  251.36  373.03</time>
   <energy>
    <i name="e_fr_energy">   -384.96734448 </i>
    <i name="e_wo_entrp">   -384.96734448 </i>
    <i name="e_0_energy">   -384.96734448 </i>
   </energy>
  </scstep>
  <scstep>
   <time name="dav">  258.43  385.60</time>
   <time name="total">  261.86  391.49</time>
   <energy>
    <i name="e_fr_energy">   -384.84554790 </i>
    <i name="e_wo_entrp">   -384.84554790 </i>
    <i name="e_0_energy">   -384.84554790 </i>
   </energy>
  </scstep>
  <scstep>
   <time name="dav">  239.48  350.20</time>
   <time name="total">  243.17  356.28</time>
   <energy>
    <i name="e_fr_energy">   -384.86504502 </i>
    <i name="e_wo_entrp">   -384.86504502 </i>
    <i name="e_0_energy">   -384.86504502 </i>
   </energy>
  </scstep>
  <scstep>
   <time name="dav">  249.32  381.35</time>
   <time name="total">  252.12  386.68</time>
   <energy>
    <i name="e_fr_energy">   -384.85912635 </i>
    <i name="e_wo_entrp">   -384.85912635 </i>
    <i name="e_0_energy">   -384.85912635 </i>
   </energy>
  </scstep>
  <scstep>
   <time name="dav">  249.65  385.49</time>
   <time name="total">  253.16  390.55</time>
   <energy>
    <i name="e_fr_energy">   -384.85946473 </i>
    <i name="e_wo_entrp">   -384.85946473 </i>
    <i name="e_0_energy">   -384.85946473 </i>
   </energy>
  </scstep>
  <scstep>
   <time name="dav">  239.02  358.88</time>
   <time name="total">  243.24  364.41</time>
   <energy>
    <i name="e_fr_energy">   -384.85943582 </i>
    <i name="e_wo_entrp">   -384.85943582 </i>
    <i name="e_0_energy">   -384.85943582 </i>
   </energy>
  </scstep>
  <scstep>
   <time name="dav">  247.32  373.21</time>
   <time name="total">  250.92  378.51</time>
   <energy>
    <i name="e_fr_energy">   -384.85944454 </i>
    <i name="e_wo_entrp">   -384.85944454 </i>
    <i name="e_0_energy">   -384.85944454 </i>
   </energy>
  </scstep>
  <scstep>
   <time name="dav">  264.78  390.39</time>
   <time name="total">  268.78  396.62</time>
   <energy>
    <i name="e_fr_energy">   -384.85944288 </i>
    <i name="e_wo_entrp">   -384.85944288 </i>
    <i name="e_0_energy">   -384.85944288 </i>
   </energy>
  </scstep>
  <scstep>
   <time name="dav">  187.56  276.98</time>
   <time name="total">  188.16  277.96</time>
   <energy>
    <i name="alphaZ">     74.14856129 </i>
    <i name="ewald">  -1216.90217279 </i>
    <i name="hartreedc">  -1648.66504962 </i>
    <i name="XCdc">    406.75978696 </i>
    <i name="pawpsdc">   1437.64894775 </i>
    <i name="pawaedc">  -1460.14234931 </i>
    <i name="eentropy">      0.00000000 </i>
    <i name="bandstr">  -1131.34303053 </i>
    <i name="atom">   3153.63586372 </i>
    <i name="e_fr_energy">   -384.85944252 </i>
    <i name="e_wo_entrp">   -384.85944252 </i>
    <i name="e_0_energy">   -384.85944252 </i>
   </energy>
  </scstep>
  <structure>
   <crystal>
    <varray name="basis" >
     <v>      11.93752501       0.00000000       0.00000000 </v>
     <v>       0.00000000       8.34991486       0.00000000 </v>
     <v>       0.00000000       0.00000000       8.34471555 </v>
    </varray>
    <i name="volume">    831.77886076 </i>
    <varray name="rec_basis" >
     <v>       0.08376946       0.00000000       0.00000000 </v>
     <v>       0.00000000       0.11976170       0.00000000 </v>
     <v>       0.00000000       0.00000000       0.11983632 </v>
    </varray>
   </crystal>
   <varray name="positions" >
    <v>       0.07496258       0.77863942       0.26175302 </v>
    <v>       0.92503744       0.22136058       0.73824701 </v>
    <v>       0.92503744       0.72136058       0.76175299 </v>
    <v>       0.07496258       0.27863942       0.23824698 </v>
    <v>       0.92503744       0.27863942       0.23824698 </v>
    <v>       0.07496258       0.72136058       0.76175299 </v>
    <v>       0.07496258       0.22136058       0.73824701 </v>
    <v>       0.92503744       0.77863942       0.26175302 </v>
    <v>       0.57496256       0.27863942       0.26175302 </v>
    <v>       0.42503741       0.72136058       0.73824701 </v>
    <v>       0.42503741       0.22136058       0.76175299 </v>
    <v>       0.57496256       0.77863942       0.23824698 </v>
    <v>       0.42503741       0.77863942       0.23824698 </v>
    <v>       0.57496256       0.22136058       0.76175299 </v>
    <v>       0.57496256       0.72136058       0.73824701 </v>
    <v>       0.42503741       0.27863942       0.26175302 </v>
    <v>       0.80278266       0.58221714       0.93157996 </v>
    <v>       0.19721734       0.41778286       0.06842004 </v>
    <v>       0.19721734       0.91778286       0.43157996 </v>
    <v>       0.80278266       0.08221714       0.56842004 </v>
    <v>       0.19721734       0.08221714       0.56842004 </v>
    <v>       0.80278266       0.91778286       0.43157996 </v>
    <v>       0.80278266       0.41778286       0.06842004 </v>
    <v>       0.19721734       0.58221714       0.93157996 </v>
    <v>       0.30278266       0.08221714       0.93157996 </v>
    <v>       0.69721734       0.91778286       0.06842004 </v>
    <v>       0.69721734       0.41778286       0.43157996 </v>
    <v>       0.30278266       0.58221714       0.56842004 </v>
    <v>       0.69721734       0.58221714       0.56842004 </v>
    <v>       0.30278266       0.41778286       0.43157996 </v>
    <v>       0.30278266       0.91778286       0.06842004 </v>
    <v>       0.69721734       0.08221714       0.93157996 </v>
    <v>       0.69676663       0.56851243       0.08242000 </v>
    <v>       0.30323337       0.43148757       0.91758000 </v>
    <v>       0.30323337       0.93148757       0.58242000 </v>
    <v>       0.69676663       0.06851243       0.41758000 </v>
    <v>       0.30323337       0.06851243       0.41758000 </v>
    <v>       0.69676663       0.93148757       0.58242000 </v>
    <v>       0.69676663       0.43148757       0.91758000 </v>
    <v>       0.30323337       0.56851243       0.08242000 </v>
    <v>       0.19676663       0.06851243       0.08242000 </v>
    <v>       0.80323337       0.93148757       0.91758000 </v>
    <v>       0.80323337       0.43148757       0.58242000 </v>
    <v>       0.19676663       0.56851243       0.41758000 </v>
    <v>       0.80323337       0.56851243       0.41758000 </v>
    <v>       0.19676663       0.43148757       0.58242000 </v>
    <v>       0.19676663       0.93148757       0.91758000 </v>
    <v>       0.80323337       0.06851243       0.08242000 </v>
    <v>       0.00000000       0.60141758       0.20663685 </v>
    <v>       0.00000000       0.39858242       0.79336312 </v>
    <v>       0.00000000       0.89858242       0.70663688 </v>
    <v>       0.00000000       0.10141758       0.29336315 </v>
    <v>       0.50000000       0.10141758       0.20663685 </v>
    <v>       0.50000000       0.89858242       0.79336312 </v>
    <v>       0.50000000       0.39858242       0.70663688 </v>
    <v>       0.50000000       0.60141758       0.29336315 </v>
    <v>       0.00000000       0.22802544       0.92368784 </v>
    <v>       0.00000000       0.77197456       0.07631216 </v>
    <v>       0.00000000       0.27197456       0.42368784 </v>
    <v>       0.00000000       0.72802544       0.57631216 </v>
    <v>       0.50000000       0.72802544       0.92368784 </v>
    <v>       0.50000000       0.27197456       0.07631216 </v>
    <v>       0.50000000       0.77197456       0.42368784 </v>
    <v>       0.50000000       0.22802544       0.57631216 </v>
    <v>       0.00000000       0.23254117       0.29842156 </v>
    <v>       0.00000000       0.76745883       0.70157842 </v>
    <v>       0.00000000       0.26745883       0.79842158 </v>
    <v>       0.00000000       0.73254117       0.20157842 </v>
    <v>       0.50000000       0.73254117       0.29842156 </v>
    <v>       0.50000000       0.26745883       0.70157842 </v>
    <v>       0.50000000       0.76745883       0.79842158 </v>
    <v>       0.50000000       0.23254117       0.20157842 </v>
    <v>       0.74967585       0.50000000       0.00000000 </v>
    <v>       0.25032415       0.50000000       0.00000000 </v>
    <v>       0.25032415       0.00000000       0.50000000 </v>
    <v>       0.74967585       0.00000000       0.50000000 </v>
    <v>       0.24967585       0.00000000       0.00000000 </v>
    <v>       0.75032415       0.00000000       0.00000000 </v>
    <v>       0.75032415       0.50000000       0.50000000 </v>
    <v>       0.24967585       0.50000000       0.50000000 </v>
   </varray>
  </structure>
  <varray name="forces" >
   <v>       0.00181863       0.00400199      -0.01232816 </v>
   <v>      -0.00181863      -0.00400199       0.01232816 </v>
   <v>      -0.00181863      -0.00400199      -0.01232816 </v>
   <v>       0.00181863       0.00400199       0.01232816 </v>
   <v>      -0.00181863       0.00400199       0.01232816 </v>
   <v>       0.00181863      -0.00400199      -0.01232816 </v>
   <v>       0.00181863      -0.00400199       0.01232816 </v>
   <v>      -0.00181863       0.00400199      -0.01232816 </v>
   <v>       0.00181863       0.00400199      -0.01232816 </v>
   <v>      -0.00181863      -0.00400199       0.01232816 </v>
   <v>      -0.00181863      -0.00400199      -0.01232816 </v>
   <v>       0.00181863       0.00400199       0.01232816 </v>
   <v>      -0.00181863       0.00400199       0.01232816 </v>
   <v>       0.00181863      -0.00400199      -0.01232816 </v>
   <v>       0.00181863      -0.00400199       0.01232816 </v>
   <v>      -0.00181863       0.00400199      -0.01232816 </v>
   <v>       0.00014869       0.01118545      -0.00330856 </v>
   <v>      -0.00014869      -0.01118545       0.00330856 </v>
   <v>      -0.00014869      -0.01118545      -0.00330856 </v>
   <v>       0.00014869       0.01118545       0.00330856 </v>
   <v>      -0.00014869       0.01118545       0.00330856 </v>
   <v>       0.00014869      -0.01118545      -0.00330856 </v>
   <v>       0.00014869      -0.01118545       0.00330856 </v>
   <v>      -0.00014869       0.01118545      -0.00330856 </v>
   <v>       0.00014869       0.01118545      -0.00330856 </v>
   <v>      -0.00014869      -0.01118545       0.00330856 </v>
   <v>      -0.00014869      -0.01118545      -0.00330856 </v>
   <v>       0.00014869       0.01118545       0.00330856 </v>
   <v>      -0.00014869       0.01118545       0.00330856 </v>
   <v>       0.00014869      -0.01118545      -0.00330856 </v>
   <v>       0.00014869      -0.01118545       0.00330856 </v>
   <v>      -0.00014869       0.01118545      -0.00330856 </v>
   <v>      -0.00835197       0.00309677       0.00989884 </v>
   <v>       0.00835197      -0.00309677      -0.00989884 </v>
   <v>       0.00835197      -0.00309677       0.00989884 </v>
   <v>      -0.00835197       0.00309677      -0.00989884 </v>
   <v>       0.00835197       0.00309677      -0.00989884 </v>
   <v>      -0.00835197      -0.00309677       0.00989884 </v>
   <v>      -0.00835197      -0.00309677      -0.00989884 </v>
   <v>       0.00835197       0.00309677       0.00989884 </v>
   <v>      -0.00835197       0.00309677       0.00989884 </v>
   <v>       0.00835197      -0.00309677      -0.00989884 </v>
   <v>       0.00835197      -0.00309677       0.00989884 </v>
   <v>      -0.00835197       0.00309677      -0.00989884 </v>
   <v>       0.00835197       0.00309677      -0.00989884 </v>
   <v>      -0.00835197      -0.00309677       0.00989884 </v>
   <v>      -0.00835197      -0.00309677      -0.00989884 </v>
   <v>       0.00835197       0.00309677       0.00989884 </v>
   <v>       0.00000000       0.00006519      -0.01136178 </v>
   <v>       0.00000000      -0.00006519       0.01136178 </v>
   <v>       0.00000000      -0.00006519      -0.01136178 </v>
   <v>       0.00000000       0.00006519       0.01136178 </v>
   <v>       0.00000000       0.00006519      -0.01136178 </v>
   <v>       0.00000000      -0.00006519       0.01136178 </v>
   <v>       0.00000000      -0.00006519      -0.01136178 </v>
   <v>       0.00000000       0.00006519       0.01136178 </v>
   <v>       0.00000000       0.01125522      -0.01712593 </v>
   <v>       0.00000000      -0.01125522       0.01712593 </v>
   <v>       0.00000000      -0.01125522      -0.01712593 </v>
   <v>       0.00000000       0.01125522       0.01712593 </v>
   <v>       0.00000000       0.01125522      -0.01712593 </v>
   <v>       0.00000000      -0.01125522       0.01712593 </v>
   <v>       0.00000000      -0.01125522      -0.01712593 </v>
   <v>       0.00000000       0.01125522       0.01712593 </v>
   <v>       0.00000000      -0.00026336       0.01072015 </v>
   <v>       0.00000000       0.00026336      -0.01072015 </v>
   <v>       0.00000000       0.00026336       0.01072015 </v>
   <v>       0.00000000      -0.00026336      -0.01072015 </v>
   <v>       0.00000000      -0.00026336       0.01072015 </v>
   <v>       0.00000000       0.00026336      -0.01072015 </v>
   <v>       0.00000000       0.00026336       0.01072015 </v>
   <v>       0.00000000      -0.00026336      -0.01072015 </v>
   <v>      -0.00315605      -0.00000000       0.00000000 </v>
   <v>       0.00315605      -0.00000000       0.00000000 </v>
   <v>       0.00315605      -0.00000000       0.00000000 </v>
   <v>      -0.00315605       0.00000000       0.00000000 </v>
   <v>      -0.00315605      -0.00000000       0.00000000 </v>
   <v>       0.00315605      -0.00000000       0.00000000 </v>
   <v>       0.00315605      -0.00000000       0.00000000 </v>
   <v>      -0.00315605      -0.00000000       0.00000000 </v>
  </varray>
  <varray name="stress" >
   <v>      -2.64254435       0.00000000       0.00000000 </v>
   <v>       0.00000000      -2.62581551       0.00000000 </v>
   <v>       0.00000000       0.00000000      -2.95125943 </v>
  </varray>
  <energy>
   <i name="e_fr_energy">   -387.33705953 </i>
   <i name="e_wo_entrp">   -387.33705953 </i>
   <i name="e_0_energy">      0.00000000 </i>
  </energy>
  <time name="totalsc"> 4284.28 6425.44</time>
 </calculation>
 <calculation>
  <scstep>
   <time name="dav">  229.88  336.18</time>
   <time name="total">  234.34  342.04</time>
   <energy>
    <i name="alphaZ">     74.14856129 </i>
    <i name="ewald">  -1217.23599591 </i>
    <i name="hartreedc">  -1648.49988928 </i>
    <i name="XCdc">    406.74853662 </i>
    <i name="pawpsdc">   1437.65943569 </i>
    <i name="pawaedc">  -1460.15330300 </i>
    <i name="eentropy">      0.00000000 </i>
    <i name="bandstr">  -1131.16281997 </i>
    <i name="atom">   3153.63586372 </i>
    <i name="e_fr_energy">   -384.85961084 </i>
    <i name="e_wo_entrp">   -384.85961084 </i>
    <i name="e_0_energy">   -384.85961084 </i>
   </energy>
  </scstep>
  <scstep>
   <time name="dav">  254.84  383.71</time>
   <time name="total">  259.50  389.92</time>
   <energy>
    <i name="e_fr_energy">   -384.85961801 </i>
    <i name="e_wo_entrp">   -384.85961801 </i>
    <i name="e_0_energy">   -384.85961801 </i>
   </energy>
  </scstep>
  <scstep>
   <time name="dav">  263.71  397.38</time>
   <time name="total">  267.38  403.13</time>
   <energy>
    <i name="e_fr_energy">   -384.85959546 </i>
    <i name="e_wo_entrp">   -384.85959546 </i>
    <i name="e_0_energy">   -384.85959546 </i>
   </energy>
  </scstep>
  <scstep>
   <time name="dav">  272.83  410.94</time>
   <time name="total">  276.32  416.55</time>
   <energy>
    <i name="e_fr_energy">   -384.85959283 </i>
    <i name="e_wo_entrp">   -384.85959283 </i>
    <i name="e_0_energy">   -384.85959283 </i>
   </energy>
  </scstep>
  <scstep>
   <time name="dav">  263.38  393.53</time>
   <time name="total">  266.78  398.82</time>
   <energy>
    <i name="e_fr_energy">   -384.85959254 </i>
    <i name="e_wo_entrp">   -384.85959254 </i>
    <i name="e_0_energy">   -384.85959254 </i>
   </energy>
  </scstep>
  <scstep>
   <time name="dav">  150.54  230.58</time>
   <time name="total">  151.17  231.46</time>
   <energy>
    <i name="alphaZ">     74.14856129 </i>
    <i name="ewald">  -1217.23599591 </i>
    <i name="hartreedc">  -1648.39815034 </i>
    <i name="XCdc">    406.74181509 </i>
    <i name="pawpsdc">   1437.31034963 </i>
    <i name="pawaedc">  -1459.80260182 </i>
    <i name="eentropy">      0.00000000 </i>
    <i name="bandstr">  -1131.25943406 </i>
    <i name="atom">   3153.63586372 </i>
    <i name="e_fr_energy">   -384.85959239 </i>
    <i name="e_wo_entrp">   -384.85959239 </i>
    <i name="e_0_energy">   -384.85959239 </i>
   </energy>
  </scstep>
  <structure>
   <crystal>
    <varray name="basis" >
     <v>      11.93752501       0.00000000       0.00000000 </v>
     <v>       0.00000000       8.34991486       0.00000000 </v>
     <v>       0.00000000       0.00000000       8.34471555 </v>
    </varray>
    <i name="volume">    831.77886076 </i>
    <varray name="rec_basis" >
     <v>       0.08376946       0.00000000       0.00000000 </v>
     <v>       0.00000000       0.11976170       0.00000000 </v>
     <v>       0.00000000       0.00000000       0.11983632 </v>
    </varray>
   </crystal>
   <varray name="positions" >
    <v>       0.07496993       0.77866255       0.26168175 </v>
    <v>       0.92503009       0.22133745       0.73831828 </v>
    <v>       0.92503009       0.72133745       0.76168172 </v>
    <v>       0.07496993       0.27866255       0.23831825 </v>
    <v>       0.92503009       0.27866255       0.23831825 </v>
    <v>       0.07496993       0.72133745       0.76168172 </v>
    <v>       0.07496993       0.22133745       0.73831828 </v>
    <v>       0.92503009       0.77866255       0.26168175 </v>
    <v>       0.57496991       0.27866255       0.26168175 </v>
    <v>       0.42503006       0.72133745       0.73831828 </v>
    <v>       0.42503006       0.22133745       0.76168172 </v>
    <v>       0.57496991       0.77866255       0.23831825 </v>
    <v>       0.42503006       0.77866255       0.23831825 </v>
    <v>       0.57496991       0.22133745       0.76168172 </v>
    <v>       0.57496991       0.72133745       0.73831828 </v>
    <v>       0.42503006       0.27866255       0.26168175 </v>
    <v>       0.80278327       0.58228177       0.93156083 </v>
    <v>       0.19721673       0.41771823       0.06843917 </v>
    <v>       0.19721673       0.91771823       0.43156083 </v>
    <v>       0.80278327       0.08228177       0.56843917 </v>
    <v>       0.19721673       0.08228177       0.56843917 </v>
    <v>       0.80278327       0.91771823       0.43156083 </v>
    <v>       0.80278327       0.41771823       0.06843917 </v>
    <v>       0.19721673       0.58228177       0.93156083 </v>
    <v>       0.30278327       0.08228177       0.93156083 </v>
    <v>       0.69721673       0.91771823       0.06843917 </v>
    <v>       0.69721673       0.41771823       0.43156083 </v>
    <v>       0.30278327       0.58228177       0.56843917 </v>
    <v>       0.69721673       0.58228177       0.56843917 </v>
    <v>       0.30278327       0.41771823       0.43156083 </v>
    <v>       0.30278327       0.91771823       0.06843917 </v>
    <v>       0.69721673       0.08228177       0.93156083 </v>
    <v>       0.69673288       0.56853033       0.08247723 </v>
    <v>       0.30326712       0.43146967       0.91752277 </v>
    <v>       0.30326712       0.93146967       0.58247723 </v>
    <v>       0.69673288       0.06853033       0.41752277 </v>
    <v>       0.30326712       0.06853033       0.41752277 </v>
    <v>       0.69673288       0.93146967       0.58247723 </v>
    <v>       0.69673288       0.43146967       0.91752277 </v>
    <v>       0.30326712       0.56853033       0.08247723 </v>
    <v>       0.19673288       0.06853033       0.08247723 </v>
    <v>       0.80326712       0.93146967       0.91752277 </v>
    <v>       0.80326712       0.43146967       0.58247723 </v>
    <v>       0.19673288       0.56853033       0.41752277 </v>
    <v>       0.80326712       0.56853033       0.41752277 </v>
    <v>       0.19673288       0.43146967       0.58247723 </v>
    <v>       0.19673288       0.93146967       0.91752277 </v>
    <v>       0.80326712       0.06853033       0.08247723 </v>
    <v>       0.00000000       0.60141795       0.20657117 </v>
    <v>       0.00000000       0.39858205       0.79342880 </v>
    <v>       0.00000000       0.89858205       0.70657120 </v>
    <v>       0.00000000       0.10141795       0.29342883 </v>
    <v>       0.50000000       0.10141795       0.20657117 </v>
    <v>       0.50000000       0.89858205       0.79342880 </v>
    <v>       0.50000000       0.39858205       0.70657120 </v>
    <v>       0.50000000       0.60141795       0.29342883 </v>
    <v>       0.00000000       0.22809047       0.92358883 </v>
    <v>       0.00000000       0.77190953       0.07641117 </v>
    <v>       0.00000000       0.27190953       0.42358883 </v>
    <v>       0.00000000       0.72809047       0.57641117 </v>
    <v>       0.50000000       0.72809047       0.92358883 </v>
    <v>       0.50000000       0.27190953       0.07641117 </v>
    <v>       0.50000000       0.77190953       0.42358883 </v>
    <v>       0.50000000       0.22809047       0.57641117 </v>
    <v>       0.00000000       0.23253965       0.29848354 </v>
    <v>       0.00000000       0.76746035       0.70151645 </v>
    <v>       0.00000000       0.26746035       0.79848355 </v>
    <v>       0.00000000       0.73253965       0.20151645 </v>
    <v>       0.50000000       0.73253965       0.29848354 </v>
    <v>       0.50000000       0.26746035       0.70151645 </v>
    <v>       0.50000000       0.76746035       0.79848355 </v>
    <v>       0.50000000       0.23253965       0.20151645 </v>
    <v>       0.74966309       0.50000000       0.00000000 </v>
    <v>       0.25033691       0.50000000       0.00000000 </v>
    <v>       0.25033691      -0.00000000       0.50000000 </v>
    <v>       0.74966309       0.00000000       0.50000000 </v>
    <v>       0.24966309      -0.00000000       0.00000000 </v>
    <v>       0.75033691      -0.00000000       0.00000000 </v>
    <v>       0.75033691       0.50000000       0.50000000 </v>
    <v>       0.24966309       0.50000000       0.50000000 </v>
   </varray>
  </structure>
  <varray name="forces" >
   <v>      -0.00128165       0.00174325      -0.01244332 </v>
   <v>       0.00128165      -0.00174325       0.01244332 </v>
   <v>       0.00128165      -0.00174325      -0.01244332 </v>
   <v>      -0.00128165       0.00174325       0.01244332 </v>
   <v>       0.00128165       0.00174325       0.01244332 </v>
   <v>      -0.00128165      -0.00174325      -0.01244332 </v>
   <v>      -0.00128165      -0.00174325       0.01244332 </v>
   <v>       0.00128165       0.00174325      -0.01244332 </v>
   <v>      -0.00128165       0.00174325      -0.01244332 </v>
   <v>       0.00128165      -0.00174325       0.01244332 </v>
   <v>       0.00128165      -0.00174325      -0.01244332 </v>
   <v>      -0.00128165       0.00174325       0.01244332 </v>
   <v>       0.00128165       0.00174325       0.01244332 </v>
   <v>      -0.00128165      -0.00174325      -0.01244332 </v>
   <v>      -0.00128165      -0.00174325       0.01244332 </v>
   <v>       0.00128165       0.00174325      -0.01244332 </v>
   <v>      -0.00845528       0.00014488       0.00569767 </v>
   <v>       0.00845528      -0.00014488      -0.00569767 </v>
   <v>       0.00845528      -0.00014488       0.00569767 </v>
   <v>      -0.00845528       0.00014488      -0.00569767 </v>
   <v>       0.00845528       0.00014488      -0.00569767 </v>
   <v>      -0.00845528      -0.00014488       0.00569767 </v>
   <v>      -0.00845528      -0.00014488      -0.00569767 </v>
   <v>       0.00845528       0.00014488       0.00569767 </v>
   <v>      -0.00845528       0.00014488       0.00569767 </v>
   <v>       0.00845528      -0.00014488      -0.00569767 </v>
   <v>       0.00845528      -0.00014488       0.00569767 </v>
   <v>      -0.00845528       0.00014488      -0.00569767 </v>
   <v>       0.00845528       0.00014488      -0.00569767 </v>
   <v>      -0.00845528      -0.00014488       0.00569767 </v>
   <v>      -0.00845528      -0.00014488      -0.00569767 </v>
   <v>       0.00845528       0.00014488       0.00569767 </v>
   <v>       0.00070863      -0.00600370      -0.00080383 </v>
   <v>      -0.00070863       0.00600370       0.00080383 </v>
   <v>      -0.00070863       0.00600370      -0.00080383 </v>
   <v>       0.00070863      -0.00600370       0.00080383 </v>
   <v>      -0.00070863      -0.00600370       0.00080383 </v>
   <v>       0.00070863       0.00600370      -0.00080383 </v>
   <v>       0.00070863       0.00600370       0.00080383 </v>
   <v>      -0.00070863      -0.00600370      -0.00080383 </v>
   <v>       0.00070863      -0.00600370      -0.00080383 </v>
   <v>      -0.00070863       0.00600370       0.00080383 </v>
   <v>      -0.00070863       0.00600370      -0.00080383 </v>
   <v>       0.00070863      -0.00600370       0.00080383 </v>
   <v>      -0.00070863      -0.00600370       0.00080383 </v>
   <v>       0.00070863       0.00600370      -0.00080383 </v>
   <v>       0.00070863       0.00600370       0.00080383 </v>
   <v>      -0.00070863      -0.00600370      -0.00080383 </v>
   <v>       0.00000000      -0.00032804      -0.00921040 </v>
   <v>       0.00000000       0.00032804       0.00921040 </v>
   <v>       0.00000000       0.00032804      -0.00921040 </v>
   <v>       0.00000000      -0.00032804       0.00921040 </v>
   <v>       0.00000000      -0.00032804      -0.00921040 </v>
   <v>       0.00000000       0.00032804       0.00921040 </v>
   <v>       0.00000000       0.00032804      -0.00921040 </v>
   <v>       0.00000000      -0.00032804       0.00921040 </v>
   <v>       0.00000000      -0.00296873       0.02757832 </v>
   <v>       0.00000000       0.00296873      -0.02757832 </v>
   <v>       0.00000000       0.00296873       0.02757832 </v>
   <v>       0.00000000      -0.00296873      -0.02757832 </v>
   <v>       0.00000000      -0.00296873       0.02757832 </v>
   <v>       0.00000000       0.00296873      -0.02757832 </v>
   <v>       0.00000000       0.00296873       0.02757832 </v>
   <v>       0.00000000      -0.00296873      -0.02757832 </v>
   <v>       0.00000000      -0.00956328      -0.03230594 </v>
   <v>       0.00000000       0.00956328       0.03230594 </v>
   <v>       0.00000000       0.00956328      -0.03230594 </v>
   <v>       0.00000000      -0.00956328       0.03230594 </v>
   <v>       0.00000000      -0.00956328      -0.03230594 </v>
   <v>       0.00000000       0.00956328       0.03230594 </v>
   <v>       0.00000000       0.00956328      -0.03230594 </v>
   <v>       0.00000000      -0.00956328       0.03230594 </v>
   <v>      -0.00408406      -0.00000000      -0.00000000 </v>
   <v>       0.00408406      -0.00000000      -0.00000000 </v>
   <v>       0.00408406      -0.00000000      -0.00000000 </v>
   <v>      -0.00408406      -0.00000000      -0.00000000 </v>
   <v>      -0.00408406      -0.00000000      -0.00000000 </v>
   <v>       0.00408406      -0.00000000      -0.00000000 </v>
   <v>       0.00408406      -0.00000000      -0.00000000 </v>
   <v>      -0.00408406      -0.00000000      -0.00000000 </v>
  </varray>
  <varray name="stress" >
   <v>      -3.09354743       0.00000000       0.00000000 </v>
   <v>       0.00000000      -2.98630046       0.00000000 </v>
   <v>       0.00000000      -0.00000000      -2.64190889 </v>
  </varray>
  <energy>
   <i name="e_fr_energy">   -387.33727203 </i>
   <i name="e_wo_entrp">   -387.33727203 </i>
   <i name="e_0_energy">      0.00000000 </i>
  </energy>
  <time name="totalsc"> 1746.07 2615.18</time>
 </calculation>
 <calculation>
  <scstep>
   <time name="dav">  227.32  342.90</time>
   <time name="total">  230.84  349.31</time>
   <energy>
    <i name="alphaZ">     74.14856129 </i>
    <i name="ewald">  -1217.15415882 </i>
    <i name="hartreedc">  -1648.43935300 </i>
    <i name="XCdc">    406.74458408 </i>
    <i name="pawpsdc">   1437.30833395 </i>
    <i name="pawaedc">  -1459.80055803 </i>
    <i name="eentropy">      0.00000000 </i>
    <i name="bandstr">  -1131.30290665 </i>
    <i name="atom">   3153.63586372 </i>
    <i name="e_fr_energy">   -384.85963347 </i>
    <i name="e_wo_entrp">   -384.85963347 </i>
    <i name="e_0_energy">   -384.85963347 </i>
   </energy>
  </scstep>
  <scstep>
   <time name="dav">  258.74  397.03</time>
   <time name="total">  262.55  403.18</time>
   <energy>
    <i name="e_fr_energy">   -384.85963409 </i>
    <i name="e_wo_entrp">   -384.85963409 </i>
    <i name="e_0_energy">   -384.85963409 </i>
   </energy>
  </scstep>
  <scstep>
   <time name="dav">  263.16  393.40</time>
   <time name="total">  267.09  399.49</time>
   <energy>
    <i name="e_fr_energy">   -384.85963336 </i>
    <i name="e_wo_entrp">   -384.85963336 </i>
    <i name="e_0_energy">   -384.85963336 </i>
   </energy>
  </scstep>
  <scstep>
   <time name="dav">  233.14  348.22</time>
   <time name="total">  233.73  349.21</time>
   <energy>
    <i name="alphaZ">     74.14856129 </i>
    <i name="ewald">  -1217.15415882 </i>
    <i name="hartreedc">  -1648.46406266 </i>
    <i name="XCdc">    406.74619964 </i>
    <i name="pawpsdc">   1437.38554284 </i>
    <i name="pawaedc">  -1459.87814991 </i>
    <i name="eentropy">      0.00000000 </i>
    <i name="bandstr">  -1131.27942908 </i>
    <i name="atom">   3153.63586372 </i>
    <i name="e_fr_energy">   -384.85963297 </i>
    <i name="e_wo_entrp">   -384.85963297 </i>
    <i name="e_0_energy">   -384.85963297 </i>
   </energy>
  </scstep>
  <structure>
   <crystal>
    <varray name="basis" >
     <v>      11.93752501       0.00000000       0.00000000 </v>
     <v>       0.00000000       8.34991486       0.00000000 </v>
     <v>       0.00000000       0.00000000       8.34471555 </v>
    </varray>
    <i name="volume">    831.77886076 </i>
    <varray name="rec_basis" >
     <v>       0.08376946       0.00000000       0.00000000 </v>
     <v>       0.00000000       0.11976170       0.00000000 </v>
     <v>       0.00000000       0.00000000       0.11983632 </v>
    </varray>
   </crystal>
   <varray name="positions" >
    <v>       0.07496812       0.77865686       0.26169927 </v>
    <v>       0.92503190       0.22134314       0.73830076 </v>
    <v>       0.92503190       0.72134314       0.76169924 </v>
    <v>       0.07496812       0.27865686       0.23830073 </v>
    <v>       0.92503190       0.27865686       0.23830073 </v>
    <v>       0.07496812       0.72134314       0.76169924 </v>
    <v>       0.07496812       0.22134314       0.73830076 </v>
    <v>       0.92503190       0.77865686       0.26169927 </v>
    <v>       0.57496810       0.27865686       0.26169927 </v>
    <v>       0.42503187       0.72134314       0.73830076 </v>
    <v>       0.42503187       0.22134314       0.76169924 </v>
    <v>       0.57496810       0.77865686       0.23830073 </v>
    <v>       0.42503187       0.77865686       0.23830073 </v>
    <v>       0.57496810       0.22134314       0.76169924 </v>
    <v>       0.57496810       0.72134314       0.73830076 </v>
    <v>       0.42503187       0.27865686       0.26169927 </v>
    <v>       0.80278312       0.58226588       0.93156554 </v>
    <v>       0.19721688       0.41773412       0.06843446 </v>
    <v>       0.19721688       0.91773412       0.43156554 </v>
    <v>       0.80278312       0.08226588       0.56843446 </v>
    <v>       0.19721688       0.08226588       0.56843446 </v>
    <v>       0.80278312       0.91773412       0.43156554 </v>
    <v>       0.80278312       0.41773412       0.06843446 </v>
    <v>       0.19721688       0.58226588       0.93156554 </v>
    <v>       0.30278312       0.08226588       0.93156554 </v>
    <v>       0.69721688       0.91773412       0.06843446 </v>
    <v>       0.69721688       0.41773412       0.43156554 </v>
    <v>       0.30278312       0.58226588       0.56843446 </v>
    <v>       0.69721688       0.58226588       0.56843446 </v>
    <v>       0.30278312       0.41773412       0.43156554 </v>
    <v>       0.30278312       0.91773412       0.06843446 </v>
    <v>       0.69721688       0.08226588       0.93156554 </v>
    <v>       0.69674118       0.56852593       0.08246316 </v>
    <v>       0.30325882       0.43147407       0.91753684 </v>
    <v>       0.30325882       0.93147407       0.58246316 </v>
    <v>       0.69674118       0.06852593       0.41753684 </v>
    <v>       0.30325882       0.06852593       0.41753684 </v>
    <v>       0.69674118       0.93147407       0.58246316 </v>
    <v>       0.69674118       0.43147407       0.91753684 </v>
    <v>       0.30325882       0.56852593       0.08246316 </v>
    <v>       0.19674118       0.06852593       0.08246316 </v>
    <v>       0.80325882       0.93147407       0.91753684 </v>
    <v>       0.80325882       0.43147407       0.58246316 </v>
    <v>       0.19674118       0.56852593       0.41753684 </v>
    <v>       0.80325882       0.56852593       0.41753684 </v>
    <v>       0.19674118       0.43147407       0.58246316 </v>
    <v>       0.19674118       0.93147407       0.91753684 </v>
    <v>       0.80325882       0.06852593       0.08246316 </v>
    <v>       0.00000000       0.60141786       0.20658732 </v>
    <v>       0.00000000       0.39858214       0.79341265 </v>
    <v>       0.00000000       0.89858214       0.70658735 </v>
    <v>       0.00000000       0.10141786       0.29341268 </v>
    <v>       0.50000000       0.10141786       0.20658732 </v>
    <v>       0.50000000       0.89858214       0.79341265 </v>
    <v>       0.50000000       0.39858214       0.70658735 </v>
    <v>       0.50000000       0.60141786       0.29341268 </v>
    <v>       0.00000000       0.22807448       0.92361317 </v>
    <v>       0.00000000       0.77192552       0.07638683 </v>
    <v>       0.00000000       0.27192552       0.42361317 </v>
    <v>       0.00000000       0.72807448       0.57638683 </v>
    <v>       0.50000000       0.72807448       0.92361317 </v>
    <v>       0.50000000       0.27192552       0.07638683 </v>
    <v>       0.50000000       0.77192552       0.42361317 </v>
    <v>       0.50000000       0.22807448       0.57638683 </v>
    <v>       0.00000000       0.23254002       0.29846830 </v>
    <v>       0.00000000       0.76745998       0.70153169 </v>
    <v>       0.00000000       0.26745998       0.79846831 </v>
    <v>       0.00000000       0.73254002       0.20153169 </v>
    <v>       0.50000000       0.73254002       0.29846830 </v>
    <v>       0.50000000       0.26745998       0.70153169 </v>
    <v>       0.50000000       0.76745998       0.79846831 </v>
    <v>       0.50000000       0.23254002       0.20153169 </v>
    <v>       0.74966623       0.50000000       0.00000000 </v>
    <v>       0.25033377       0.50000000       0.00000000 </v>
    <v>       0.25033377      -0.00000000       0.50000000 </v>
    <v>       0.74966623       0.00000000       0.50000000 </v>
    <v>       0.24966623      -0.00000000       0.00000000 </v>
    <v>       0.75033377      -0.00000000       0.00000000 </v>
    <v>       0.75033377       0.50000000       0.50000000 </v>
    <v>       0.24966623       0.50000000       0.50000000 </v>
   </varray>
  </structure>
  <varray name="forces" >
   <v>      -0.00051754       0.00231489      -0.01251419 </v>
   <v>       0.00051754      -0.00231489       0.01251419 </v>
   <v>       0.00051754      -0.00231489      -0.01251419 </v>
   <v>      -0.00051754       0.00231489       0.01251419 </v>
   <v>       0.00051754       0.00231489       0.01251419 </v>
   <v>      -0.00051754      -0.00231489      -0.01251419 </v>
   <v>      -0.00051754      -0.00231489       0.01251419 </v>
   <v>       0.00051754       0.00231489      -0.01251419 </v>
   <v>      -0.00051754       0.00231489      -0.01251419 </v>
   <v>       0.00051754      -0.00231489       0.01251419 </v>
   <v>       0.00051754      -0.00231489      -0.01251419 </v>
   <v>      -0.00051754       0.00231489       0.01251419 </v>
   <v>       0.00051754       0.00231489       0.01251419 </v>
   <v>      -0.00051754      -0.00231489      -0.01251419 </v>
   <v>      -0.00051754      -0.00231489       0.01251419 </v>
   <v>       0.00051754       0.00231489      -0.01251419 </v>
   <v>      -0.00627555       0.00296610       0.00340577 </v>
   <v>       0.00627555      -0.00296610      -0.00340577 </v>
   <v>       0.00627555      -0.00296610       0.00340577 </v>
   <v>      -0.00627555       0.00296610      -0.00340577 </v>
   <v>       0.00627555       0.00296610      -0.00340577 </v>
   <v>      -0.00627555      -0.00296610       0.00340577 </v>
   <v>      -0.00627555      -0.00296610      -0.00340577 </v>
   <v>       0.00627555       0.00296610       0.00340577 </v>
   <v>      -0.00627555       0.00296610       0.00340577 </v>
   <v>       0.00627555      -0.00296610      -0.00340577 </v>
   <v>       0.00627555      -0.00296610       0.00340577 </v>
   <v>      -0.00627555       0.00296610      -0.00340577 </v>
   <v>       0.00627555       0.00296610      -0.00340577 </v>
   <v>      -0.00627555      -0.00296610       0.00340577 </v>
   <v>      -0.00627555      -0.00296610      -0.00340577 </v>
   <v>       0.00627555       0.00296610       0.00340577 </v>
   <v>      -0.00160172      -0.00370171       0.00191540 </v>
   <v>       0.00160172       0.00370171      -0.00191540 </v>
   <v>       0.00160172       0.00370171       0.00191540 </v>
   <v>      -0.00160172      -0.00370171      -0.00191540 </v>
   <v>       0.00160172      -0.00370171      -0.00191540 </v>
   <v>      -0.00160172       0.00370171       0.00191540 </v>
   <v>      -0.00160172       0.00370171      -0.00191540 </v>
   <v>       0.00160172      -0.00370171       0.00191540 </v>
[...]
       <r>   -15.9320     0.0000     0.0000 </r>
       <r>   -15.8479     0.0000     0.0000 </r>
       <r>   -15.7638     0.0000     0.0000 </r>
       <r>   -15.6797     0.0000     0.0000 </r>
       <r>   -15.5957     0.0000     0.0000 </r>
       <r>   -15.5116     0.0000     0.0000 </r>
       <r>   -15.4275     0.0000     0.0000 </r>
       <r>   -15.3434     0.0000     0.0000 </r>
       <r>   -15.2593     0.0000     0.0000 </r>
       <r>   -15.1752     0.0000     0.0000 </r>
       <r>   -15.0911     0.0000     0.0000 </r>
       <r>   -15.0070     0.0000     0.0000 </r>
       <r>   -14.9229     0.0000     0.0000 </r>
       <r>   -14.8388     3.2490     0.0202 </r>
       <r>   -14.7547    22.1816     1.1513 </r>
       <r>   -14.6706    25.8691     3.9684 </r>
       <r>   -14.5865    40.9838     8.1205 </r>
       <r>   -14.5024   136.6287    17.1297 </r>
       <r>   -14.4183   131.0858    30.3765 </r>
       <r>   -14.3342     0.0000    32.0000 </r>
       <r>   -14.2501     0.0000    32.0000 </r>
       <r>   -14.1660     0.0000    32.0000 </r>
       <r>   -14.0819     0.0000    32.0000 </r>
       <r>   -13.9978     0.0000    32.0000 </r>
       <r>   -13.9137     0.0000    32.0000 </r>
       <r>   -13.8297     0.0000    32.0000 </r>
       <r>   -13.7456     0.0000    32.0000 </r>
       <r>   -13.6615     0.0000    32.0000 </r>
       <r>   -13.5774     0.0000    32.0000 </r>
       <r>   -13.4933     0.0000    32.0000 </r>
       <r>   -13.4092     0.0000    32.0000 </r>
       <r>   -13.3251     0.0000    32.0000 </r>
       <r>   -13.2410     0.0000    32.0000 </r>
       <r>   -13.1569     0.0000    32.0000 </r>
       <r>   -13.0728     0.0000    32.0000 </r>
       <r>   -12.9887     0.0000    32.0000 </r>
       <r>   -12.9046     0.0000    32.0000 </r>
       <r>   -12.8205     0.0000    32.0000 </r>
       <r>   -12.7364     0.0000    32.0000 </r>
       <r>   -12.6523     0.0000    32.0000 </r>
       <r>   -12.5682     0.0000    32.0000 </r>
       <r>   -12.4841     0.0000    32.0000 </r>
       <r>   -12.4000     0.0000    32.0000 </r>
       <r>   -12.3159     0.0000    32.0000 </r>
       <r>   -12.2318     0.0000    32.0000 </r>
       <r>   -12.1477     0.0000    32.0000 </r>
       <r>   -12.0637     0.0000    32.0000 </r>
       <r>   -11.9796     0.0000    32.0000 </r>
       <r>   -11.8955     0.0000    32.0000 </r>
       <r>   -11.8114     0.0000    32.0000 </r>
       <r>   -11.7273     0.0000    32.0000 </r>
       <r>   -11.6432     0.0000    32.0000 </r>
       <r>   -11.5591     0.0000    32.0000 </r>
       <r>   -11.4750     0.0000    32.0000 </r>
       <r>   -11.3909     0.0000    32.0000 </r>
       <r>   -11.3068     0.0000    32.0000 </r>
       <r>   -11.2227     0.0000    32.0000 </r>
       <r>   -11.1386     0.0000    32.0000 </r>
       <r>   -11.0545     0.0000    32.0000 </r>
       <r>   -10.9704     0.0000    32.0000 </r>
       <r>   -10.8863     0.0000    32.0000 </r>
       <r>   -10.8022     0.0000    32.0000 </r>
       <r>   -10.7181     0.0000    32.0000 </r>
       <r>   -10.6340     0.0000    32.0000 </r>
       <r>   -10.5499     0.0000    32.0000 </r>
       <r>   -10.4658     0.0000    32.0000 </r>
       <r>   -10.3817     0.0000    32.0000 </r>
       <r>   -10.2977     0.0000    32.0000 </r>
       <r>   -10.2136     0.0000    32.0000 </r>
       <r>   -10.1295     0.0000    32.0000 </r>
       <r>   -10.0454     0.0000    32.0000 </r>
       <r>    -9.9613     0.0000    32.0000 </r>
       <r>    -9.8772     0.0000    32.0000 </r>
       <r>    -9.7931     0.0000    32.0000 </r>
       <r>    -9.7090     0.0000    32.0000 </r>
       <r>    -9.6249     0.0000    32.0000 </r>
       <r>    -9.5408     0.0000    32.0000 </r>
       <r>    -9.4567     0.0000    32.0000 </r>
       <r>    -9.3726     0.0000    32.0000 </r>
       <r>    -9.2885     0.0000    32.0000 </r>
       <r>    -9.2044     0.0000    32.0000 </r>
       <r>    -9.1203     0.0000    32.0000 </r>
       <r>    -9.0362     0.0000    32.0000 </r>
       <r>    -8.9521     0.0000    32.0000 </r>
       <r>    -8.8680     0.0000    32.0000 </r>
       <r>    -8.7839     0.0000    32.0000 </r>
       <r>    -8.6998     0.0000    32.0000 </r>
       <r>    -8.6157     0.0000    32.0000 </r>
       <r>    -8.5316     0.0000    32.0000 </r>
       <r>    -8.4476     0.0000    32.0000 </r>
       <r>    -8.3635     0.0000    32.0000 </r>
       <r>    -8.2794     0.0000    32.0000 </r>
       <r>    -8.1953     0.0000    32.0000 </r>
       <r>    -8.1112     0.0000    32.0000 </r>
       <r>    -8.0271     0.0000    32.0000 </r>
       <r>    -7.9430     0.0000    32.0000 </r>
       <r>    -7.8589     0.0000    32.0000 </r>
       <r>    -7.7748     0.0000    32.0000 </r>
       <r>    -7.6907     0.0000    32.0000 </r>
       <r>    -7.6066     6.6406    32.0688 </r>
       <r>    -7.5225    50.0364    34.8175 </r>
       <r>    -7.4384    82.6071    40.4282 </r>
       <r>    -7.3543   104.3224    47.8935 </r>
       <r>    -7.2702    74.3377    53.7206 </r>
       <r>    -7.1861    51.6921    58.3893 </r>
       <r>    -7.1020    33.2786    62.4331 </r>
       <r>    -7.0179    57.0638    66.4040 </r>
       <r>    -6.9338    61.1191    71.8567 </r>
       <r>    -6.8497    87.6209    77.4652 </r>
       <r>    -6.7656   113.5136    89.0381 </r>
       <r>    -6.6816   226.5626   102.2571 </r>
       <r>    -6.5975   173.2608   117.5835 </r>
       <r>    -6.5134    55.1603   127.3668 </r>
       <r>    -6.4293     0.0000   128.0000 </r>
       <r>    -6.3452     0.0000   128.0000 </r>
       <r>    -6.2611     0.0000   128.0000 </r>
       <r>    -6.1770     0.0000   128.0000 </r>
       <r>    -6.0929     0.0000   128.0000 </r>
       <r>    -6.0088     0.0000   128.0000 </r>
       <r>    -5.9247     0.0000   128.0000 </r>
       <r>    -5.8406     0.0000   128.0000 </r>
       <r>    -5.7565     0.0000   128.0000 </r>
       <r>    -5.6724     0.0000   128.0000 </r>
       <r>    -5.5883     0.0000   128.0000 </r>
       <r>    -5.5042     0.0000   128.0000 </r>
       <r>    -5.4201     0.0000   128.0000 </r>
       <r>    -5.3360     0.0000   128.0000 </r>
       <r>    -5.2519     0.0000   128.0000 </r>
       <r>    -5.1678     0.0000   128.0000 </r>
       <r>    -5.0837     0.0000   128.0000 </r>
       <r>    -4.9996     0.0000   128.0000 </r>
       <r>    -4.9156     0.0000   128.0000 </r>
       <r>    -4.8315     0.0000   128.0000 </r>
       <r>    -4.7474     0.0000   128.0000 </r>
       <r>    -4.6633     0.0000   128.0000 </r>
       <r>    -4.5792     0.0000   128.0000 </r>
       <r>    -4.4951     0.0000   128.0000 </r>
       <r>    -4.4110     0.0000   128.0000 </r>
       <r>    -4.3269     0.0000   128.0000 </r>
       <r>    -4.2428     0.0000   128.0000 </r>
       <r>    -4.1587     0.0000   128.0000 </r>
       <r>    -4.0746     0.0000   128.0000 </r>
       <r>    -3.9905     0.0000   128.0000 </r>
       <r>    -3.9064     0.0000   128.0000 </r>
       <r>    -3.8223     0.0000   128.0000 </r>
       <r>    -3.7382     0.0000   128.0000 </r>
       <r>    -3.6541     0.0000   128.0000 </r>
       <r>    -3.5700     0.0000   128.0000 </r>
       <r>    -3.4859     0.0000   128.0000 </r>
       <r>    -3.4018     0.0000   128.0000 </r>
       <r>    -3.3177     0.0000   128.0000 </r>
       <r>    -3.2336     0.0000   128.0000 </r>
       <r>    -3.1496     0.0000   128.0000 </r>
       <r>    -3.0655     0.0000   128.0000 </r>
       <r>    -2.9814     0.0000   128.0000 </r>
       <r>    -2.8973     0.0000   128.0000 </r>
       <r>    -2.8132     0.0000   128.0000 </r>
       <r>    -2.7291     0.0000   128.0000 </r>
       <r>    -2.6450     0.0000   128.0000 </r>
       <r>    -2.5609     0.0000   128.0000 </r>
       <r>    -2.4768     0.0000   128.0000 </r>
       <r>    -2.3927     0.0000   128.0000 </r>
       <r>    -2.3086     0.0000   128.0000 </r>
       <r>    -2.2245     0.0000   128.0000 </r>
       <r>    -2.1404     0.0000   128.0000 </r>
       <r>    -2.0563     0.0000   128.0000 </r>
       <r>    -1.9722     0.0000   128.0000 </r>
       <r>    -1.8881     0.0000   128.0000 </r>
       <r>    -1.8040     0.0000   128.0000 </r>
       <r>    -1.7199     0.0000   128.0000 </r>
       <r>    -1.6358     0.0000   128.0000 </r>
       <r>    -1.5517     0.0000   128.0000 </r>
       <r>    -1.4676     0.0000   128.0000 </r>
       <r>    -1.3836     0.0000   128.0000 </r>
       <r>    -1.2995     0.0000   128.0000 </r>
       <r>    -1.2154     0.0000   128.0000 </r>
       <r>    -1.1313     0.0000   128.0000 </r>
       <r>    -1.0472     0.0000   128.0000 </r>
       <r>    -0.9631     0.0000   128.0000 </r>
       <r>    -0.8790     0.0000   128.0000 </r>
       <r>    -0.7949     0.0000   128.0000 </r>
       <r>    -0.7108     0.0000   128.0000 </r>
       <r>    -0.6267     0.0000   128.0000 </r>
       <r>    -0.5426     0.0000   128.0000 </r>
       <r>    -0.4585     0.0000   128.0000 </r>
       <r>    -0.3744     0.0000   128.0000 </r>
       <r>    -0.2903     0.0000   128.0000 </r>
       <r>    -0.2062     0.0000   128.0000 </r>
       <r>    -0.1221     0.0000   128.0000 </r>
       <r>    -0.0380     0.0000   128.0000 </r>
       <r>     0.0461     0.0000   128.0000 </r>
       <r>     0.1302     0.0000   128.0000 </r>
       <r>     0.2143     0.0000   128.0000 </r>
       <r>     0.2984     0.0000   128.0000 </r>
       <r>     0.3824     0.0000   128.0000 </r>
       <r>     0.4665     0.0000   128.0000 </r>
       <r>     0.5506     0.0000   128.0000 </r>
       <r>     0.6347     0.0000   128.0000 </r>
       <r>     0.7188     0.0000   128.0000 </r>
       <r>     0.8029     0.0000   128.0000 </r>
       <r>     0.8870     0.0000   128.0000 </r>
       <r>     0.9711     0.0000   128.0000 </r>
       <r>     1.0552     0.0000   128.0000 </r>
       <r>     1.1393     0.0002   128.0000 </r>
       <r>     1.2234     0.2336   128.0067 </r>
       <r>     1.3075     0.8220   128.0497 </r>
       <r>     1.3916     1.4900   128.1484 </r>
       <r>     1.4757     1.8001   128.2886 </r>
       <r>     1.5598     2.0347   128.4497 </r>
       <r>     1.6439     2.3550   128.6337 </r>
       <r>     1.7280     2.6715   128.8451 </r>
       <r>     1.8121     3.1336   129.0877 </r>
       <r>     1.8962     3.8188   129.3783 </r>
       <r>     1.9803     4.8268   129.7404 </r>
       <r>     2.0644     5.7513   130.1826 </r>
       <r>     2.1484     6.0508   130.6971 </r>
       <r>     2.2325     4.7141   131.1501 </r>
       <r>     2.3166     3.7768   131.4970 </r>
       <r>     2.4007     4.0960   131.8272 </r>
       <r>     2.4848     4.7293   132.1924 </r>
       <r>     2.5689     7.2618   132.6827 </r>
       <r>     2.6530    12.3047   133.4756 </r>
       <r>     2.7371    13.5542   134.6273 </r>
       <r>     2.8212     9.2309   135.6099 </r>
       <r>     2.9053     5.5009   136.1469 </r>
       <r>     2.9894    28.2218   137.2395 </r>
       <r>     3.0735    15.5367   139.0404 </r>
       <r>     3.1576    20.5599   140.5036 </r>
       <r>     3.2417    24.2183   142.3590 </r>
       <r>     3.3258    13.0765   143.9597 </r>
       <r>     3.4099    11.6184   144.7916 </r>
       <r>     3.4940    21.6670   146.4276 </r>
       <r>     3.5781    14.0356   147.7982 </r>
       <r>     3.6622    16.8300   149.0130 </r>
       <r>     3.7463    24.5265   150.8110 </r>
       <r>     3.8304    24.1543   152.8362 </r>
       <r>     3.9145    20.3981   154.7505 </r>
       <r>     3.9985    37.6795   157.0301 </r>
       <r>     4.0826    17.6396   159.9300 </r>
       <r>     4.1667    21.6269   161.3243 </r>
       <r>     4.2508    30.4812   163.5789 </r>
       <r>     4.3349    24.1125   166.1925 </r>
       <r>     4.4190    15.9563   167.7305 </r>
       <r>     4.5031    17.8851   169.0794 </r>
       <r>     4.5872    28.7819   171.0284 </r>
       <r>     4.6713    33.7913   174.0075 </r>
       <r>     4.7554    14.8221   175.7919 </r>
       <r>     4.8395    71.9364   179.8181 </r>
       <r>     4.9236     9.1707   183.9253 </r>
       <r>     5.0077    22.8288   185.2098 </r>
       <r>     5.0918    18.6877   186.9607 </r>
       <r>     5.1759    24.9916   188.7892 </r>
       <r>     5.2600    18.0488   190.6563 </r>
       <r>     5.3441    32.7585   192.0649 </r>
       <r>     5.4282    33.4865   195.5030 </r>
       <r>     5.5123    27.2969   198.0832 </r>
       <r>     5.5964    14.9103   199.6763 </r>
       <r>     5.6805    34.7204   202.5447 </r>
       <r>     5.7645    28.6616   204.9861 </r>
       <r>     5.8486    15.7751   206.8135 </r>
       <r>     5.9327    20.0134   208.2129 </r>
       <r>     6.0168    16.7374   209.9099 </r>
       <r>     6.1009     9.0503   211.0732 </r>
       <r>     6.1850     5.2650   211.6633 </r>
       <r>     6.2691     1.7404   211.9375 </r>
       <r>     6.3532     0.0601   211.9996 </r>
       <r>     6.4373     0.0000   212.0000 </r>
       <r>     6.5214     0.0000   212.0000 </r>
       <r>     6.6055     0.0000   212.0000 </r>
       <r>     6.6896     0.0000   212.0000 </r>
       <r>     6.7737     0.0000   212.0000 </r>
       <r>     6.8578     0.0000   212.0000 </r>
       <r>     6.9419     0.0000   212.0000 </r>
       <r>     7.0260     0.0000   212.0000 </r>
       <r>     7.1101     0.0000   212.0000 </r>
       <r>     7.1942     0.0000   212.0000 </r>
       <r>     7.2783     0.0000   212.0000 </r>
       <r>     7.3624     0.0000   212.0000 </r>
       <r>     7.4465     0.0000   212.0000 </r>
       <r>     7.5305     0.0000   212.0000 </r>
       <r>     7.6146     0.0000   212.0000 </r>
       <r>     7.6987     0.0000   212.0000 </r>
       <r>     7.7828     0.0000   212.0000 </r>
       <r>     7.8669     0.0000   212.0000 </r>
       <r>     7.9510     0.0000   212.0000 </r>
       <r>     8.0351     0.0000   212.0000 </r>
       <r>     8.1192     0.0000   212.0000 </r>
       <r>     8.2033     0.0000   212.0000 </r>
       <r>     8.2874     0.0000   212.0000 </r>
       <r>     8.3715     0.0000   212.0000 </r>
      </set>
     </set>
    </array>
   </total>
  </dos>
 </calculation>
 <structure name="finalpos" >
  <crystal>
   <varray name="basis" >
    <v>      11.93752501       0.00000000       0.00000000 </v>
    <v>       0.00000000       8.34991486       0.00000000 </v>
    <v>       0.00000000       0.00000000       8.34471555 </v>
   </varray>
   <i name="volume">    831.77886076 </i>
   <varray name="rec_basis" >
    <v>       0.08376946       0.00000000       0.00000000 </v>
    <v>       0.00000000       0.11976170       0.00000000 </v>
    <v>       0.00000000       0.00000000       0.11983632 </v>
   </varray>
  </crystal>
  <varray name="positions" >
   <v>       0.07499669       0.77876122       0.26077254 </v>
   <v>       0.92500333       0.22123878       0.73922748 </v>
   <v>       0.92500333       0.72123878       0.76077252 </v>
   <v>       0.07499669       0.27876122       0.23922746 </v>
   <v>       0.92500333       0.27876122       0.23922746 </v>
   <v>       0.07499669       0.72123878       0.76077252 </v>
   <v>       0.07499669       0.22123878       0.73922748 </v>
   <v>       0.92500333       0.77876122       0.26077254 </v>
   <v>       0.57499667       0.27876122       0.26077254 </v>
   <v>       0.42500330       0.72123878       0.73922748 </v>
   <v>       0.42500330       0.22123878       0.76077252 </v>
   <v>       0.57499667       0.77876122       0.23922746 </v>
   <v>       0.42500330       0.77876122       0.23922746 </v>
   <v>       0.57499667       0.22123878       0.76077252 </v>
   <v>       0.57499667       0.72123878       0.73922748 </v>
   <v>       0.42500330       0.27876122       0.26077254 </v>
   <v>       0.80240610       0.58264352       0.93199995 </v>
   <v>       0.19759390       0.41735648       0.06800005 </v>
   <v>       0.19759390       0.91735648       0.43199995 </v>
   <v>       0.80240610       0.08264352       0.56800005 </v>
   <v>       0.19759390       0.08264352       0.56800005 </v>
   <v>       0.80240610       0.91735648       0.43199995 </v>
   <v>       0.80240610       0.41735648       0.06800005 </v>
   <v>       0.19759390       0.58264352       0.93199995 </v>
   <v>       0.30240610       0.08264352       0.93199995 </v>
   <v>       0.69759390       0.91735648       0.06800005 </v>
   <v>       0.69759390       0.41735648       0.43199995 </v>
   <v>       0.30240610       0.58264352       0.56800005 </v>
   <v>       0.69759390       0.58264352       0.56800005 </v>
   <v>       0.30240610       0.41735648       0.43199995 </v>
   <v>       0.30240610       0.91735648       0.06800005 </v>
   <v>       0.69759390       0.08264352       0.93199995 </v>
   <v>       0.69639883       0.56809075       0.08282111 </v>
   <v>       0.30360117       0.43190925       0.91717889 </v>
   <v>       0.30360117       0.93190925       0.58282111 </v>
   <v>       0.69639883       0.06809075       0.41717889 </v>
   <v>       0.30360117       0.06809075       0.41717889 </v>
   <v>       0.69639883       0.93190925       0.58282111 </v>
   <v>       0.69639883       0.43190925       0.91717889 </v>
   <v>       0.30360117       0.56809075       0.08282111 </v>
   <v>       0.19639883       0.06809075       0.08282111 </v>
   <v>       0.80360117       0.93190925       0.91717889 </v>
   <v>       0.80360117       0.43190925       0.58282111 </v>
   <v>       0.19639883       0.56809075       0.41717889 </v>
   <v>       0.80360117       0.56809075       0.41717889 </v>
   <v>       0.19639883       0.43190925       0.58282111 </v>
   <v>       0.19639883       0.93190925       0.91717889 </v>
   <v>       0.80360117       0.06809075       0.08282111 </v>
   <v>      -0.00000000       0.60131797       0.20606515 </v>
   <v>      -0.00000000       0.39868203       0.79393482 </v>
   <v>      -0.00000000       0.89868203       0.70606518 </v>
   <v>      -0.00000000       0.10131797       0.29393485 </v>
   <v>       0.50000000       0.10131797       0.20606515 </v>
   <v>       0.50000000       0.89868203       0.79393482 </v>
   <v>       0.50000000       0.39868203       0.70606518 </v>
   <v>       0.50000000       0.60131797       0.29393485 </v>
   <v>      -0.00000000       0.22849488       0.92443697 </v>
   <v>      -0.00000000       0.77150512       0.07556303 </v>
   <v>      -0.00000000       0.27150512       0.42443697 </v>
   <v>      -0.00000000       0.72849488       0.57556303 </v>
   <v>       0.50000000       0.72849488       0.92443697 </v>
   <v>       0.50000000       0.27150512       0.07556303 </v>
   <v>       0.50000000       0.77150512       0.42443697 </v>
   <v>       0.50000000       0.22849488       0.57556303 </v>
   <v>      -0.00000000       0.23241975       0.29915498 </v>
   <v>      -0.00000000       0.76758025       0.70084500 </v>
   <v>      -0.00000000       0.26758025       0.79915500 </v>
   <v>      -0.00000000       0.73241975       0.20084500 </v>
   <v>       0.50000000       0.73241975       0.29915498 </v>
   <v>       0.50000000       0.26758025       0.70084500 </v>
   <v>       0.50000000       0.76758025       0.79915500 </v>
   <v>       0.50000000       0.23241975       0.20084500 </v>
   <v>       0.74931588       0.50000000       0.00000000 </v>
   <v>       0.25068412       0.50000000       0.00000000 </v>
   <v>       0.25068412       0.00000000       0.50000000 </v>
   <v>       0.74931588       0.00000000       0.50000000 </v>
   <v>       0.24931588       0.00000000       0.00000000 </v>
   <v>       0.75068412       0.00000000       0.00000000 </v>
   <v>       0.75068412       0.50000000       0.50000000 </v>
   <v>       0.24931588       0.50000000       0.50000000 </v>
  </varray>
 </structure>
</modeling>
