diamond                                 
           1
    11.937525    0.000000    0.000000
     0.000000    8.349915    0.000000
     0.000000    0.000000    8.344716
   H    C 
  56  16
Direct configuration=     1
   0.80100000  0.57950002  0.93360001
   0.19900000  0.42049998  0.06639999
   0.19900000  0.92049998  0.43360001
   0.80100000  0.07950002  0.56639999
   0.19900000  0.07950002  0.56639999
   0.80100000  0.92049998  0.43360001
   0.80100000  0.42049998  0.06639999
   0.19900000  0.57950002  0.93360001
   0.30100000  0.07950002  0.93360001
   0.69900000  0.92049998  0.06639999
   0.69900000  0.42049998  0.43360001
   0.30100000  0.57950002  0.56639999
   0.69900000  0.57950002  0.56639999
   0.30100000  0.42049998  0.43360001
   0.30100000  0.92049998  0.06639999
   0.69900000  0.07950002  0.93360001
   0.69859999  0.56629997  0.07959998
   0.30140001  0.43370003  0.92040002
   0.30140001  0.93370003  0.57959998
   0.69859999  0.06629997  0.42040002
   0.30140001  0.06629997  0.42040002
   0.69859999  0.93370003  0.57959998
   0.69859999  0.43370003  0.92040002
   0.30140001  0.56629997  0.07959998
   0.19859999  0.06629997  0.07959998
   0.80140001  0.93370003  0.92040002
   0.80140001  0.43370003  0.57959998
   0.19859999  0.56629997  0.42040002
   0.80140001  0.56629997  0.42040002
   0.19859999  0.43370003  0.57959998
   0.19859999  0.93370003  0.92040002
   0.80140001  0.06629997  0.07959998
   0.07280000  0.78549999  0.18230000
   0.92720002  0.21450001  0.81770003
   0.92720002  0.71450001  0.68229997
   0.07280000  0.28549999  0.31770000
   0.92720002  0.28549999  0.31770000
   0.07280000  0.71450001  0.68229997
   0.07280000  0.21450001  0.81770003
   0.92720002  0.78549999  0.18230000
   0.57279998  0.28549999  0.18230000
   0.42719999  0.71450001  0.81770003
   0.42719999  0.21450001  0.68229997
   0.57279998  0.78549999  0.31770000
   0.42719999  0.78549999  0.31770000
   0.57279998  0.21450001  0.68229997
   0.57279998  0.71450001  0.81770003
   0.42719999  0.28549999  0.18230000
   0.00000000  0.60589999  0.19920000
   0.00000000  0.39410001  0.80079997
   0.00000000  0.89410001  0.69920003
   0.00000000  0.10589999  0.30080000
   0.50000000  0.10589999  0.19920000
   0.50000000  0.89410001  0.80079997
   0.50000000  0.39410001  0.69920003
   0.50000000  0.60589999  0.30080000
   0.00000000  0.72960001  0.23029999
   0.00000000  0.27039999  0.76969999
   0.00000000  0.77039999  0.73030001
   0.00000000  0.22960001  0.26969999
   0.50000000  0.22960001  0.23029999
   0.50000000  0.77039999  0.76969999
   0.50000000  0.27039999  0.73030001
   0.50000000  0.72960001  0.26969999
   0.74980003  0.50000000  0.00000000
   0.25019997  0.50000000  0.00000000
   0.25019997  0.00000000  0.50000000
   0.74980003  0.00000000  0.50000000
   0.24980003  0.00000000  0.00000000
   0.75019997  0.00000000  0.00000000
   0.75019997  0.50000000  0.50000000
   0.24980003  0.50000000  0.50000000
Direct configuration=     2
   0.80421493  0.58437823  0.92964804
   0.19578507  0.41562177  0.07035196
   0.19578507  0.91562177  0.42964804
   0.80421493  0.08437823  0.57035196
   0.19578507  0.08437823  0.57035196
   0.80421493  0.91562177  0.42964804
   0.80421493  0.41562177  0.07035196
   0.19578507  0.58437823  0.92964804
   0.30421493  0.08437823  0.92964804
   0.69578507  0.91562177  0.07035196
   0.69578507  0.41562177  0.42964804
   0.30421493  0.58437823  0.57035196
   0.69578507  0.58437823  0.57035196
   0.30421493  0.41562177  0.42964804
   0.30421493  0.91562177  0.07035196
   0.69578507  0.08437823  0.92964804
   0.69539747  0.57043141  0.08442643
   0.30460253  0.42956859  0.91557357
   0.30460253  0.92956859  0.58442643
   0.69539747  0.07043141  0.41557357
   0.30460253  0.07043141  0.41557357
   0.69539747  0.92956859  0.58442643
   0.69539747  0.42956859  0.91557357
   0.30460253  0.57043141  0.08442643
   0.19539747  0.07043141  0.08442643
   0.80460253  0.92956859  0.91557357
   0.80460253  0.42956859  0.58442643
   0.19539747  0.57043141  0.41557357
   0.80460253  0.57043141  0.41557357
   0.19539747  0.42956859  0.58442643
   0.19539747  0.92956859  0.91557357
   0.80460253  0.07043141  0.08442643
   0.07773453  0.78986459  0.18449589
   0.92226549  0.21013541  0.81550414
   0.92226549  0.71013541  0.68449586
   0.07773453  0.28986459  0.31550411
   0.92226549  0.28986459  0.31550411
   0.07773453  0.71013541  0.68449586
   0.07773453  0.21013541  0.81550414
   0.92226549  0.78986459  0.18449589
   0.57773451  0.28986459  0.18449589
   0.42226546  0.71013541  0.81550414
   0.42226546  0.21013541  0.68449586
   0.57773451  0.78986459  0.31550411
   0.42226546  0.78986459  0.31550411
   0.57773451  0.21013541  0.68449586
   0.57773451  0.71013541  0.81550414
   0.42226546  0.28986459  0.18449589
  -0.00000000  0.59805860  0.20262304
  -0.00000000  0.40194140  0.79737693
  -0.00000000  0.90194140  0.70262307
  -0.00000000  0.09805860  0.29737696
   0.50000000  0.09805860  0.20262304
   0.50000000  0.90194140  0.79737693
   0.50000000  0.40194140  0.70262307
   0.50000000  0.59805860  0.29737696
  -0.00000000  0.72899429  0.22240864
  -0.00000000  0.27100571  0.77759134
  -0.00000000  0.77100571  0.72240866
  -0.00000000  0.22899429  0.27759134
   0.50000000  0.22899429  0.22240864
   0.50000000  0.77100571  0.77759134
   0.50000000  0.27100571  0.72240866
   0.50000000  0.72899429  0.27759134
   0.74975700  0.50000000 -0.00000000
   0.25024300  0.50000000 -0.00000000
   0.25024300  0.00000000  0.50000000
   0.74975700  0.00000000  0.50000000
   0.24975700  0.00000000 -0.00000000
   0.75024300  0.00000000 -0.00000000
   0.75024300  0.50000000  0.50000000
   0.24975700  0.50000000  0.50000000
Direct configuration=     3
   0.80370257  0.58360079  0.93027787
   0.19629743  0.41639921  0.06972213
   0.19629743  0.91639921  0.43027787
   0.80370257  0.08360079  0.56972213
   0.19629743  0.08360079  0.56972213
   0.80370257  0.91639921  0.43027787
   0.80370257  0.41639921  0.06972213
   0.19629743  0.58360079  0.93027787
   0.30370257  0.08360079  0.93027787
   0.69629743  0.91639921  0.06972213
   0.69629743  0.41639921  0.43027787
   0.30370257  0.58360079  0.56972213
   0.69629743  0.58360079  0.56972213
   0.30370257  0.41639921  0.43027787
   0.30370257  0.91639921  0.06972213
   0.69629743  0.08360079  0.93027787
   0.69590786  0.56977298  0.08365723
   0.30409214  0.43022702  0.91634277
   0.30409214  0.93022702  0.58365723
   0.69590786  0.06977298  0.41634277
   0.30409214  0.06977298  0.41634277
   0.69590786  0.93022702  0.58365723
   0.69590786  0.43022702  0.91634277
   0.30409214  0.56977298  0.08365723
   0.19590786  0.06977298  0.08365723
   0.80409214  0.93022702  0.91634277
   0.80409214  0.43022702  0.58365723
   0.19590786  0.56977298  0.41634277
   0.80409214  0.56977298  0.41634277
   0.19590786  0.43022702  0.58365723
   0.19590786  0.93022702  0.91634277
   0.80409214  0.06977298  0.08365723
   0.07694811  0.78916900  0.18414593
   0.92305191  0.21083100  0.81585410
   0.92305191  0.71083100  0.68414590
   0.07694811  0.28916900  0.31585407
   0.92305191  0.28916900  0.31585407
   0.07694811  0.71083100  0.68414590
   0.07694811  0.21083100  0.81585410
   0.92305191  0.78916900  0.18414593
   0.57694809  0.28916900  0.18414593
   0.42305188  0.71083100  0.81585410
   0.42305188  0.21083100  0.68414590
   0.57694809  0.78916900  0.31585407
   0.42305188  0.78916900  0.31585407
   0.57694809  0.21083100  0.68414590
   0.57694809  0.71083100  0.81585410
   0.42305188  0.28916900  0.18414593
  -0.00000000  0.59930829  0.20207751
  -0.00000000  0.40069171  0.79792246
  -0.00000000  0.90069171  0.70207754
  -0.00000000  0.09930829  0.29792249
   0.50000000  0.09930829  0.20207751
   0.50000000  0.90069171  0.79792246
   0.50000000  0.40069171  0.70207754
   0.50000000  0.59930829  0.29792249
  -0.00000000  0.72909082  0.22366630
  -0.00000000  0.27090918  0.77633369
  -0.00000000  0.77090918  0.72366631
  -0.00000000  0.22909082  0.27633369
   0.50000000  0.22909082  0.22366630
   0.50000000  0.77090918  0.77633369
   0.50000000  0.27090918  0.72366631
   0.50000000  0.72909082  0.27633369
   0.74976386  0.50000000 -0.00000000
   0.25023614  0.50000000 -0.00000000
   0.25023614  0.00000000  0.50000000
   0.74976386  0.00000000  0.50000000
   0.24976386  0.00000000 -0.00000000
   0.75023614  0.00000000 -0.00000000
   0.75023614  0.50000000  0.50000000
   0.24976386  0.50000000  0.50000000
Direct configuration=     4
   0.80343332  0.58304758  0.93090929
   0.19656668  0.41695242  0.06909071
   0.19656668  0.91695242  0.43090929
   0.80343332  0.08304758  0.56909071
   0.19656668  0.08304758  0.56909071
   0.80343332  0.91695242  0.43090929
   0.80343332  0.41695242  0.06909071
   0.19656668  0.58304758  0.93090929
   0.30343332  0.08304758  0.93090929
   0.69656668  0.91695242  0.06909071
   0.69656668  0.41695242  0.43090929
   0.30343332  0.58304758  0.56909071
   0.69656668  0.58304758  0.56909071
   0.30343332  0.41695242  0.43090929
   0.30343332  0.91695242  0.06909071
   0.69656668  0.08304758  0.93090929
   0.69617183  0.56940046  0.08303816
   0.30382817  0.43059954  0.91696184
   0.30382817  0.93059954  0.58303816
   0.69617183  0.06940046  0.41696184
   0.30382817  0.06940046  0.41696184
   0.69617183  0.93059954  0.58303816
   0.69617183  0.43059954  0.91696184
   0.30382817  0.56940046  0.08303816
   0.19617183  0.06940046  0.08303816
   0.80382817  0.93059954  0.91696184
   0.80382817  0.43059954  0.58303816
   0.19617183  0.56940046  0.41696184
   0.80382817  0.56940046  0.41696184
   0.19617183  0.43059954  0.58303816
   0.19617183  0.93059954  0.91696184
   0.80382817  0.06940046  0.08303816
   0.07833132  0.79072761  0.18761274
   0.92166871  0.20927239  0.81238729
   0.92166871  0.70927239  0.68761271
   0.07833132  0.29072761  0.31238726
   0.92166871  0.29072761  0.31238726
   0.07833132  0.70927239  0.68761271
   0.07833132  0.20927239  0.81238729
   0.92166871  0.79072761  0.18761274
   0.57833129  0.29072761  0.18761274
   0.42166868  0.70927239  0.81238729
   0.42166868  0.20927239  0.68761271
   0.57833129  0.79072761  0.31238726
   0.42166868  0.79072761  0.31238726
   0.57833129  0.20927239  0.68761271
   0.57833129  0.70927239  0.81238729
   0.42166868  0.29072761  0.18761274
  -0.00000000  0.59752959  0.20598497
  -0.00000000  0.40247041  0.79401500
  -0.00000000  0.90247041  0.70598500
  -0.00000000  0.09752959  0.29401503
   0.50000000  0.09752959  0.20598497
   0.50000000  0.90247041  0.79401500
   0.50000000  0.40247041  0.70598500
   0.50000000  0.59752959  0.29401503
  -0.00000000  0.72809748  0.21264897
  -0.00000000  0.27190252  0.78735101
  -0.00000000  0.77190252  0.71264899
  -0.00000000  0.22809748  0.28735101
   0.50000000  0.22809748  0.21264897
   0.50000000  0.77190252  0.78735101
   0.50000000  0.27190252  0.71264899
   0.50000000  0.72809748  0.28735101
   0.74974077  0.50000000 -0.00000000
   0.25025923  0.50000000 -0.00000000
   0.25025923  0.00000000  0.50000000
   0.74974077  0.00000000  0.50000000
   0.24974077  0.00000000 -0.00000000
   0.75025923  0.00000000 -0.00000000
   0.75025923  0.50000000  0.50000000
   0.24974077  0.50000000  0.50000000
Direct configuration=     5
   0.80306394  0.58228867  0.93177550
   0.19693606  0.41771133  0.06822450
   0.19693606  0.91771133  0.43177550
   0.80306394  0.08228867  0.56822450
   0.19693606  0.08228867  0.56822450
   0.80306394  0.91771133  0.43177550
   0.80306394  0.41771133  0.06822450
   0.19693606  0.58228867  0.93177550
   0.30306394  0.08228867  0.93177550
   0.69693606  0.91771133  0.06822450
   0.69693606  0.41771133  0.43177550
   0.30306394  0.58228867  0.56822450
   0.69693606  0.58228867  0.56822450
   0.30306394  0.41771133  0.43177550
   0.30306394  0.91771133  0.06822450
   0.69693606  0.08228867  0.93177550
   0.69653395  0.56888941  0.08218888
   0.30346605  0.43111059  0.91781112
   0.30346605  0.93111059  0.58218888
   0.69653395  0.06888941  0.41781112
   0.30346605  0.06888941  0.41781112
   0.69653395  0.93111059  0.58218888
   0.69653395  0.43111059  0.91781112
   0.30346605  0.56888941  0.08218888
   0.19653395  0.06888941  0.08218888
   0.80346605  0.93111059  0.91781112
   0.80346605  0.43111059  0.58218888
   0.19653395  0.56888941  0.41781112
   0.80346605  0.56888941  0.41781112
   0.19653395  0.43111059  0.58218888
   0.19653395  0.93111059  0.91781112
   0.80346605  0.06888941  0.08218888
   0.08022887  0.79286579  0.19236871
   0.91977115  0.20713421  0.80763132
   0.91977115  0.70713421  0.69236868
   0.08022887  0.29286579  0.30763129
   0.91977115  0.29286579  0.30763129
   0.08022887  0.70713421  0.69236868
   0.08022887  0.20713421  0.80763132
   0.91977115  0.79286579  0.19236871
   0.58022885  0.29286579  0.19236871
   0.41977112  0.70713421  0.80763132
   0.41977112  0.20713421  0.69236868
   0.58022885  0.79286579  0.30763129
   0.41977112  0.79286579  0.30763129
   0.58022885  0.20713421  0.69236868
   0.58022885  0.70713421  0.80763132
   0.41977112  0.29286579  0.19236871
  -0.00000000  0.59508947  0.21134543
  -0.00000000  0.40491053  0.78865454
  -0.00000000  0.90491053  0.71134546
  -0.00000000  0.09508947  0.28865457
   0.50000000  0.09508947  0.21134543
   0.50000000  0.90491053  0.78865454
   0.50000000  0.40491053  0.71134546
   0.50000000  0.59508947  0.28865457
  -0.00000000  0.72673475  0.19753481
  -0.00000000  0.27326525  0.80246517
  -0.00000000  0.77326525  0.69753483
  -0.00000000  0.22673475  0.30246517
   0.50000000  0.22673475  0.19753481
   0.50000000  0.77326525  0.80246517
   0.50000000  0.27326525  0.69753483
   0.50000000  0.72673475  0.30246517
   0.74970908  0.50000000 -0.00000000
   0.25029092  0.50000000 -0.00000000
   0.25029092  0.00000000  0.50000000
   0.74970908  0.00000000  0.50000000
   0.24970908  0.00000000 -0.00000000
   0.75029092  0.00000000 -0.00000000
   0.75029092  0.50000000  0.50000000
   0.24970908  0.50000000  0.50000000
Direct configuration=     6
   0.80319338  0.58255461  0.93147195
   0.19680662  0.41744539  0.06852805
   0.19680662  0.91744539  0.43147195
   0.80319338  0.08255461  0.56852805
   0.19680662  0.08255461  0.56852805
   0.80319338  0.91744539  0.43147195
   0.80319338  0.41744539  0.06852805
   0.19680662  0.58255461  0.93147195
   0.30319338  0.08255461  0.93147195
   0.69680662  0.91744539  0.06852805
   0.69680662  0.41744539  0.43147195
   0.30319338  0.58255461  0.56852805
   0.69680662  0.58255461  0.56852805
   0.30319338  0.41744539  0.43147195
   0.30319338  0.91744539  0.06852805
   0.69680662  0.08255461  0.93147195
   0.69640705  0.56906850  0.08248649
   0.30359295  0.43093150  0.91751351
   0.30359295  0.93093150  0.58248649
   0.69640705  0.06906850  0.41751351
   0.30359295  0.06906850  0.41751351
   0.69640705  0.93093150  0.58248649
   0.69640705  0.43093150  0.91751351
   0.30359295  0.56906850  0.08248649
   0.19640705  0.06906850  0.08248649
   0.80359295  0.93093150  0.91751351
   0.80359295  0.43093150  0.58248649
   0.19640705  0.56906850  0.41751351
   0.80359295  0.56906850  0.41751351
   0.19640705  0.43093150  0.58248649
   0.19640705  0.93093150  0.91751351
   0.80359295  0.06906850  0.08248649
   0.07956392  0.79211651  0.19070209
   0.92043610  0.20788349  0.80929794
   0.92043610  0.70788349  0.69070206
   0.07956392  0.29211651  0.30929791
   0.92043610  0.29211651  0.30929791
   0.07956392  0.70788349  0.69070206
   0.07956392  0.20788349  0.80929794
   0.92043610  0.79211651  0.19070209
   0.57956390  0.29211651  0.19070209
   0.42043607  0.70788349  0.80929794
   0.42043607  0.20788349  0.69070206
   0.57956390  0.79211651  0.30929791
   0.42043607  0.79211651  0.30929791
   0.57956390  0.20788349  0.69070206
   0.57956390  0.70788349  0.80929794
   0.42043607  0.29211651  0.19070209
  -0.00000000  0.59594456  0.20946698
  -0.00000000  0.40405544  0.79053299
  -0.00000000  0.90405544  0.70946701
  -0.00000000  0.09594456  0.29053302
   0.50000000  0.09594456  0.20946698
   0.50000000  0.90405544  0.79053299
   0.50000000  0.40405544  0.70946701
   0.50000000  0.59594456  0.29053302
  -0.00000000  0.72721229  0.20283122
  -0.00000000  0.27278771  0.79716876
  -0.00000000  0.77278771  0.70283124
  -0.00000000  0.22721229  0.29716876
   0.50000000  0.22721229  0.20283122
   0.50000000  0.77278771  0.79716876
   0.50000000  0.27278771  0.70283124
   0.50000000  0.72721229  0.29716876
   0.74972019  0.50000000 -0.00000000
   0.25027981  0.50000000 -0.00000000
   0.25027981  0.00000000  0.50000000
   0.74972019  0.00000000  0.50000000
   0.24972019  0.00000000 -0.00000000
   0.75027981  0.00000000 -0.00000000
   0.75027981  0.50000000  0.50000000
   0.24972019  0.50000000  0.50000000
Direct configuration=     7
   0.80292435  0.58208873  0.93197796
   0.19707565  0.41791127  0.06802204
   0.19707565  0.91791127  0.43197796
   0.80292435  0.08208873  0.56802204
   0.19707565  0.08208873  0.56802204
   0.80292435  0.91791127  0.43197796
   0.80292435  0.41791127  0.06802204
   0.19707565  0.58208873  0.93197796
   0.30292435  0.08208873  0.93197796
   0.69707565  0.91791127  0.06802204
   0.69707565  0.41791127  0.43197796
   0.30292435  0.58208873  0.56802204
   0.69707565  0.58208873  0.56802204
   0.30292435  0.41791127  0.43197796
   0.30292435  0.91791127  0.06802204
   0.69707565  0.08208873  0.93197796
   0.69672786  0.56864669  0.08188882
   0.30327214  0.43135331  0.91811118
   0.30327214  0.93135331  0.58188882
   0.69672786  0.06864669  0.41811118
   0.30327214  0.06864669  0.41811118
   0.69672786  0.93135331  0.58188882
   0.69672786  0.43135331  0.91811118
   0.30327214  0.56864669  0.08188882
   0.19672786  0.06864669  0.08188882
   0.80327214  0.93135331  0.91811118
   0.80327214  0.43135331  0.58188882
   0.19672786  0.56864669  0.41811118
   0.80327214  0.56864669  0.41811118
   0.19672786  0.43135331  0.58188882
   0.19672786  0.93135331  0.91811118
   0.80327214  0.06864669  0.08188882
   0.07799042  0.79084332  0.19106634
   0.92200960  0.20915668  0.80893369
   0.92200960  0.70915668  0.69106631
   0.07799042  0.29084332  0.30893366
   0.92200960  0.29084332  0.30893366
   0.07799042  0.70915668  0.69106631
   0.07799042  0.20915668  0.80893369
   0.92200960  0.79084332  0.19106634
   0.57799040  0.29084332  0.19106634
   0.42200957  0.70915668  0.80893369
   0.42200957  0.20915668  0.69106631
   0.57799040  0.79084332  0.30893366
   0.42200957  0.79084332  0.30893366
   0.57799040  0.20915668  0.69106631
   0.57799040  0.70915668  0.80893369
   0.42200957  0.29084332  0.19106634
  -0.00000000  0.59837596  0.20946689
  -0.00000000  0.40162404  0.79053308
  -0.00000000  0.90162404  0.70946692
  -0.00000000  0.09837596  0.29053311
   0.50000000  0.09837596  0.20946689
   0.50000000  0.90162404  0.79053308
   0.50000000  0.40162404  0.70946692
   0.50000000  0.59837596  0.29053311
  -0.00000000  0.72763779  0.20187168
  -0.00000000  0.27236221  0.79812831
  -0.00000000  0.77236221  0.70187169
  -0.00000000  0.22763779  0.29812831
   0.50000000  0.22763779  0.20187168
   0.50000000  0.77236221  0.79812831
   0.50000000  0.27236221  0.70187169
   0.50000000  0.72763779  0.29812831
   0.74955963  0.50000000 -0.00000000
   0.25044037  0.50000000 -0.00000000
   0.25044037  0.00000000  0.50000000
   0.74955963  0.00000000  0.50000000
   0.24955963  0.00000000 -0.00000000
   0.75044037  0.00000000 -0.00000000
   0.75044037  0.50000000  0.50000000
   0.24955963  0.50000000  0.50000000
Direct configuration=     8
   0.80304629  0.58229990  0.93174860
   0.19695371  0.41770010  0.06825140
   0.19695371  0.91770010  0.43174860
   0.80304629  0.08229990  0.56825140
   0.19695371  0.08229990  0.56825140
   0.80304629  0.91770010  0.43174860
   0.80304629  0.41770010  0.06825140
   0.19695371  0.58229990  0.93174860
   0.30304629  0.08229990  0.93174860
   0.69695371  0.91770010  0.06825140
   0.69695371  0.41770010  0.43174860
   0.30304629  0.58229990  0.56825140
   0.69695371  0.58229990  0.56825140
   0.30304629  0.41770010  0.43174860
   0.30304629  0.91770010  0.06825140
   0.69695371  0.08229990  0.93174860
   0.69658245  0.56883788  0.08215973
   0.30341755  0.43116212  0.91784027
   0.30341755  0.93116212  0.58215973
   0.69658245  0.06883788  0.41784027
   0.30341755  0.06883788  0.41784027
   0.69658245  0.93116212  0.58215973
   0.69658245  0.43116212  0.91784027
   0.30341755  0.56883788  0.08215973
   0.19658245  0.06883788  0.08215973
   0.80341755  0.93116212  0.91784027
   0.80341755  0.43116212  0.58215973
   0.19658245  0.56883788  0.41784027
   0.80341755  0.56883788  0.41784027
   0.19658245  0.43116212  0.58215973
   0.19658245  0.93116212  0.91784027
   0.80341755  0.06883788  0.08215973
   0.07870365  0.79142043  0.19090124
   0.92129637  0.20857957  0.80909879
   0.92129637  0.70857957  0.69090121
   0.07870365  0.29142043  0.30909876
   0.92129637  0.29142043  0.30909876
   0.07870365  0.70857957  0.69090121
   0.07870365  0.20857957  0.80909879
   0.92129637  0.79142043  0.19090124
   0.57870363  0.29142043  0.19090124
   0.42129634  0.70857957  0.80909879
   0.42129634  0.20857957  0.69090121
   0.57870363  0.79142043  0.30909876
   0.42129634  0.79142043  0.30909876
   0.57870363  0.20857957  0.69090121
   0.57870363  0.70857957  0.80909879
   0.42129634  0.29142043  0.19090124
  -0.00000000  0.59727386  0.20946693
  -0.00000000  0.40272614  0.79053304
  -0.00000000  0.90272614  0.70946696
  -0.00000000  0.09727386  0.29053307
   0.50000000  0.09727386  0.20946693
   0.50000000  0.90272614  0.79053304
   0.50000000  0.40272614  0.70946696
   0.50000000  0.59727386  0.29053307
  -0.00000000  0.72744492  0.20230662
  -0.00000000  0.27255508  0.79769337
  -0.00000000  0.77255508  0.70230663
  -0.00000000  0.22744492  0.29769337
   0.50000000  0.22744492  0.20230662
   0.50000000  0.77255508  0.79769337
   0.50000000  0.27255508  0.70230663
   0.50000000  0.72744492  0.29769337
   0.74963241  0.50000000 -0.00000000
   0.25036759  0.50000000 -0.00000000
   0.25036759  0.00000000  0.50000000
   0.74963241  0.00000000  0.50000000
   0.24963241  0.00000000 -0.00000000
   0.75036759  0.00000000 -0.00000000
   0.75036759  0.50000000  0.50000000
   0.24963241  0.50000000  0.50000000
Direct configuration=     9
   0.80299164  0.58220354  0.93191883
   0.19700836  0.41779646  0.06808117
   0.19700836  0.91779646  0.43191883
   0.80299164  0.08220354  0.56808117
   0.19700836  0.08220354  0.56808117
   0.80299164  0.91779646  0.43191883
   0.80299164  0.41779646  0.06808117
   0.19700836  0.58220354  0.93191883
   0.30299164  0.08220354  0.93191883
   0.69700836  0.91779646  0.06808117
   0.69700836  0.41779646  0.43191883
   0.30299164  0.58220354  0.56808117
   0.69700836  0.58220354  0.56808117
   0.30299164  0.41779646  0.43191883
   0.30299164  0.91779646  0.06808117
   0.69700836  0.08220354  0.93191883
   0.69654891  0.56885360  0.08211550
   0.30345109  0.43114640  0.91788450
   0.30345109  0.93114640  0.58211550
   0.69654891  0.06885360  0.41788450
   0.30345109  0.06885360  0.41788450
   0.69654891  0.93114640  0.58211550
   0.69654891  0.43114640  0.91788450
   0.30345109  0.56885360  0.08211550
   0.19654891  0.06885360  0.08211550
   0.80345109  0.93114640  0.91788450
   0.80345109  0.43114640  0.58211550
   0.19654891  0.56885360  0.41788450
   0.80345109  0.56885360  0.41788450
   0.19654891  0.43114640  0.58211550
   0.19654891  0.93114640  0.91788450
   0.80345109  0.06885360  0.08211550
   0.07879442  0.79157680  0.19108431
   0.92120560  0.20842320  0.80891572
   0.92120560  0.70842320  0.69108428
   0.07879442  0.29157680  0.30891569
   0.92120560  0.29157680  0.30891569
   0.07879442  0.70842320  0.69108428
   0.07879442  0.20842320  0.80891572
   0.92120560  0.79157680  0.19108431
   0.57879440  0.29157680  0.19108431
   0.42120557  0.70842320  0.80891572
   0.42120557  0.20842320  0.69108428
   0.57879440  0.79157680  0.30891569
   0.42120557  0.79157680  0.30891569
   0.57879440  0.20842320  0.69108428
   0.57879440  0.70842320  0.80891572
   0.42120557  0.29157680  0.19108431
  -0.00000000  0.59780873  0.20963942
  -0.00000000  0.40219127  0.79036055
  -0.00000000  0.90219127  0.70963945
  -0.00000000  0.09780873  0.29036058
   0.50000000  0.09780873  0.20963942
   0.50000000  0.90219127  0.79036055
   0.50000000  0.40219127  0.70963945
   0.50000000  0.59780873  0.29036058
  -0.00000000  0.72690640  0.20154939
  -0.00000000  0.27309360  0.79845059
  -0.00000000  0.77309360  0.70154941
  -0.00000000  0.22690640  0.29845059
   0.50000000  0.22690640  0.20154939
   0.50000000  0.77309360  0.79845059
   0.50000000  0.27309360  0.70154941
   0.50000000  0.72690640  0.29845059
   0.74975368  0.50000000 -0.00000000
   0.25024632  0.50000000 -0.00000000
   0.25024632  0.00000000  0.50000000
   0.74975368  0.00000000  0.50000000
   0.24975368  0.00000000 -0.00000000
   0.75024632  0.00000000 -0.00000000
   0.75024632  0.50000000  0.50000000
   0.24975368  0.50000000  0.50000000
Direct configuration=    10
   0.80301957  0.58225278  0.93183183
   0.19698043  0.41774722  0.06816817
   0.19698043  0.91774722  0.43183183
   0.80301957  0.08225278  0.56816817
   0.19698043  0.08225278  0.56816817
   0.80301957  0.91774722  0.43183183
   0.80301957  0.41774722  0.06816817
   0.19698043  0.58225278  0.93183183
   0.30301957  0.08225278  0.93183183
   0.69698043  0.91774722  0.06816817
   0.69698043  0.41774722  0.43183183
   0.30301957  0.58225278  0.56816817
   0.69698043  0.58225278  0.56816817
   0.30301957  0.41774722  0.43183183
   0.30301957  0.91774722  0.06816817
   0.69698043  0.08225278  0.93183183
   0.69656605  0.56884557  0.08213810
   0.30343395  0.43115443  0.91786190
   0.30343395  0.93115443  0.58213810
   0.69656605  0.06884557  0.41786190
   0.30343395  0.06884557  0.41786190
   0.69656605  0.93115443  0.58213810
   0.69656605  0.43115443  0.91786190
   0.30343395  0.56884557  0.08213810
   0.19656605  0.06884557  0.08213810
   0.80343395  0.93115443  0.91786190
   0.80343395  0.43115443  0.58213810
   0.19656605  0.56884557  0.41786190
   0.80343395  0.56884557  0.41786190
   0.19656605  0.43115443  0.58213810
   0.19656605  0.93115443  0.91786190
   0.80343395  0.06884557  0.08213810
   0.07874804  0.79149689  0.19099075
   0.92125198  0.20850311  0.80900927
   0.92125198  0.70850311  0.69099073
   0.07874804  0.29149689  0.30900925
   0.92125198  0.29149689  0.30900925
   0.07874804  0.70850311  0.69099073
   0.07874804  0.20850311  0.80900927
   0.92125198  0.79149689  0.19099075
   0.57874802  0.29149689  0.19099075
   0.42125196  0.70850311  0.80900927
   0.42125196  0.20850311  0.69099073
   0.57874802  0.79149689  0.30900925
   0.42125196  0.79149689  0.30900925
   0.57874802  0.20850311  0.69099073
   0.57874802  0.70850311  0.80900927
   0.42125196  0.29149689  0.19099075
  -0.00000000  0.59753539  0.20955127
  -0.00000000  0.40246461  0.79044870
  -0.00000000  0.90246461  0.70955130
  -0.00000000  0.09753539  0.29044873
   0.50000000  0.09753539  0.20955127
   0.50000000  0.90246461  0.79044870
   0.50000000  0.40246461  0.70955130
   0.50000000  0.59753539  0.29044873
  -0.00000000  0.72718161  0.20193636
  -0.00000000  0.27281839  0.79806362
  -0.00000000  0.77281839  0.70193638
  -0.00000000  0.22718161  0.29806362
   0.50000000  0.22718161  0.20193636
   0.50000000  0.77281839  0.79806362
   0.50000000  0.27281839  0.70193638
   0.50000000  0.72718161  0.29806362
   0.74969170  0.50000000 -0.00000000
   0.25030830  0.50000000 -0.00000000
   0.25030830  0.00000000  0.50000000
   0.74969170  0.00000000  0.50000000
   0.24969170  0.00000000 -0.00000000
   0.75030830  0.00000000 -0.00000000
   0.75030830  0.50000000  0.50000000
   0.24969170  0.50000000  0.50000000
Direct configuration=    11
   0.80301936  0.58223882  0.93192129
   0.19698064  0.41776118  0.06807871
   0.19698064  0.91776118  0.43192129
   0.80301936  0.08223882  0.56807871
   0.19698064  0.08223882  0.56807871
   0.80301936  0.91776118  0.43192129
   0.80301936  0.41776118  0.06807871
   0.19698064  0.58223882  0.93192129
   0.30301936  0.08223882  0.93192129
   0.69698064  0.91776118  0.06807871
   0.69698064  0.41776118  0.43192129
   0.30301936  0.58223882  0.56807871
   0.69698064  0.58223882  0.56807871
   0.30301936  0.41776118  0.43192129
   0.30301936  0.91776118  0.06807871
   0.69698064  0.08223882  0.93192129
   0.69654644  0.56885185  0.08209502
   0.30345356  0.43114815  0.91790498
   0.30345356  0.93114815  0.58209502
   0.69654644  0.06885185  0.41790498
   0.30345356  0.06885185  0.41790498
   0.69654644  0.93114815  0.58209502
   0.69654644  0.43114815  0.91790498
   0.30345356  0.56885185  0.08209502
   0.19654644  0.06885185  0.08209502
   0.80345356  0.93114815  0.91790498
   0.80345356  0.43114815  0.58209502
   0.19654644  0.56885185  0.41790498
   0.80345356  0.56885185  0.41790498
   0.19654644  0.43114815  0.58209502
   0.19654644  0.93114815  0.91790498
   0.80345356  0.06885185  0.08209502
   0.07879067  0.79158428  0.19115888
   0.92120935  0.20841572  0.80884115
   0.92120935  0.70841572  0.69115885
   0.07879067  0.29158428  0.30884112
   0.92120935  0.29158428  0.30884112
   0.07879067  0.70841572  0.69115885
   0.07879067  0.20841572  0.80884115
   0.92120935  0.79158428  0.19115888
   0.57879065  0.29158428  0.19115888
   0.42120932  0.70841572  0.80884115
   0.42120932  0.20841572  0.69115885
   0.57879065  0.79158428  0.30884112
   0.42120932  0.79158428  0.30884112
   0.57879065  0.20841572  0.69115885
   0.57879065  0.70841572  0.80884115
   0.42120932  0.29158428  0.19115888
  -0.00000000  0.59757021  0.20972618
  -0.00000000  0.40242979  0.79027379
  -0.00000000  0.90242979  0.70972621
  -0.00000000  0.09757021  0.29027382
   0.50000000  0.09757021  0.20972618
   0.50000000  0.90242979  0.79027379
   0.50000000  0.40242979  0.70972621
   0.50000000  0.59757021  0.29027382