diamond                                 
           1
    11.937525    0.000000    0.000000
     0.000000    8.349915    0.000000
     0.000000    0.000000    8.344716
   H    C 
  64  16
Direct configuration=     1
   0.07280000  0.78549999  0.18230000
   0.92720002  0.21450001  0.81770003
   0.92720002  0.71450001  0.68229997
   0.07280000  0.28549999  0.31770000
   0.92720002  0.28549999  0.31770000
   0.07280000  0.71450001  0.68229997
   0.07280000  0.21450001  0.81770003
   0.92720002  0.78549999  0.18230000
   0.57279998  0.28549999  0.18230000
   0.42719999  0.71450001  0.81770003
   0.42719999  0.21450001  0.68229997
   0.57279998  0.78549999  0.31770000
   0.42719999  0.78549999  0.31770000
   0.57279998  0.21450001  0.68229997
   0.57279998  0.71450001  0.81770003
   0.42719999  0.28549999  0.18230000
   0.80100000  0.57950002  0.93360001
   0.19900000  0.42049998  0.06639999
   0.19900000  0.92049998  0.43360001
   0.80100000  0.07950002  0.56639999
   0.19900000  0.07950002  0.56639999
   0.80100000  0.92049998  0.43360001
   0.80100000  0.42049998  0.06639999
   0.19900000  0.57950002  0.93360001
   0.30100000  0.07950002  0.93360001
   0.69900000  0.92049998  0.06639999
   0.69900000  0.42049998  0.43360001
   0.30100000  0.57950002  0.56639999
   0.69900000  0.57950002  0.56639999
   0.30100000  0.42049998  0.43360001
   0.30100000  0.92049998  0.06639999
   0.69900000  0.07950002  0.93360001
   0.69859999  0.56629997  0.07959998
   0.30140001  0.43370003  0.92040002
   0.30140001  0.93370003  0.57959998
   0.69859999  0.06629997  0.42040002
   0.30140001  0.06629997  0.42040002
   0.69859999  0.93370003  0.57959998
   0.69859999  0.43370003  0.92040002
   0.30140001  0.56629997  0.07959998
   0.19859999  0.06629997  0.07959998
   0.80140001  0.93370003  0.92040002
   0.80140001  0.43370003  0.57959998
   0.19859999  0.56629997  0.42040002
   0.80140001  0.56629997  0.42040002
   0.19859999  0.43370003  0.57959998
   0.19859999  0.93370003  0.92040002
   0.80140001  0.06629997  0.07959998
   0.00000000  0.60589999  0.19920000
   0.00000000  0.39410001  0.80079997
   0.00000000  0.89410001  0.69920003
   0.00000000  0.10589999  0.30080000
   0.50000000  0.10589999  0.19920000
   0.50000000  0.89410001  0.80079997
   0.50000000  0.39410001  0.69920003
   0.50000000  0.60589999  0.30080000
   0.00000000  0.74159998  0.78549999
   0.00000000  0.25840002  0.21450001
   0.00000000  0.75840002  0.28549999
   0.00000000  0.24159998  0.71450001
   0.50000000  0.24159998  0.78549999
   0.50000000  0.75840002  0.21450001
   0.50000000  0.25840002  0.28549999
   0.50000000  0.74159998  0.71450001
   0.00000000  0.72960001  0.23029999
   0.00000000  0.27039999  0.76969999
   0.00000000  0.77039999  0.73030001
   0.00000000  0.22960001  0.26969999
   0.50000000  0.22960001  0.23029999
   0.50000000  0.77039999  0.76969999
   0.50000000  0.27039999  0.73030001
   0.50000000  0.72960001  0.26969999
   0.74980003  0.50000000  0.00000000
   0.25019997  0.50000000  0.00000000
   0.25019997  0.00000000  0.50000000
   0.74980003  0.00000000  0.50000000
   0.24980003  0.00000000  0.00000000
   0.75019997  0.00000000  0.00000000
   0.75019997  0.50000000  0.50000000
   0.24980003  0.50000000  0.50000000
Direct configuration=     2
   0.07575623  0.78652290  0.17371915
   0.92424379  0.21347710  0.82628088
   0.92424379  0.71347710  0.67371912
   0.07575623  0.28652290  0.32628085
   0.92424379  0.28652290  0.32628085
   0.07575623  0.71347710  0.67371912
   0.07575623  0.21347710  0.82628088
   0.92424379  0.78652290  0.17371915
   0.57575621  0.28652290  0.17371915
   0.42424376  0.71347710  0.82628088
   0.42424376  0.21347710  0.67371912
   0.57575621  0.78652290  0.32628085
   0.42424376  0.78652290  0.32628085
   0.57575621  0.21347710  0.67371912
   0.57575621  0.71347710  0.82628088
   0.42424376  0.28652290  0.17371915
   0.80414145  0.58437713  0.92960499
   0.19585855  0.41562287  0.07039501
   0.19585855  0.91562287  0.42960499
   0.80414145  0.08437713  0.57039501
   0.19585855  0.08437713  0.57039501
   0.80414145  0.91562287  0.42960499
   0.80414145  0.41562287  0.07039501
   0.19585855  0.58437713  0.92960499
   0.30414145  0.08437713  0.92960499
   0.69585855  0.91562287  0.07039501
   0.69585855  0.41562287  0.42960499
   0.30414145  0.58437713  0.57039501
   0.69585855  0.58437713  0.57039501
   0.30414145  0.41562287  0.42960499
   0.30414145  0.91562287  0.07039501
   0.69585855  0.08437713  0.92960499
   0.69546871  0.57035754  0.08441150
   0.30453129  0.42964246  0.91558850
   0.30453129  0.92964246  0.58441150
   0.69546871  0.07035754  0.41558850
   0.30453129  0.07035754  0.41558850
   0.69546871  0.92964246  0.58441150
   0.69546871  0.42964246  0.91558850
   0.30453129  0.57035754  0.08441150
   0.19546871  0.07035754  0.08441150
   0.80453129  0.92964246  0.91558850
   0.80453129  0.42964246  0.58441150
   0.19546871  0.57035754  0.41558850
   0.80453129  0.57035754  0.41558850
   0.19546871  0.42964246  0.58441150
   0.19546871  0.92964246  0.91558850
   0.80453129  0.07035754  0.08441150
  -0.00000000  0.60246777  0.20305606
  -0.00000000  0.39753223  0.79694391
  -0.00000000  0.89753223  0.70305609
  -0.00000000  0.10246777  0.29694394
   0.50000000  0.10246777  0.20305606
   0.50000000  0.89753223  0.79694391
   0.50000000  0.39753223  0.70305609
   0.50000000  0.60246777  0.29694394
  -0.00000000  0.36054112  0.56592468
  -0.00000000  0.63945888 -0.56592468
  -0.00000000  0.13945888  0.06592468
  -0.00000000 -0.13945888 -0.06592468
   0.50000000 -0.13945888  0.56592468
   0.50000000  0.13945888 -0.56592468
   0.50000000  0.63945888  0.06592468
   0.50000000  0.36054112 -0.06592468
  -0.00000000  0.34992780 -0.53682992
  -0.00000000  0.65007220  0.53682991
  -0.00000000  0.15007220 -0.03682991
  -0.00000000 -0.15007220  0.03682991
   0.50000000 -0.15007220 -0.53682992
   0.50000000  0.15007220  0.53682991
   0.50000000  0.65007220 -0.03682991
   0.50000000  0.34992780  0.03682991
   0.74978910  0.50000000 -0.00000000
   0.25021090  0.50000000 -0.00000000
   0.25021090  0.00000000  0.50000000
   0.74978910  0.00000000  0.50000000
   0.24978910  0.00000000 -0.00000000
   0.75021090  0.00000000 -0.00000000
   0.75021090  0.50000000  0.50000000
   0.24978910  0.50000000  0.50000000
Direct configuration=     3
   0.07675406  0.78686817  0.17082284
   0.92324597  0.21313183  0.82917719
   0.92324597  0.71313183  0.67082281
   0.07675406  0.28686817  0.32917716
   0.92324597  0.28686817  0.32917716
   0.07675406  0.71313183  0.67082281
   0.07675406  0.21313183  0.82917719
   0.92324597  0.78686817  0.17082284
   0.57675403  0.28686817  0.17082284
   0.42324594  0.71313183  0.82917719
   0.42324594  0.21313183  0.67082281
   0.57675403  0.78686817  0.32917716
   0.42324594  0.78686817  0.32917716
   0.57675403  0.21313183  0.67082281
   0.57675403  0.71313183  0.82917719
   0.42324594  0.28686817  0.17082284
   0.80520180  0.58602330  0.92825655
   0.19479820  0.41397670  0.07174345
   0.19479820  0.91397670  0.42825655
   0.80520180  0.08602330  0.57174345
   0.19479820  0.08602330  0.57174345
   0.80520180  0.91397670  0.42825655
   0.80520180  0.41397670  0.07174345
   0.19479820  0.58602330  0.92825655
   0.30520180  0.08602330  0.92825655
   0.69479820  0.91397670  0.07174345
   0.69479820  0.41397670  0.42825655
   0.30520180  0.58602330  0.57174345
   0.69479820  0.58602330  0.57174345
   0.30520180  0.41397670  0.42825655
   0.30520180  0.91397670  0.07174345
   0.69479820  0.08602330  0.92825655
   0.69441180  0.57172710  0.08603554
   0.30558820  0.42827290  0.91396446
   0.30558820  0.92827290  0.58603554
   0.69441180  0.07172710  0.41396446
   0.30558820  0.07172710  0.41396446
   0.69441180  0.92827290  0.58603554
   0.69441180  0.42827290  0.91396446
   0.30558820  0.57172710  0.08603554
   0.19441180  0.07172710  0.08603554
   0.80558820  0.92827290  0.91396446
   0.80558820  0.42827290  0.58603554
   0.19441180  0.57172710  0.41396446
   0.80558820  0.57172710  0.41396446
   0.19441180  0.42827290  0.58603554
   0.19441180  0.92827290  0.91396446
   0.80558820  0.07172710  0.08603554
  -0.00000000  0.60130928  0.20435761
  -0.00000000  0.39869072  0.79564236
  -0.00000000  0.89869072  0.70435764
  -0.00000000  0.10130928  0.29564239
   0.50000000  0.10130928  0.20435761
   0.50000000  0.89869072  0.79564236
   0.50000000  0.39869072  0.70435764
   0.50000000  0.60130928  0.29564239
  -0.00000000  0.23192168  0.82934276
  -0.00000000  0.76807832 -0.82934276
  -0.00000000  0.26807832  0.32934276
  -0.00000000 -0.26807832 -0.32934276
   0.50000000 -0.26807832  0.82934276
   0.50000000  0.26807832 -0.82934276
   0.50000000  0.76807832  0.32934276
   0.50000000  0.23192168 -0.32934276
  -0.00000000  0.22177639 -0.79576059
  -0.00000000  0.77822361  0.79576058
  -0.00000000  0.27822361 -0.29576058
  -0.00000000 -0.27822361  0.29576058
   0.50000000 -0.27822361 -0.79576059
   0.50000000  0.27822361  0.79576058
   0.50000000  0.77822361 -0.29576058
   0.50000000  0.22177639  0.29576058
   0.74978541  0.50000000 -0.00000000
   0.25021459  0.50000000 -0.00000000
   0.25021459  0.00000000  0.50000000
   0.74978541  0.00000000  0.50000000
   0.24978541  0.00000000 -0.00000000
   0.75021459  0.00000000 -0.00000000
   0.75021459  0.50000000  0.50000000
   0.24978541  0.50000000  0.50000000
Direct configuration=     4
   0.07679414  0.78688204  0.17070648
   0.92320588  0.21311796  0.82929355
   0.92320588  0.71311796  0.67070645
   0.07679414  0.28688204  0.32929352
   0.92320588  0.28688204  0.32929352
   0.07679414  0.71311796  0.67070645
   0.07679414  0.21311796  0.82929355
   0.92320588  0.78688204  0.17070648
   0.57679412  0.28688204  0.17070648
   0.42320585  0.71311796  0.82929355
   0.42320585  0.21311796  0.67070645
   0.57679412  0.78688204  0.32929352
   0.42320585  0.78688204  0.32929352
   0.57679412  0.21311796  0.67070645
   0.57679412  0.71311796  0.82929355
   0.42320585  0.28688204  0.17070648
   0.80524439  0.58608944  0.92820238
   0.19475561  0.41391056  0.07179762
   0.19475561  0.91391056  0.42820238
   0.80524439  0.08608944  0.57179762
   0.19475561  0.08608944  0.57179762
   0.80524439  0.91391056  0.42820238
   0.80524439  0.41391056  0.07179762
   0.19475561  0.58608944  0.92820238
   0.30524439  0.08608944  0.92820238
   0.69475561  0.91391056  0.07179762
   0.69475561  0.41391056  0.42820238
   0.30524439  0.58608944  0.57179762
   0.69475561  0.58608944  0.57179762
   0.30524439  0.41391056  0.42820238
   0.30524439  0.91391056  0.07179762
   0.69475561  0.08608944  0.92820238
   0.69436934  0.57178212  0.08610078
   0.30563066  0.42821788  0.91389922
   0.30563066  0.92821788  0.58610078
   0.69436934  0.07178212  0.41389922
   0.30563066  0.07178212  0.41389922
   0.69436934  0.92821788  0.58610078
   0.69436934  0.42821788  0.91389922
   0.30563066  0.57178212  0.08610078
   0.19436934  0.07178212  0.08610078
   0.80563066  0.92821788  0.91389922
   0.80563066  0.42821788  0.58610078
   0.19436934  0.57178212  0.41389922
   0.80563066  0.57178212  0.41389922
   0.19436934  0.42821788  0.58610078
   0.19436934  0.92821788  0.91389922
   0.80563066  0.07178212  0.08610078
  -0.00000000  0.60126274  0.20440989
  -0.00000000  0.39873726  0.79559008
  -0.00000000  0.89873726  0.70440992
  -0.00000000  0.10126274  0.29559011
   0.50000000  0.10126274  0.20440989
   0.50000000  0.89873726  0.79559008
   0.50000000  0.39873726  0.70440992
   0.50000000  0.60126274  0.29559011
  -0.00000000  0.22675458  0.83992518
  -0.00000000  0.77324542 -0.83992518
  -0.00000000  0.27324542  0.33992518
  -0.00000000 -0.27324542 -0.33992518
   0.50000000 -0.27324542  0.83992518
   0.50000000  0.27324542 -0.83992518
   0.50000000  0.77324542  0.33992518
   0.50000000  0.22675458 -0.33992518
  -0.00000000  0.21662810 -0.80616274
  -0.00000000  0.78337190  0.80616273
  -0.00000000  0.28337190 -0.30616273
  -0.00000000 -0.28337190  0.30616273
   0.50000000 -0.28337190 -0.80616274
   0.50000000  0.28337190  0.80616273
   0.50000000  0.78337190 -0.30616273
   0.50000000  0.21662810  0.30616273
   0.74978526  0.50000000 -0.00000000
   0.25021474  0.50000000 -0.00000000
   0.25021474  0.00000000  0.50000000
   0.74978526  0.00000000  0.50000000
   0.24978526  0.00000000 -0.00000000
   0.75021474  0.00000000 -0.00000000
   0.75021474  0.50000000  0.50000000
   0.24978526  0.50000000  0.50000000
Direct configuration=     5
   0.07677089  0.78687399  0.17077397
   0.92322913  0.21312601  0.82922606
   0.92322913  0.71312601  0.67077394
   0.07677089  0.28687399  0.32922603
   0.92322913  0.28687399  0.32922603
   0.07677089  0.71312601  0.67077394
   0.07677089  0.21312601  0.82922606
   0.92322913  0.78687399  0.17077397
   0.57677087  0.28687399  0.17077397
   0.42322910  0.71312601  0.82922606
   0.42322910  0.21312601  0.67077394
   0.57677087  0.78687399  0.32922603
   0.42322910  0.78687399  0.32922603
   0.57677087  0.21312601  0.67077394
   0.57677087  0.71312601  0.82922606
   0.42322910  0.28687399  0.17077397
   0.80521969  0.58605108  0.92823380
   0.19478031  0.41394892  0.07176620
   0.19478031  0.91394892  0.42823380
   0.80521969  0.08605108  0.57176620
   0.19478031  0.08605108  0.57176620
   0.80521969  0.91394892  0.42823380
   0.80521969  0.41394892  0.07176620
   0.19478031  0.58605108  0.92823380
   0.30521969  0.08605108  0.92823380
   0.69478031  0.91394892  0.07176620
   0.69478031  0.41394892  0.42823380
   0.30521969  0.58605108  0.57176620
   0.69478031  0.58605108  0.57176620
   0.30521969  0.41394892  0.42823380
   0.30521969  0.91394892  0.07176620
   0.69478031  0.08605108  0.92823380
   0.69439397  0.57175021  0.08606294
   0.30560603  0.42824979  0.91393706
   0.30560603  0.92824979  0.58606294
   0.69439397  0.07175021  0.41393706
   0.30560603  0.07175021  0.41393706
   0.69439397  0.92824979  0.58606294
   0.69439397  0.42824979  0.91393706
   0.30560603  0.57175021  0.08606294
   0.19439397  0.07175021  0.08606294
   0.80560603  0.92824979  0.91393706
   0.80560603  0.42824979  0.58606294
   0.19439397  0.57175021  0.41393706
   0.80560603  0.57175021  0.41393706
   0.19439397  0.42824979  0.58606294
   0.19439397  0.92824979  0.91393706
   0.80560603  0.07175021  0.08606294
  -0.00000000  0.60128973  0.20437957
  -0.00000000  0.39871027  0.79562040
  -0.00000000  0.89871027  0.70437960
  -0.00000000  0.10128973  0.29562043
   0.50000000  0.10128973  0.20437957
   0.50000000  0.89871027  0.79562040
   0.50000000  0.39871027  0.70437960
   0.50000000  0.60128973  0.29562043
  -0.00000000  0.22975157  0.83378723
  -0.00000000  0.77024843 -0.83378723
  -0.00000000  0.27024843  0.33378723
  -0.00000000 -0.27024843 -0.33378723
   0.50000000 -0.27024843  0.83378723
   0.50000000  0.27024843 -0.83378723
   0.50000000  0.77024843  0.33378723
   0.50000000  0.22975157 -0.33378723
  -0.00000000  0.21961418 -0.80012935
  -0.00000000  0.78038582  0.80012934
  -0.00000000  0.28038582 -0.30012934
  -0.00000000 -0.28038582  0.30012934
   0.50000000 -0.28038582 -0.80012935
   0.50000000  0.28038582  0.80012934
   0.50000000  0.78038582 -0.30012934
   0.50000000  0.21961418  0.30012934
   0.74978535  0.50000000 -0.00000000
   0.25021465  0.50000000 -0.00000000
   0.25021465  0.00000000  0.50000000
   0.74978535  0.00000000  0.50000000
   0.24978535  0.00000000 -0.00000000
   0.75021465  0.00000000 -0.00000000
   0.75021465  0.50000000  0.50000000
   0.24978535  0.50000000  0.50000000
Direct configuration=     6
   0.07676695  0.78687263  0.17078540
   0.92323307  0.21312737  0.82921463
   0.92323307  0.71312737  0.67078537
   0.07676695  0.28687263  0.32921460
   0.92323307  0.28687263  0.32921460
   0.07676695  0.71312737  0.67078537
   0.07676695  0.21312737  0.82921463
   0.92323307  0.78687263  0.17078540
   0.57676693  0.28687263  0.17078540
   0.42323304  0.71312737  0.82921463
   0.42323304  0.21312737  0.67078537
   0.57676693  0.78687263  0.32921460
   0.42323304  0.78687263  0.32921460
   0.57676693  0.21312737  0.67078537
   0.57676693  0.71312737  0.82921463
   0.42323304  0.28687263  0.17078540
   0.80521550  0.58604458  0.92823912
   0.19478450  0.41395542  0.07176088
   0.19478450  0.91395542  0.42823912
   0.80521550  0.08604458  0.57176088
   0.19478450  0.08604458  0.57176088
   0.80521550  0.91395542  0.42823912
   0.80521550  0.41395542  0.07176088
   0.19478450  0.58604458  0.92823912
   0.30521550  0.08604458  0.92823912
   0.69478450  0.91395542  0.07176088
   0.69478450  0.41395542  0.42823912
   0.30521550  0.58604458  0.57176088
   0.69478450  0.58604458  0.57176088
   0.30521550  0.41395542  0.42823912
   0.30521550  0.91395542  0.07176088
   0.69478450  0.08604458  0.92823912
   0.69439814  0.57174480  0.08605653
   0.30560186  0.42825520  0.91394347
   0.30560186  0.92825520  0.58605653
   0.69439814  0.07174480  0.41394347
   0.30560186  0.07174480  0.41394347
   0.69439814  0.92825520  0.58605653
   0.69439814  0.42825520  0.91394347
   0.30560186  0.57174480  0.08605653
   0.19439814  0.07174480  0.08605653
   0.80560186  0.92825520  0.91394347
   0.80560186  0.42825520  0.58605653
   0.19439814  0.57174480  0.41394347
   0.80560186  0.57174480  0.41394347
   0.19439814  0.42825520  0.58605653
   0.19439814  0.92825520  0.91394347
   0.80560186  0.07174480  0.08605653
  -0.00000000  0.60129431  0.20437443
  -0.00000000  0.39870569  0.79562554
  -0.00000000  0.89870569  0.70437446
  -0.00000000  0.10129431  0.29562557
   0.50000000  0.10129431  0.20437443
   0.50000000  0.89870569  0.79562554
   0.50000000  0.39870569  0.70437446
   0.50000000  0.60129431  0.29562557
  -0.00000000  0.23025941  0.83274715
  -0.00000000  0.76974059 -0.83274715
  -0.00000000  0.26974059  0.33274715
  -0.00000000 -0.26974059 -0.33274715
   0.50000000 -0.26974059  0.83274715
   0.50000000  0.26974059 -0.83274715
   0.50000000  0.76974059  0.33274715
   0.50000000  0.23025941 -0.33274715
  -0.00000000  0.22012017 -0.79910699
  -0.00000000  0.77987983  0.79910698
  -0.00000000  0.27987983 -0.29910698
  -0.00000000 -0.27987983  0.29910698
   0.50000000 -0.27987983 -0.79910699
   0.50000000  0.27987983  0.79910698
   0.50000000  0.77987983 -0.29910698
   0.50000000  0.22012017  0.29910698
   0.74978536  0.50000000 -0.00000000
   0.25021464  0.50000000 -0.00000000
   0.25021464  0.00000000  0.50000000
   0.74978536  0.00000000  0.50000000
   0.24978536  0.00000000 -0.00000000
   0.75021464  0.00000000 -0.00000000
   0.75021464  0.50000000  0.50000000
   0.24978536  0.50000000  0.50000000
Direct configuration=     7
   0.08154369  0.78271287  0.18565903
   0.91845633  0.21728713  0.81434100
   0.91845633  0.71728713  0.68565900
   0.08154369  0.28271287  0.31434097
   0.91845633  0.28271287  0.31434097
   0.08154369  0.71728713  0.68565900
   0.08154369  0.21728713  0.81434100
   0.91845633  0.78271287  0.18565903
   0.58154367  0.28271287  0.18565903
   0.41845630  0.71728713  0.81434100
   0.41845630  0.21728713  0.68565900
   0.58154367  0.78271287  0.31434097
   0.41845630  0.78271287  0.31434097
   0.58154367  0.21728713  0.68565900
   0.58154367  0.71728713  0.81434100
   0.41845630  0.28271287  0.18565903
   0.80183087  0.58063433  0.93278044
   0.19816913  0.41936567  0.06721956
   0.19816913  0.91936567  0.43278044
   0.80183087  0.08063433  0.56721956
   0.19816913  0.08063433  0.56721956
   0.80183087  0.91936567  0.43278044
   0.80183087  0.41936567  0.06721956
   0.19816913  0.58063433  0.93278044
   0.30183087  0.08063433  0.93278044
   0.69816913  0.91936567  0.06721956
   0.69816913  0.41936567  0.43278044
   0.30183087  0.58063433  0.56721956
   0.69816913  0.58063433  0.56721956
   0.30183087  0.41936567  0.43278044
   0.30183087  0.91936567  0.06721956
   0.69816913  0.08063433  0.93278044
   0.69779857  0.56738844  0.08079579
   0.30220143  0.43261156  0.91920421
   0.30220143  0.93261156  0.58079579
   0.69779857  0.06738844  0.41920421
   0.30220143  0.06738844  0.41920421
   0.69779857  0.93261156  0.58079579
   0.69779857  0.43261156  0.91920421
   0.30220143  0.56738844  0.08079579
   0.19779857  0.06738844  0.08079579
   0.80220143  0.93261156  0.91920421
   0.80220143  0.43261156  0.58079579
   0.19779857  0.56738844  0.41920421
   0.80220143  0.56738844  0.41920421
   0.19779857  0.43261156  0.58079579
   0.19779857  0.93261156  0.91920421
   0.80220143  0.06738844  0.08079579
  -0.00000000  0.60710662  0.21921421
  -0.00000000  0.39289338  0.78078576
  -0.00000000  0.89289338  0.71921424
  -0.00000000  0.10710662  0.28078579
   0.50000000  0.10710662  0.21921421
   0.50000000  0.89289338  0.78078576
   0.50000000  0.39289338  0.71921424
   0.50000000  0.60710662  0.28078579
  -0.00000000  0.22072498  0.85259598
  -0.00000000  0.77927502 -0.85259598
  -0.00000000  0.27927502  0.35259598
  -0.00000000 -0.27927502 -0.35259598
   0.50000000 -0.27927502  0.85259598
   0.50000000  0.27927502 -0.85259598
   0.50000000  0.77927502  0.35259598
   0.50000000  0.22072498 -0.35259598
  -0.00000000  0.21289159 -0.77393415
  -0.00000000  0.78710841  0.77393414
  -0.00000000  0.28710841 -0.27393414
  -0.00000000 -0.28710841  0.27393414
   0.50000000 -0.28710841 -0.77393415
   0.50000000  0.28710841  0.77393414
   0.50000000  0.78710841 -0.27393414
   0.50000000  0.21289159  0.27393414
   0.74977986  0.50000000 -0.00000000
   0.25022014  0.50000000 -0.00000000
   0.25022014  0.00000000  0.50000000
   0.74977986 -0.00000000  0.50000000
   0.24977986  0.00000000 -0.00000000
   0.75022014  0.00000000 -0.00000000
   0.75022014  0.50000000  0.50000000
   0.24977986  0.50000000  0.50000000
Direct configuration=     8
   0.08151145  0.78274095  0.18555862
   0.91848857  0.21725905  0.81444141
   0.91848857  0.71725905  0.68555859
   0.08151145  0.28274095  0.31444138
   0.91848857  0.28274095  0.31444138
   0.08151145  0.71725905  0.68555859
   0.08151145  0.21725905  0.81444141
   0.91848857  0.78274095  0.18555862
   0.58151143  0.28274095  0.18555862
   0.41848855  0.71725905  0.81444141
   0.41848855  0.21725905  0.68555859
   0.58151143  0.78274095  0.31444138
   0.41848855  0.78274095  0.31444138
   0.58151143  0.21725905  0.68555859
   0.58151143  0.71725905  0.81444141
   0.41848855  0.28274095  0.18555862
   0.80185372  0.58067085  0.93274979
   0.19814628  0.41932915  0.06725021
   0.19814628  0.91932915  0.43274979
   0.80185372  0.08067085  0.56725021
   0.19814628  0.08067085  0.56725021
   0.80185372  0.91932915  0.43274979
   0.80185372  0.41932915  0.06725021
   0.19814628  0.58067085  0.93274979
   0.30185372  0.08067085  0.93274979
   0.69814628  0.91932915  0.06725021
   0.69814628  0.41932915  0.43274979
   0.30185372  0.58067085  0.56725021
   0.69814628  0.58067085  0.56725021
   0.30185372  0.41932915  0.43274979
   0.30185372  0.91932915  0.06725021
   0.69814628  0.08067085  0.93274979
   0.69777562  0.56741785  0.08083131
   0.30222438  0.43258215  0.91916869
   0.30222438  0.93258215  0.58083131
   0.69777562  0.06741785  0.41916869
   0.30222438  0.06741785  0.41916869
   0.69777562  0.93258215  0.58083131
   0.69777562  0.43258215  0.91916869
   0.30222438  0.56741785  0.08083131
   0.19777562  0.06741785  0.08083131
   0.80222438  0.93258215  0.91916869
   0.80222438  0.43258215  0.58083131
   0.19777562  0.56741785  0.41916869
   0.80222438  0.56741785  0.41916869
   0.19777562  0.43258215  0.58083131
   0.19777562  0.93258215  0.91916869
   0.80222438  0.06741785  0.08083131
  -0.00000000  0.60706738  0.21911403
  -0.00000000  0.39293262  0.78088594
  -0.00000000  0.89293262  0.71911406
  -0.00000000  0.10706738  0.28088597
   0.50000000  0.10706738  0.21911403
   0.50000000  0.89293262  0.78088594
   0.50000000  0.39293262  0.71911406
   0.50000000  0.60706738  0.28088597
  -0.00000000  0.22078935  0.85246198
  -0.00000000  0.77921065 -0.85246198
  -0.00000000  0.27921065  0.35246198
  -0.00000000 -0.27921065 -0.35246198
   0.50000000 -0.27921065  0.85246198
   0.50000000  0.27921065 -0.85246198
   0.50000000  0.77921065  0.35246198
   0.50000000  0.22078935 -0.35246198
  -0.00000000  0.21294039 -0.77410408
  -0.00000000  0.78705961  0.77410407
  -0.00000000  0.28705961 -0.27410407
  -0.00000000 -0.28705961  0.27410407
   0.50000000 -0.28705961 -0.77410408
   0.50000000  0.28705961  0.77410407
   0.50000000  0.78705961 -0.27410407
   0.50000000  0.21294039  0.27410407
   0.74977990  0.50000000 -0.00000000
   0.25022010  0.50000000 -0.00000000
   0.25022010  0.00000000  0.50000000
   0.74977990 -0.00000000  0.50000000
   0.24977990  0.00000000 -0.00000000
   0.75022010  0.00000000 -0.00000000
   0.75022010  0.50000000  0.50000000
   0.24977990  0.50000000  0.50000000
Direct configuration=     9
   0.08269611  0.77896719  0.19593859
   0.91730391  0.22103281  0.80406144
   0.91730391  0.72103281  0.69593856
   0.08269611  0.27896719  0.30406141
   0.91730391  0.27896719  0.30406141
   0.08269611  0.72103281  0.69593856
   0.08269611  0.22103281  0.80406144
   0.91730391  0.77896719  0.19593859
   0.58269609  0.27896719  0.19593859
   0.41730389  0.72103281  0.80406144
   0.41730389  0.22103281  0.69593856
   0.58269609  0.77896719  0.30406141
   0.41730389  0.77896719  0.30406141
   0.58269609  0.22103281  0.69593856
   0.58269609  0.72103281  0.80406144
   0.41730389  0.27896719  0.19593859
   0.80104863  0.57928901  0.93395782
   0.19895137  0.42071099  0.06604218
   0.19895137  0.92071099  0.43395782
   0.80104863  0.07928901  0.56604218
   0.19895137  0.07928901  0.56604218
   0.80104863  0.92071099  0.43395782
   0.80104863  0.42071099  0.06604218
   0.19895137  0.57928901  0.93395782
   0.30104863  0.07928901  0.93395782
   0.69895137  0.92071099  0.06604218
   0.69895137  0.42071099  0.43395782
   0.30104863  0.57928901  0.56604218
   0.69895137  0.57928901  0.56604218
   0.30104863  0.42071099  0.43395782
   0.30104863  0.92071099  0.06604218
   0.69895137  0.07928901  0.93395782
   0.69863216  0.56633370  0.07945617
   0.30136784  0.43366630  0.92054383
   0.30136784  0.93366630  0.57945617
   0.69863216  0.06633370  0.42054383
   0.30136784  0.06633370  0.42054383
   0.69863216  0.93366630  0.57945617
   0.69863216  0.43366630  0.92054383
   0.30136784  0.56633370  0.07945617
   0.19863216  0.06633370  0.07945617
   0.80136784  0.93366630  0.92054383
   0.80136784  0.43366630  0.57945617
   0.19863216  0.56633370  0.42054383
   0.80136784  0.56633370  0.42054383
   0.19863216  0.43366630  0.57945617
   0.19863216  0.93366630  0.92054383
   0.80136784  0.06633370  0.07945617
  -0.00000000  0.60120868  0.22166955
  -0.00000000  0.39879132  0.77833042
  -0.00000000  0.89879132  0.72166958
  -0.00000000  0.10120868  0.27833045
   0.50000000  0.10120868  0.22166955
   0.50000000  0.89879132  0.77833042
   0.50000000  0.39879132  0.72166958
   0.50000000  0.60120868  0.27833045
  -0.00000000  0.21620354  0.86451170
  -0.00000000  0.78379646 -0.86451170
  -0.00000000  0.28379646  0.36451170
  -0.00000000 -0.28379646 -0.36451170
   0.50000000 -0.28379646  0.86451170
   0.50000000  0.28379646 -0.86451170
   0.50000000  0.78379646  0.36451170
   0.50000000  0.21620354 -0.36451170
  -0.00000000  0.22158539 -0.76247972
  -0.00000000  0.77841461  0.76247970
  -0.00000000  0.27841461 -0.26247970
  -0.00000000 -0.27841461  0.26247970
   0.50000000 -0.27841461 -0.76247972
   0.50000000  0.27841461  0.76247970
   0.50000000  0.77841461 -0.26247970
   0.50000000  0.22158539  0.26247970
   0.74970466  0.50000000 -0.00000000
   0.25029534  0.50000000 -0.00000000
   0.25029534 -0.00000000  0.50000000
   0.74970466 -0.00000000  0.50000000
   0.24970466 -0.00000000 -0.00000000
   0.75029534 -0.00000000 -0.00000000
   0.75029534  0.50000000  0.50000000
   0.24970466  0.50000000  0.50000000
Direct configuration=    10
   0.08413778  0.77437471  0.20857047
   0.91586225  0.22562529  0.79142956
   0.91586225  0.72562529  0.70857044
   0.08413778  0.27437471  0.29142953
   0.91586225  0.27437471  0.29142953
   0.08413778  0.72562529  0.70857044
   0.08413778  0.22562529  0.79142956
   0.91586225  0.77437471  0.20857047
   0.58413775  0.27437471  0.20857047
   0.41586222  0.72562529  0.79142956
   0.41586222  0.22562529  0.70857044
   0.58413775  0.77437471  0.29142953
   0.41586222  0.77437471  0.29142953
   0.58413775  0.22562529  0.70857044
   0.58413775  0.72562529  0.79142956
   0.41586222  0.27437471  0.20857047
   0.80006889  0.57760739  0.93542795
   0.19993111  0.42239261  0.06457205
   0.19993111  0.92239261  0.43542795
   0.80006889  0.07760739  0.56457205
   0.19993111  0.07760739  0.56457205
   0.80006889  0.92239261  0.43542795
   0.80006889  0.42239261  0.06457205
   0.19993111  0.57760739  0.93542795
   0.30006889  0.07760739  0.93542795
   0.69993111  0.92239261  0.06457205
   0.69993111  0.42239261  0.43542795
   0.30006889  0.57760739  0.56457205
   0.69993111  0.57760739  0.56457205
   0.30006889  0.42239261  0.43542795
   0.30006889  0.92239261  0.06457205
   0.69993111  0.07760739  0.93542795
   0.69967453  0.56501436  0.07778269
   0.30032547  0.43498564  0.92221731
   0.30032547  0.93498564  0.57778269
   0.69967453  0.06501436  0.42221731
   0.30032547  0.06501436  0.42221731
   0.69967453  0.93498564  0.57778269
   0.69967453  0.43498564  0.92221731
   0.30032547  0.56501436  0.07778269
   0.19967453  0.06501436  0.07778269
   0.80032547  0.93498564  0.92221731
   0.80032547  0.43498564  0.57778269
   0.19967453  0.56501436  0.42221731
   0.80032547  0.56501436  0.42221731
   0.19967453  0.43498564  0.57778269
   0.19967453  0.93498564  0.92221731
   0.80032547  0.06501436  0.07778269
  -0.00000000  0.59407895  0.22477948
  -0.00000000  0.40592105  0.77522049
  -0.00000000  0.90592105  0.72477951
  -0.00000000  0.09407895  0.27522052
   0.50000000  0.09407895  0.22477948
   0.50000000  0.90592105  0.77522049
   0.50000000  0.40592105  0.72477951
   0.50000000  0.59407895  0.27522052
  -0.00000000  0.21062285  0.87917556