graphite                                
           1
     2.667608    0.000000    0.000000
     1.333804    2.310216    0.000000
     1.333804    0.770072    2.178093
   C 
   2
Direct configuration=     1
   0.00000000  0.00000000  0.00000000
   0.25000000  0.25000000  0.24999999
