diamond                                 
           1
    12.085832    0.000000    0.000000
     0.000000    8.453651    0.000000
     0.000000    0.000000    8.448387
   H    C 
  64  16
Direct configuration=     1
   0.07496258  0.77863942  0.26175302
   0.92503744  0.22136058  0.73824701
   0.92503744  0.72136058  0.76175299
   0.07496258  0.27863942  0.23824698
   0.92503744  0.27863942  0.23824698
   0.07496258  0.72136058  0.76175299
   0.07496258  0.22136058  0.73824701
   0.92503744  0.77863942  0.26175302
   0.57496256  0.27863942  0.26175302
   0.42503741  0.72136058  0.73824701
   0.42503741  0.22136058  0.76175299
   0.57496256  0.77863942  0.23824698
   0.42503741  0.77863942  0.23824698
   0.57496256  0.22136058  0.76175299
   0.57496256  0.72136058  0.73824701
   0.42503741  0.27863942  0.26175302
   0.80278266  0.58221714  0.93157996
   0.19721734  0.41778286  0.06842004
   0.19721734  0.91778286  0.43157996
   0.80278266  0.08221714  0.56842004
   0.19721734  0.08221714  0.56842004
   0.80278266  0.91778286  0.43157996
   0.80278266  0.41778286  0.06842004
   0.19721734  0.58221714  0.93157996
   0.30278266  0.08221714  0.93157996
   0.69721734  0.91778286  0.06842004
   0.69721734  0.41778286  0.43157996
   0.30278266  0.58221714  0.56842004
   0.69721734  0.58221714  0.56842004
   0.30278266  0.41778286  0.43157996
   0.30278266  0.91778286  0.06842004
   0.69721734  0.08221714  0.93157996
   0.69676663  0.56851243  0.08242000
   0.30323337  0.43148757  0.91758000
   0.30323337  0.93148757  0.58242000
   0.69676663  0.06851243  0.41758000
   0.30323337  0.06851243  0.41758000
   0.69676663  0.93148757  0.58242000
   0.69676663  0.43148757  0.91758000
   0.30323337  0.56851243  0.08242000
   0.19676663  0.06851243  0.08242000
   0.80323337  0.93148757  0.91758000
   0.80323337  0.43148757  0.58242000
   0.19676663  0.56851243  0.41758000
   0.80323337  0.56851243  0.41758000
   0.19676663  0.43148757  0.58242000
   0.19676663  0.93148757  0.91758000
   0.80323337  0.06851243  0.08242000
   0.00000000  0.60141758  0.20663685
   0.00000000  0.39858242  0.79336312
   0.00000000  0.89858242  0.70663688
   0.00000000  0.10141758  0.29336315
   0.50000000  0.10141758  0.20663685
   0.50000000  0.89858242  0.79336312
   0.50000000  0.39858242  0.70663688
   0.50000000  0.60141758  0.29336315
   0.00000000  0.22802544  0.92368784
   0.00000000  0.77197456  0.07631216
   0.00000000  0.27197456  0.42368784
   0.00000000  0.72802544  0.57631216
   0.50000000  0.72802544  0.92368784
   0.50000000  0.27197456  0.07631216
   0.50000000  0.77197456  0.42368784
   0.50000000  0.22802544  0.57631216
   0.00000000  0.23254117  0.29842156
   0.00000000  0.76745883  0.70157842
   0.00000000  0.26745883  0.79842158
   0.00000000  0.73254117  0.20157842
   0.50000000  0.73254117  0.29842156
   0.50000000  0.26745883  0.70157842
   0.50000000  0.76745883  0.79842158
   0.50000000  0.23254117  0.20157842
   0.74967585  0.50000000  0.00000000
   0.25032415  0.50000000  0.00000000
   0.25032415  0.00000000  0.50000000
   0.74967585  0.00000000  0.50000000
   0.24967585  0.00000000  0.00000000
   0.75032415  0.00000000  0.00000000
   0.75032415  0.50000000  0.50000000
   0.24967585  0.50000000  0.50000000
Direct configuration=     2
   0.07359563  0.77781764  0.26058807
   0.92640439  0.22218236  0.73941196
   0.92640439  0.72218236  0.76058804
   0.07359563  0.27781764  0.23941193
   0.92640439  0.27781764  0.23941193
   0.07359563  0.72218236  0.76058804
   0.07359563  0.22218236  0.73941196
   0.92640439  0.77781764  0.26058807
   0.57359561  0.27781764  0.26058807
   0.42640436  0.72218236  0.73941196
   0.42640436  0.22218236  0.76058804
   0.57359561  0.77781764  0.23941193
   0.42640436  0.77781764  0.23941193
   0.57359561  0.22218236  0.76058804
   0.57359561  0.72218236  0.73941196
   0.42640436  0.27781764  0.26058807
   0.80180790  0.58076845  0.93282124
   0.19819210  0.41923155  0.06717876
   0.19819210  0.91923155  0.43282124
   0.80180790  0.08076845  0.56717876
   0.19819210  0.08076845  0.56717876
   0.80180790  0.91923155  0.43282124
   0.80180790  0.41923155  0.06717876
   0.19819210  0.58076845  0.93282124
   0.30180790  0.08076845  0.93282124
   0.69819210  0.91923155  0.06717876
   0.69819210  0.41923155  0.43282124
   0.30180790  0.58076845  0.56717876
   0.69819210  0.58076845  0.56717876
   0.30180790  0.41923155  0.43282124
   0.30180790  0.91923155  0.06717876
   0.69819210  0.08076845  0.93282124
   0.69770928  0.56726636  0.08095722
   0.30229072  0.43273364  0.91904278
   0.30229072  0.93273364  0.58095722
   0.69770928  0.06726636  0.41904278
   0.30229072  0.06726636  0.41904278
   0.69770928  0.93273364  0.58095722
   0.69770928  0.43273364  0.91904278
   0.30229072  0.56726636  0.08095722
   0.19770928  0.06726636  0.08095722
   0.80229072  0.93273364  0.91904278
   0.80229072  0.43273364  0.58095722
   0.19770928  0.56726636  0.41904278
   0.80229072  0.56726636  0.41904278
   0.19770928  0.43273364  0.58095722
   0.19770928  0.93273364  0.91904278
   0.80229072  0.06726636  0.08095722
   0.00000000  0.60383354  0.20648296
   0.00000000  0.39616646  0.79351701
   0.00000000  0.89616646  0.70648299
   0.00000000  0.10383354  0.29351704
   0.50000000  0.10383354  0.20648296
   0.50000000  0.89616646  0.79351701
   0.50000000  0.39616646  0.70648299
   0.50000000  0.60383354  0.29351704
   0.00000000  0.22881201  0.92128868
   0.00000000  0.77118799  0.07871132
   0.00000000  0.27118799  0.42128868
   0.00000000  0.72881201  0.57871132
   0.50000000  0.72881201  0.92128868
   0.50000000  0.27118799  0.07871132
   0.50000000  0.77118799  0.42128868
   0.50000000  0.22881201  0.57871132
   0.00000000  0.23254251  0.29847788
   0.00000000  0.76745749  0.70152211
   0.00000000  0.26745749  0.79847789
   0.00000000  0.73254251  0.20152211
   0.50000000  0.73254251  0.29847788
   0.50000000  0.26745749  0.70152211
   0.50000000  0.76745749  0.79847789
   0.50000000  0.23254251  0.20152211
   0.74967036  0.50000000 -0.00000000
   0.25032964  0.50000000 -0.00000000
   0.25032964  0.00000000  0.50000000
   0.74967036  0.00000000  0.50000000
   0.24967036  0.00000000 -0.00000000
   0.75032964  0.00000000 -0.00000000
   0.75032964  0.50000000  0.50000000
   0.24967036  0.50000000  0.50000000
Direct configuration=     3
   0.07406076  0.77809727  0.26098446
   0.92593926  0.22190273  0.73901556
   0.92593926  0.72190273  0.76098444
   0.07406076  0.27809727  0.23901554
   0.92593926  0.27809727  0.23901554
   0.07406076  0.72190273  0.76098444
   0.07406076  0.22190273  0.73901556
   0.92593926  0.77809727  0.26098446
   0.57406074  0.27809727  0.26098446
   0.42593923  0.72190273  0.73901556
   0.42593923  0.22190273  0.76098444
   0.57406074  0.77809727  0.23901554
   0.42593923  0.77809727  0.23901554
   0.57406074  0.22190273  0.76098444
   0.57406074  0.72190273  0.73901556
   0.42593923  0.27809727  0.26098446
   0.80213958  0.58126140  0.93239887
   0.19786042  0.41873860  0.06760113
   0.19786042  0.91873860  0.43239887
   0.80213958  0.08126140  0.56760113
   0.19786042  0.08126140  0.56760113
   0.80213958  0.91873860  0.43239887
   0.80213958  0.41873860  0.06760113
   0.19786042  0.58126140  0.93239887
   0.30213958  0.08126140  0.93239887
   0.69786042  0.91873860  0.06760113
   0.69786042  0.41873860  0.43239887
   0.30213958  0.58126140  0.56760113
   0.69786042  0.58126140  0.56760113
   0.30213958  0.41873860  0.43239887
   0.30213958  0.91873860  0.06760113
   0.69786042  0.08126140  0.93239887
   0.69738852  0.56769036  0.08145496
   0.30261148  0.43230964  0.91854504
   0.30261148  0.93230964  0.58145496
   0.69738852  0.06769036  0.41854504
   0.30261148  0.06769036  0.41854504
   0.69738852  0.93230964  0.58145496
   0.69738852  0.43230964  0.91854504
   0.30261148  0.56769036  0.08145496
   0.19738852  0.06769036  0.08145496
   0.80261148  0.93230964  0.91854504
   0.80261148  0.43230964  0.58145496
   0.19738852  0.56769036  0.41854504
   0.80261148  0.56769036  0.41854504
   0.19738852  0.43230964  0.58145496
   0.19738852  0.93230964  0.91854504
   0.80261148  0.06769036  0.08145496
   0.00000000  0.60301146  0.20653533
   0.00000000  0.39698854  0.79346464
   0.00000000  0.89698854  0.70653536
   0.00000000  0.10301146  0.29346467
   0.50000000  0.10301146  0.20653533
   0.50000000  0.89698854  0.79346464
   0.50000000  0.39698854  0.70653536
   0.50000000  0.60301146  0.29346467
   0.00000000  0.22854436  0.92210504
   0.00000000  0.77145564  0.07789496
   0.00000000  0.27145564  0.42210504
   0.00000000  0.72854436  0.57789496
   0.50000000  0.72854436  0.92210504
   0.50000000  0.27145564  0.07789496
   0.50000000  0.77145564  0.42210504
   0.50000000  0.22854436  0.57789496
   0.00000000  0.23254205  0.29845871
   0.00000000  0.76745795  0.70154127
   0.00000000  0.26745795  0.79845873
   0.00000000  0.73254205  0.20154127
   0.50000000  0.73254205  0.29845871
   0.50000000  0.26745795  0.70154127
   0.50000000  0.76745795  0.79845873
   0.50000000  0.23254205  0.20154127
   0.74967223  0.50000000 -0.00000000
   0.25032777  0.50000000 -0.00000000
   0.25032777  0.00000000  0.50000000
   0.74967223  0.00000000  0.50000000
   0.24967223  0.00000000 -0.00000000
   0.75032777  0.00000000 -0.00000000
   0.75032777  0.50000000  0.50000000
   0.24967223  0.50000000  0.50000000
