diamond                                 
           1
    12.085832    0.000000    0.000000
     0.000000    8.453651    0.000000
     0.000000    0.000000    8.448387
   H    C 
  64  16
Direct configuration=     1
   0.07496258  0.77863942  0.26175302
   0.92503744  0.22136058  0.73824701
   0.92503744  0.72136058  0.76175299
   0.07496258  0.27863942  0.23824698
   0.92503744  0.27863942  0.23824698
   0.07496258  0.72136058  0.76175299
   0.07496258  0.22136058  0.73824701
   0.92503744  0.77863942  0.26175302
   0.57496256  0.27863942  0.26175302
   0.42503741  0.72136058  0.73824701
   0.42503741  0.22136058  0.76175299
   0.57496256  0.77863942  0.23824698
   0.42503741  0.77863942  0.23824698
   0.57496256  0.22136058  0.76175299
   0.57496256  0.72136058  0.73824701
   0.42503741  0.27863942  0.26175302
   0.80278266  0.58221714  0.93157996
   0.19721734  0.41778286  0.06842004
   0.19721734  0.91778286  0.43157996
   0.80278266  0.08221714  0.56842004
   0.19721734  0.08221714  0.56842004
   0.80278266  0.91778286  0.43157996
   0.80278266  0.41778286  0.06842004
   0.19721734  0.58221714  0.93157996
   0.30278266  0.08221714  0.93157996
   0.69721734  0.91778286  0.06842004
   0.69721734  0.41778286  0.43157996
   0.30278266  0.58221714  0.56842004
   0.69721734  0.58221714  0.56842004
   0.30278266  0.41778286  0.43157996
   0.30278266  0.91778286  0.06842004
   0.69721734  0.08221714  0.93157996
   0.69676663  0.56851243  0.08242000
   0.30323337  0.43148757  0.91758000
   0.30323337  0.93148757  0.58242000
   0.69676663  0.06851243  0.41758000
   0.30323337  0.06851243  0.41758000
   0.69676663  0.93148757  0.58242000
   0.69676663  0.43148757  0.91758000
   0.30323337  0.56851243  0.08242000
   0.19676663  0.06851243  0.08242000
   0.80323337  0.93148757  0.91758000
   0.80323337  0.43148757  0.58242000
   0.19676663  0.56851243  0.41758000
   0.80323337  0.56851243  0.41758000
   0.19676663  0.43148757  0.58242000
   0.19676663  0.93148757  0.91758000
   0.80323337  0.06851243  0.08242000
   0.00000000  0.60141758  0.20663685
   0.00000000  0.39858242  0.79336312
   0.00000000  0.89858242  0.70663688
   0.00000000  0.10141758  0.29336315
   0.50000000  0.10141758  0.20663685
   0.50000000  0.89858242  0.79336312
   0.50000000  0.39858242  0.70663688
   0.50000000  0.60141758  0.29336315
   0.00000000  0.22802544  0.92368784
   0.00000000  0.77197456  0.07631216
   0.00000000  0.27197456  0.42368784
   0.00000000  0.72802544  0.57631216
   0.50000000  0.72802544  0.92368784
   0.50000000  0.27197456  0.07631216
   0.50000000  0.77197456  0.42368784
   0.50000000  0.22802544  0.57631216
   0.00000000  0.23254117  0.29842156
   0.00000000  0.76745883  0.70157842
   0.00000000  0.26745883  0.79842158
   0.00000000  0.73254117  0.20157842
   0.50000000  0.73254117  0.29842156
   0.50000000  0.26745883  0.70157842
   0.50000000  0.76745883  0.79842158
   0.50000000  0.23254117  0.20157842
   0.74967585  0.50000000  0.00000000
   0.25032415  0.50000000  0.00000000
   0.25032415  0.00000000  0.50000000
   0.74967585  0.00000000  0.50000000
   0.24967585  0.00000000  0.00000000
   0.75032415  0.00000000  0.00000000
   0.75032415  0.50000000  0.50000000
   0.24967585  0.50000000  0.50000000
Direct configuration=     2
   0.07359563  0.77781764  0.26058807
   0.92640439  0.22218236  0.73941196
   0.92640439  0.72218236  0.76058804
   0.07359563  0.27781764  0.23941193
   0.92640439  0.27781764  0.23941193
   0.07359563  0.72218236  0.76058804
   0.07359563  0.22218236  0.73941196
   0.92640439  0.77781764  0.26058807
   0.57359561  0.27781764  0.26058807
   0.42640436  0.72218236  0.73941196
   0.42640436  0.22218236  0.76058804
   0.57359561  0.77781764  0.23941193
   0.42640436  0.77781764  0.23941193
   0.57359561  0.22218236  0.76058804
   0.57359561  0.72218236  0.73941196
   0.42640436  0.27781764  0.26058807
   0.80180790  0.58076845  0.93282124
   0.19819210  0.41923155  0.06717876
   0.19819210  0.91923155  0.43282124
   0.80180790  0.08076845  0.56717876
   0.19819210  0.08076845  0.56717876
   0.80180790  0.91923155  0.43282124
   0.80180790  0.41923155  0.06717876
   0.19819210  0.58076845  0.93282124
   0.30180790  0.08076845  0.93282124
   0.69819210  0.91923155  0.06717876
   0.69819210  0.41923155  0.43282124
   0.30180790  0.58076845  0.56717876
   0.69819210  0.58076845  0.56717876
   0.30180790  0.41923155  0.43282124
   0.30180790  0.91923155  0.06717876
   0.69819210  0.08076845  0.93282124
   0.69770928  0.56726636  0.08095722
   0.30229072  0.43273364  0.91904278
   0.30229072  0.93273364  0.58095722
   0.69770928  0.06726636  0.41904278
   0.30229072  0.06726636  0.41904278
   0.69770928  0.93273364  0.58095722
   0.69770928  0.43273364  0.91904278
   0.30229072  0.56726636  0.08095722
   0.19770928  0.06726636  0.08095722
   0.80229072  0.93273364  0.91904278
   0.80229072  0.43273364  0.58095722
   0.19770928  0.56726636  0.41904278
   0.80229072  0.56726636  0.41904278
   0.19770928  0.43273364  0.58095722
   0.19770928  0.93273364  0.91904278
   0.80229072  0.06726636  0.08095722
   0.00000000  0.60383354  0.20648296
   0.00000000  0.39616646  0.79351701
   0.00000000  0.89616646  0.70648299
   0.00000000  0.10383354  0.29351704
   0.50000000  0.10383354  0.20648296
   0.50000000  0.89616646  0.79351701
   0.50000000  0.39616646  0.70648299
   0.50000000  0.60383354  0.29351704
   0.00000000  0.22881201  0.92128868
   0.00000000  0.77118799  0.07871132
   0.00000000  0.27118799  0.42128868
   0.00000000  0.72881201  0.57871132
   0.50000000  0.72881201  0.92128868
   0.50000000  0.27118799  0.07871132
   0.50000000  0.77118799  0.42128868
   0.50000000  0.22881201  0.57871132
   0.00000000  0.23254251  0.29847788
   0.00000000  0.76745749  0.70152211
   0.00000000  0.26745749  0.79847789
   0.00000000  0.73254251  0.20152211
   0.50000000  0.73254251  0.29847788
   0.50000000  0.26745749  0.70152211
   0.50000000  0.76745749  0.79847789
   0.50000000  0.23254251  0.20152211
   0.74967036  0.50000000  0.00000000
   0.25032964  0.50000000 -0.00000000
   0.25032964  0.00000000  0.50000000
   0.74967036  0.00000000  0.50000000
   0.24967036  0.00000000  0.00000000
   0.75032964  0.00000000 -0.00000000
   0.75032964  0.50000000  0.50000000
   0.24967036  0.50000000  0.50000000
Direct configuration=     3
   0.07406076  0.77809727  0.26098446
   0.92593926  0.22190273  0.73901556
   0.92593926  0.72190273  0.76098444
   0.07406076  0.27809727  0.23901554
   0.92593926  0.27809727  0.23901554
   0.07406076  0.72190273  0.76098444
   0.07406076  0.22190273  0.73901556
   0.92593926  0.77809727  0.26098446
   0.57406074  0.27809727  0.26098446
   0.42593923  0.72190273  0.73901556
   0.42593923  0.22190273  0.76098444
   0.57406074  0.77809727  0.23901554
   0.42593923  0.77809727  0.23901554
   0.57406074  0.22190273  0.76098444
   0.57406074  0.72190273  0.73901556
   0.42593923  0.27809727  0.26098446
   0.80213958  0.58126140  0.93239887
   0.19786042  0.41873860  0.06760113
   0.19786042  0.91873860  0.43239887
   0.80213958  0.08126140  0.56760113
   0.19786042  0.08126140  0.56760113
   0.80213958  0.91873860  0.43239887
   0.80213958  0.41873860  0.06760113
   0.19786042  0.58126140  0.93239887
   0.30213958  0.08126140  0.93239887
   0.69786042  0.91873860  0.06760113
   0.69786042  0.41873860  0.43239887
   0.30213958  0.58126140  0.56760113
   0.69786042  0.58126140  0.56760113
   0.30213958  0.41873860  0.43239887
   0.30213958  0.91873860  0.06760113
   0.69786042  0.08126140  0.93239887
   0.69738852  0.56769036  0.08145496
   0.30261148  0.43230964  0.91854504
   0.30261148  0.93230964  0.58145496
   0.69738852  0.06769036  0.41854504
   0.30261148  0.06769036  0.41854504
   0.69738852  0.93230964  0.58145496
   0.69738852  0.43230964  0.91854504
   0.30261148  0.56769036  0.08145496
   0.19738852  0.06769036  0.08145496
   0.80261148  0.93230964  0.91854504
   0.80261148  0.43230964  0.58145496
   0.19738852  0.56769036  0.41854504
   0.80261148  0.56769036  0.41854504
   0.19738852  0.43230964  0.58145496
   0.19738852  0.93230964  0.91854504
   0.80261148  0.06769036  0.08145496
   0.00000000  0.60301146  0.20653533
   0.00000000  0.39698854  0.79346464
   0.00000000  0.89698854  0.70653536
   0.00000000  0.10301146  0.29346467
   0.50000000  0.10301146  0.20653533
   0.50000000  0.89698854  0.79346464
   0.50000000  0.39698854  0.70653536
   0.50000000  0.60301146  0.29346467
   0.00000000  0.22854436  0.92210504
   0.00000000  0.77145564  0.07789496
   0.00000000  0.27145564  0.42210504
   0.00000000  0.72854436  0.57789496
   0.50000000  0.72854436  0.92210504
   0.50000000  0.27145564  0.07789496
   0.50000000  0.77145564  0.42210504
   0.50000000  0.22854436  0.57789496
   0.00000000  0.23254205  0.29845871
   0.00000000  0.76745795  0.70154127
   0.00000000  0.26745795  0.79845873
   0.00000000  0.73254205  0.20154127
   0.50000000  0.73254205  0.29845871
   0.50000000  0.26745795  0.70154127
   0.50000000  0.76745795  0.79845873
   0.50000000  0.23254205  0.20154127
   0.74967223  0.50000000  0.00000000
   0.25032777  0.50000000 -0.00000000
   0.25032777  0.00000000  0.50000000
   0.74967223  0.00000000  0.50000000
   0.24967223  0.00000000  0.00000000
   0.75032777  0.00000000 -0.00000000
   0.75032777  0.50000000  0.50000000
   0.24967223  0.50000000  0.50000000
Direct configuration=     4
   0.07405278  0.77810445  0.26092380
   0.92594724  0.22189555  0.73907623
   0.92594724  0.72189555  0.76092377
   0.07405278  0.27810445  0.23907620
   0.92594724  0.27810445  0.23907620
   0.07405278  0.72189555  0.76092377
   0.07405278  0.22189555  0.73907623
   0.92594724  0.77810445  0.26092380
   0.57405276  0.27810445  0.26092380
   0.42594722  0.72189555  0.73907623
   0.42594722  0.22189555  0.76092377
   0.57405276  0.77810445  0.23907620
   0.42594722  0.77810445  0.23907620
   0.57405276  0.22189555  0.76092377
   0.57405276  0.72189555  0.73907623
   0.42594722  0.27810445  0.26092380
   0.80212265  0.58128850  0.93240625
   0.19787735  0.41871150  0.06759375
   0.19787735  0.91871150  0.43240625
   0.80212265  0.08128850  0.56759375
   0.19787735  0.08128850  0.56759375
   0.80212265  0.91871150  0.43240625
   0.80212265  0.41871150  0.06759375
   0.19787735  0.58128850  0.93240625
   0.30212265  0.08128850  0.93240625
   0.69787735  0.91871150  0.06759375
   0.69787735  0.41871150  0.43240625
   0.30212265  0.58128850  0.56759375
   0.69787735  0.58128850  0.56759375
   0.30212265  0.41871150  0.43240625
   0.30212265  0.91871150  0.06759375
   0.69787735  0.08128850  0.93240625
   0.69738026  0.56767640  0.08146876
   0.30261974  0.43232360  0.91853124
   0.30261974  0.93232360  0.58146876
   0.69738026  0.06767640  0.41853124
   0.30261974  0.06767640  0.41853124
   0.69738026  0.93232360  0.58146876
   0.69738026  0.43232360  0.91853124
   0.30261974  0.56767640  0.08146876
   0.19738026  0.06767640  0.08146876
   0.80261974  0.93232360  0.91853124
   0.80261974  0.43232360  0.58146876
   0.19738026  0.56767640  0.41853124
   0.80261974  0.56767640  0.41853124
   0.19738026  0.43232360  0.58146876
   0.19738026  0.93232360  0.91853124
   0.80261974  0.06767640  0.08146876
   0.00000000  0.60301850  0.20648219
   0.00000000  0.39698150  0.79351778
   0.00000000  0.89698150  0.70648222
   0.00000000  0.10301850  0.29351781
   0.50000000  0.10301850  0.20648219
   0.50000000  0.89698150  0.79351778
   0.50000000  0.39698150  0.70648222
   0.50000000  0.60301850  0.29351781
   0.00000000  0.22856026  0.92216402
   0.00000000  0.77143974  0.07783598
   0.00000000  0.27143974  0.42216402
   0.00000000  0.72856026  0.57783598
   0.50000000  0.72856026  0.92216402
   0.50000000  0.27143974  0.07783598
   0.50000000  0.77143974  0.42216402
   0.50000000  0.22856026  0.57783598
   0.00000000  0.23252813  0.29834585
   0.00000000  0.76747187  0.70165413
   0.00000000  0.26747187  0.79834587
   0.00000000  0.73252813  0.20165413
   0.50000000  0.73252813  0.29834585
   0.50000000  0.26747187  0.70165413
   0.50000000  0.76747187  0.79834587
   0.50000000  0.23252813  0.20165413
   0.74966199  0.50000000 -0.00000000
   0.25033801  0.50000000 -0.00000000
   0.25033801 -0.00000000  0.50000000
   0.74966199 -0.00000000  0.50000000
   0.24966199 -0.00000000 -0.00000000
   0.75033801  0.00000000 -0.00000000
   0.75033801  0.50000000  0.50000000
   0.24966199  0.50000000  0.50000000
Direct configuration=     5
   0.07405716  0.77810051  0.26095706
   0.92594287  0.22189949  0.73904297
   0.92594287  0.72189949  0.76095703
   0.07405716  0.27810051  0.23904294
   0.92594287  0.27810051  0.23904294
   0.07405716  0.72189949  0.76095703
   0.07405716  0.22189949  0.73904297
   0.92594287  0.77810051  0.26095706
   0.57405713  0.27810051  0.26095706
   0.42594284  0.72189949  0.73904297
   0.42594284  0.22189949  0.76095703
   0.57405713  0.77810051  0.23904294
   0.42594284  0.77810051  0.23904294
   0.57405713  0.22189949  0.76095703
   0.57405713  0.72189949  0.73904297
   0.42594284  0.27810051  0.26095706
   0.80213193  0.58127364  0.93240221
   0.19786807  0.41872636  0.06759779
   0.19786807  0.91872636  0.43240221
   0.80213193  0.08127364  0.56759779
   0.19786807  0.08127364  0.56759779
   0.80213193  0.91872636  0.43240221
   0.80213193  0.41872636  0.06759779
   0.19786807  0.58127364  0.93240221
   0.30213193  0.08127364  0.93240221
   0.69786807  0.91872636  0.06759779
   0.69786807  0.41872636  0.43240221
   0.30213193  0.58127364  0.56759779
   0.69786807  0.58127364  0.56759779
   0.30213193  0.41872636  0.43240221
   0.30213193  0.91872636  0.06759779
   0.69786807  0.08127364  0.93240221
   0.69738479  0.56768405  0.08146119
   0.30261521  0.43231595  0.91853881
   0.30261521  0.93231595  0.58146119
   0.69738479  0.06768405  0.41853881
   0.30261521  0.06768405  0.41853881
   0.69738479  0.93231595  0.58146119
   0.69738479  0.43231595  0.91853881
   0.30261521  0.56768405  0.08146119
   0.19738479  0.06768405  0.08146119
   0.80261521  0.93231595  0.91853881
   0.80261521  0.43231595  0.58146119
   0.19738479  0.56768405  0.41853881
   0.80261521  0.56768405  0.41853881
   0.19738479  0.43231595  0.58146119
   0.19738479  0.93231595  0.91853881
   0.80261521  0.06768405  0.08146119
   0.00000000  0.60301464  0.20651132
   0.00000000  0.39698536  0.79348865
   0.00000000  0.89698536  0.70651135
   0.00000000  0.10301464  0.29348868
   0.50000000  0.10301464  0.20651132
   0.50000000  0.89698536  0.79348865
   0.50000000  0.39698536  0.70651135
   0.50000000  0.60301464  0.29348868
   0.00000000  0.22855154  0.92213169
   0.00000000  0.77144846  0.07786831
   0.00000000  0.27144846  0.42213169
   0.00000000  0.72855154  0.57786831
   0.50000000  0.72855154  0.92213169
   0.50000000  0.27144846  0.07786831
   0.50000000  0.77144846  0.42213169
   0.50000000  0.22855154  0.57786831
   0.00000000  0.23253576  0.29840772
   0.00000000  0.76746424  0.70159226
   0.00000000  0.26746424  0.79840774
   0.00000000  0.73253576  0.20159226
   0.50000000  0.73253576  0.29840772
   0.50000000  0.26746424  0.70159226
   0.50000000  0.76746424  0.79840774
   0.50000000  0.23253576  0.20159226
   0.74966760  0.50000000 -0.00000000
   0.25033240  0.50000000 -0.00000000
   0.25033240  0.00000000  0.50000000
   0.74966760  0.00000000  0.50000000
   0.24966760 -0.00000000 -0.00000000
   0.75033240  0.00000000 -0.00000000
   0.75033240  0.50000000  0.50000000
   0.24966760  0.50000000  0.50000000
