diamond                                 
           1
     6.474541    0.000000    0.000000
     0.000000    6.474541    0.000000
     0.000000    0.000000    6.474541
   H    C 
  16   4
Direct configuration=     1
   0.45587999  0.83459997  0.53931999
   0.45587999  0.04190000  0.33202001
   0.45587999  0.11777000  0.61519998
   0.69524998  0.99809003  0.49551001
   0.60030001  0.52968001  0.15026000
   0.54931998  0.63409001  0.89600998
   0.56970000  0.35765001  0.93207002
   0.34876001  0.49586999  0.03313000
   0.08223999  0.01558006  0.15304001
   0.03126001  0.11998999  0.89879000
   0.05164003  0.84355003  0.93484998
   0.83069998  0.98176998  0.03591000
   0.07562006  0.53223002  0.66030997
   0.02463996  0.63664001  0.40605000
   0.04501998  0.36019999  0.44211999
   0.82406998  0.49842000  0.54316997
   0.51572001  0.99809003  0.49551001
   0.51703000  0.50432998  0.00287000
   0.99896002  0.99023002  0.00565000
   0.99234003  0.50687998  0.51292002
