diamond                                 
           1
    12.085832    0.000000    0.000000
     0.000000    8.453651    0.000000
     0.000000    0.000000    8.448387
   H    C 
  64  16
Direct configuration=     1
   0.07406076  0.77809727  0.26098446
   0.92593926  0.22190273  0.73901556
   0.92593926  0.72190273  0.76098444
   0.07406076  0.27809727  0.23901554
   0.92593926  0.27809727  0.23901554
   0.07406076  0.72190273  0.76098444
   0.07406076  0.22190273  0.73901556
   0.92593926  0.77809727  0.26098446
   0.57406074  0.27809727  0.26098446
   0.42593923  0.72190273  0.73901556
   0.42593923  0.22190273  0.76098444
   0.57406074  0.77809727  0.23901554
   0.42593923  0.77809727  0.23901554
   0.57406074  0.22190273  0.76098444
   0.57406074  0.72190273  0.73901556
   0.42593923  0.27809727  0.26098446
   0.80213958  0.58126140  0.93239887
   0.19786042  0.41873860  0.06760113
   0.19786042  0.91873860  0.43239887
   0.80213958  0.08126140  0.56760113
   0.19786042  0.08126140  0.56760113
   0.80213958  0.91873860  0.43239887
   0.80213958  0.41873860  0.06760113
   0.19786042  0.58126140  0.93239887
   0.30213958  0.08126140  0.93239887
   0.69786042  0.91873860  0.06760113
   0.69786042  0.41873860  0.43239887
   0.30213958  0.58126140  0.56760113
   0.69786042  0.58126140  0.56760113
   0.30213958  0.41873860  0.43239887
   0.30213958  0.91873860  0.06760113
   0.69786042  0.08126140  0.93239887
   0.69738852  0.56769036  0.08145496
   0.30261148  0.43230964  0.91854504
   0.30261148  0.93230964  0.58145496
   0.69738852  0.06769036  0.41854504
   0.30261148  0.06769036  0.41854504
   0.69738852  0.93230964  0.58145496
   0.69738852  0.43230964  0.91854504
   0.30261148  0.56769036  0.08145496
   0.19738852  0.06769036  0.08145496
   0.80261148  0.93230964  0.91854504
   0.80261148  0.43230964  0.58145496
   0.19738852  0.56769036  0.41854504
   0.80261148  0.56769036  0.41854504
   0.19738852  0.43230964  0.58145496
   0.19738852  0.93230964  0.91854504
   0.80261148  0.06769036  0.08145496
   0.00000000  0.60301146  0.20653533
   0.00000000  0.39698854  0.79346464
   0.00000000  0.89698854  0.70653536
   0.00000000  0.10301146  0.29346467
   0.50000000  0.10301146  0.20653533
   0.50000000  0.89698854  0.79346464
   0.50000000  0.39698854  0.70653536
   0.50000000  0.60301146  0.29346467
   0.00000000  0.22854436  0.92210504
   0.00000000  0.77145564  0.07789496
   0.00000000  0.27145564  0.42210504
   0.00000000  0.72854436  0.57789496
   0.50000000  0.72854436  0.92210504
   0.50000000  0.27145564  0.07789496
   0.50000000  0.77145564  0.42210504
   0.50000000  0.22854436  0.57789496
   0.00000000  0.23254205  0.29845871
   0.00000000  0.76745795  0.70154127
   0.00000000  0.26745795  0.79845873
   0.00000000  0.73254205  0.20154127
   0.50000000  0.73254205  0.29845871
   0.50000000  0.26745795  0.70154127
   0.50000000  0.76745795  0.79845873
   0.50000000  0.23254205  0.20154127
   0.74967223  0.50000000  0.00000000
   0.25032777  0.50000000  0.00000000
   0.25032777  0.00000000  0.50000000
   0.74967223  0.00000000  0.50000000
   0.24967223  0.00000000  0.00000000
   0.75032777  0.00000000  0.00000000
   0.75032777  0.50000000  0.50000000
   0.24967223  0.50000000  0.50000000
Direct configuration=     2
   0.07403159  0.77809265  0.26090833
   0.92596843  0.22190735  0.73909170
   0.92596843  0.72190735  0.76090830
   0.07403159  0.27809265  0.23909167
   0.92596843  0.27809265  0.23909167
   0.07403159  0.72190735  0.76090830
   0.07403159  0.22190735  0.73909170
   0.92596843  0.77809265  0.26090833
   0.57403157  0.27809265  0.26090833
   0.42596840  0.72190735  0.73909170
   0.42596840  0.22190735  0.76090830
   0.57403157  0.77809265  0.23909167
   0.42596840  0.77809265  0.23909167
   0.57403157  0.22190735  0.76090830
   0.57403157  0.72190735  0.73909170
   0.42596840  0.27809265  0.26090833
   0.80210640  0.58127059  0.93242299
   0.19789360  0.41872941  0.06757701
   0.19789360  0.91872941  0.43242299
   0.80210640  0.08127059  0.56757701
   0.19789360  0.08127059  0.56757701
   0.80210640  0.91872941  0.43242299
   0.80210640  0.41872941  0.06757701
   0.19789360  0.58127059  0.93242299
   0.30210640  0.08127059  0.93242299
   0.69789360  0.91872941  0.06757701
   0.69789360  0.41872941  0.43242299
   0.30210640  0.58127059  0.56757701
   0.69789360  0.58127059  0.56757701
   0.30210640  0.41872941  0.43242299
   0.30210640  0.91872941  0.06757701
   0.69789360  0.08127059  0.93242299
   0.69739328  0.56765654  0.08144789
   0.30260672  0.43234346  0.91855211
   0.30260672  0.93234346  0.58144789
   0.69739328  0.06765654  0.41855211
   0.30260672  0.06765654  0.41855211
   0.69739328  0.93234346  0.58144789
   0.69739328  0.43234346  0.91855211
   0.30260672  0.56765654  0.08144789
   0.19739328  0.06765654  0.08144789
   0.80260672  0.93234346  0.91855211
   0.80260672  0.43234346  0.58144789
   0.19739328  0.56765654  0.41855211
   0.80260672  0.56765654  0.41855211
   0.19739328  0.43234346  0.58144789
   0.19739328  0.93234346  0.91855211
   0.80260672  0.06765654  0.08144789
   0.00000000  0.60305345  0.20648019
   0.00000000  0.39694655  0.79351978
   0.00000000  0.89694655  0.70648022
   0.00000000  0.10305345  0.29351981
   0.50000000  0.10305345  0.20648019
   0.50000000  0.89694655  0.79351978
   0.50000000  0.39694655  0.70648022
   0.50000000  0.60305345  0.29351981
   0.00000000  0.22857088  0.92213685
   0.00000000  0.77142912  0.07786315
   0.00000000  0.27142912  0.42213685
   0.00000000  0.72857088  0.57786315
   0.50000000  0.72857088  0.92213685
   0.50000000  0.27142912  0.07786315
   0.50000000  0.77142912  0.42213685
   0.50000000  0.22857088  0.57786315
   0.00000000  0.23252967  0.29832905
   0.00000000  0.76747033  0.70167094
   0.00000000  0.26747033  0.79832906
   0.00000000  0.73252967  0.20167094
   0.50000000  0.73252967  0.29832905
   0.50000000  0.26747033  0.70167094
   0.50000000  0.76747033  0.79832906
   0.50000000  0.23252967  0.20167094
   0.74965828  0.50000000  0.00000000
   0.25034172  0.50000000  0.00000000
   0.25034172  0.00000000  0.50000000
   0.74965828  0.00000000  0.50000000
   0.24965828  0.00000000  0.00000000
   0.75034172  0.00000000  0.00000000
   0.75034172  0.50000000  0.50000000
   0.24965828  0.50000000  0.50000000
Direct configuration=     3
   0.07404924  0.77809544  0.26095438
   0.92595079  0.22190456  0.73904565
   0.92595079  0.72190456  0.76095435
   0.07404924  0.27809544  0.23904562
   0.92595079  0.27809544  0.23904562
   0.07404924  0.72190456  0.76095435
   0.07404924  0.22190456  0.73904565
   0.92595079  0.77809544  0.26095438
   0.57404921  0.27809544  0.26095438
   0.42595076  0.72190456  0.73904565
   0.42595076  0.22190456  0.76095435
   0.57404921  0.77809544  0.23904562
   0.42595076  0.77809544  0.23904562
   0.57404921  0.22190456  0.76095435
   0.57404921  0.72190456  0.73904565
   0.42595076  0.27809544  0.26095438
   0.80212647  0.58126503  0.93240840
   0.19787353  0.41873497  0.06759160
   0.19787353  0.91873497  0.43240840
   0.80212647  0.08126503  0.56759160
   0.19787353  0.08126503  0.56759160
   0.80212647  0.91873497  0.43240840
   0.80212647  0.41873497  0.06759160
   0.19787353  0.58126503  0.93240840
   0.30212647  0.08126503  0.93240840
   0.69787353  0.91873497  0.06759160
   0.69787353  0.41873497  0.43240840
   0.30212647  0.58126503  0.56759160
   0.69787353  0.58126503  0.56759160
   0.30212647  0.41873497  0.43240840
   0.30212647  0.91873497  0.06759160
   0.69787353  0.08126503  0.93240840
   0.69739040  0.56767700  0.08145216
   0.30260960  0.43232300  0.91854784
   0.30260960  0.93232300  0.58145216
   0.69739040  0.06767700  0.41854784
   0.30260960  0.06767700  0.41854784
   0.69739040  0.93232300  0.58145216
   0.69739040  0.43232300  0.91854784
   0.30260960  0.56767700  0.08145216
   0.19739040  0.06767700  0.08145216
   0.80260960  0.93232300  0.91854784
   0.80260960  0.43232300  0.58145216
   0.19739040  0.56767700  0.41854784
   0.80260960  0.56767700  0.41854784
   0.19739040  0.43232300  0.58145216
   0.19739040  0.93232300  0.91854784
   0.80260960  0.06767700  0.08145216
   0.00000000  0.60302805  0.20651354
   0.00000000  0.39697195  0.79348643
   0.00000000  0.89697195  0.70651357
   0.00000000  0.10302805  0.29348646
   0.50000000  0.10302805  0.20651354
   0.50000000  0.89697195  0.79348643
   0.50000000  0.39697195  0.70651357
   0.50000000  0.60302805  0.29348646
   0.00000000  0.22855484  0.92211761
   0.00000000  0.77144516  0.07788239
   0.00000000  0.27144516  0.42211761
   0.00000000  0.72855484  0.57788239
   0.50000000  0.72855484  0.92211761
   0.50000000  0.27144516  0.07788239
   0.50000000  0.77144516  0.42211761
   0.50000000  0.22855484  0.57788239
   0.00000000  0.23253716  0.29840747
   0.00000000  0.76746284  0.70159251
   0.00000000  0.26746284  0.79840749
   0.00000000  0.73253716  0.20159251
   0.50000000  0.73253716  0.29840747
   0.50000000  0.26746284  0.70159251
   0.50000000  0.76746284  0.79840749
   0.50000000  0.23253716  0.20159251
   0.74966672  0.50000000  0.00000000
   0.25033328  0.50000000  0.00000000
   0.25033328  0.00000000  0.50000000
   0.74966672  0.00000000  0.50000000
   0.24966672  0.00000000  0.00000000
   0.75033328  0.00000000  0.00000000
   0.75033328  0.50000000  0.50000000
   0.24966672  0.50000000  0.50000000
