   16   16    1    1
  0.5825095E+01  0.5089159E-09  0.5089159E-09  0.5089159E-09  0.5000000E-15
  1.000000000000000E-004
  CAR 
 diamond                                 
     64     72     41
 
  0.0000000E+00  0.0000000E+00  0.0000000E+00  0.6944444E-02
    1      -11.747739
    2       -6.136847
    3       -6.124902
    4       -6.124848
    5       -6.113512
    6       -3.719623
    7       -3.708700
    8       -3.708579
    9       -3.698333
   10       -3.223692
   11       -3.209575
   12       -3.205007
   13       -3.204913
   14       -3.200265
   15       -3.185294
   16        3.222739
   17        3.233054
   18        3.233771
   19        3.233838
   20        3.234553
   21        3.244730
   22        6.608742
   23        6.631277
   24        6.638449
   25        6.639016
   26        6.641559
   27        6.642109
   28        6.649499
   29        6.671707
   30        9.353524
   31        9.372017
   32        9.390937
   33       14.055861
   34       14.067745
   35       14.076538
   36       14.076703
   37       14.085058
   38       14.095830
   39       14.872522
   40       14.889042
   41       14.905829
 
  0.1666667E+00 -0.1387779E-16 -0.4163336E-16  0.1388889E-01
    1      -11.558996
    2       -7.254435
    3       -6.165795
    4       -6.159091
    5       -6.150261
    6       -4.393438
    7       -4.386165
    8       -4.378862
    9       -3.349168
   10       -3.339552
   11       -3.336380
   12       -2.264849
   13       -1.832370
   14       -1.824444
   15       -1.817007
   16        2.695810
   17        2.699103
   18        2.709085
   19        3.390379
   20        3.397880
   21        3.398578
   22        5.996620
   23        6.002248
   24        6.025461
   25        6.286201
   26        6.296628
   27        6.301487
   28        6.750420
   29        6.764140
   30        8.185205
   31        9.043733
   32        9.060066
   33       14.075080
   34       14.080511
   35       14.091392
   36       15.191368
   37       15.203670
   38       15.211332
   39       15.299204
   40       15.315006
   41       15.561748
 
  0.3333333E+00 -0.2775558E-16 -0.2775558E-16  0.1388889E-01
    1      -10.995236
    2       -8.791461
    3       -6.130473
    4       -6.123617
    5       -6.115818
    6       -5.283101
    7       -5.276149
    8       -5.268774
    9       -2.411840
   10       -2.402656
   11       -2.399058
   12       -0.726489
   13       -0.717296
   14       -0.712681
   15        0.184998
   16        1.917964
   17        1.920876
   18        1.933764
   19        3.869190
   20        3.877598
   21        3.877889
   22        4.479475
   23        4.485117
   24        4.504436
   25        5.494536
   26        5.504208
   27        5.506962
   28        5.698298
   29        7.101008
   30        7.115186
   31        8.364685
   32        8.379508
   33       14.560230
   34       14.564382
   35       14.575538
   36       16.188480
   37       16.204718
   38       16.354420
   39       16.359758
   40       16.371125
   41       16.587697
 
  0.5000000E+00  0.0000000E+00 -0.5551115E-16  0.6944444E-02
    1      -10.073099
    2      -10.057278
    3       -5.868696
    4       -5.854274
    5       -5.853093
    6       -5.850282
    7       -5.848578
    8       -5.832567
    9       -1.246707
   10       -1.228840
   11       -1.226530
   12       -1.222073
   13       -1.221548
   14       -1.216581
   15        2.768011
   16        2.770901
   17        2.771035
   18        2.775637
   19        2.781192
   20        2.806624
   21        2.903782
   22        2.926834
   23        4.592993
   24        4.609356
   25        4.617022
   26        4.623095
   27        4.627423
   28        4.628677
   29        7.644371
   30        7.672022
   31        7.677631
   32        7.678532
   33       15.344758
   34       15.350967
   35       15.369329
   36       15.371045
   37       15.371870
   38       15.375468
   39       17.018702
   40       17.036644
   41       17.047214
 
  0.0000000E+00  0.1666667E+00 -0.6938894E-17  0.1388889E-01
    1      -11.558997
    2       -7.253560
    3       -6.168462
    4       -6.159134
    5       -6.150127
    6       -4.397273
    7       -4.386327
    8       -4.375522
    9       -3.349227
   10       -3.339387
   11       -3.329632
   12       -2.269996
   13       -1.835242
   14       -1.823790
   15       -1.811992
   16        2.691599
   17        2.697607
   18        2.703519
   19        3.391708
   20        3.398602
   21        3.405624
   22        5.991468
   23        5.998941
   24        6.005760
   25        6.293828
   26        6.302366
   27        6.311504
   28        6.747655
   29        6.771886
   30        8.172036
   31        9.045184
   32        9.073854
   33       14.074439
   34       14.085200
   35       14.095282
   36       15.189562
   37       15.200805
   38       15.209693
   39       15.286707
   40       15.313281
   41       15.572954
 
  0.1666667E+00  0.1666667E+00 -0.4163336E-16  0.1388889E-01
    1      -11.496126
    2       -6.598144
    3       -6.587602
    4       -6.584311
    5       -6.574249
    6       -5.678823
    7       -3.065159
    8       -3.053129
    9       -3.053041
   10       -3.042475
   11       -2.820266
   12       -2.811074
   13       -2.807489
   14       -2.796835
   15       -0.498703
   16        2.724090
   17        2.728884
   18        2.732907
   19        2.737612
   20        3.473254
   21        3.481927
   22        5.780964
   23        5.790653
   24        5.799190
   25        5.808578
   26        6.569025
   27        6.586299
   28        6.589021
   29        6.606638
   30        8.479497
   31        8.499529
   32        8.757075
   33       13.533644
   34       14.692664
   35       15.044964
   36       15.058603
   37       15.062396
   38       15.074730
   39       15.207951
   40       15.976145
   41       15.993665
 
  0.3333333E+00  0.1666667E+00 -0.2775558E-16  0.1388889E-01
    1      -11.057459
    2       -8.140359
    3       -6.791482
    4       -6.781647
    5       -6.678080
    6       -5.714721
    7       -4.048032
    8       -4.037471
    9       -2.895423
   10       -1.866166
   11       -1.855976
   12       -1.721932
   13       -1.712073
   14       -0.545682
   15        0.787489
   16        1.565884
   17        1.574603
   18        3.118563
   19        3.125162
   20        3.324440
   21        3.872907
   22        4.015950
   23        4.760472
   24        4.769604
   25        5.849743
   26        5.868100
   27        6.043622
   28        6.059259
   29        6.545003
   30        7.090697
   31        7.701320
   32        8.437255
   33       13.910153
   34       14.978422
   35       15.340573
   36       15.352879
   37       16.521074
   38       16.785285
   39       17.019321
   40       17.034330
   41       17.339544
 
  0.5000000E+00  0.1666667E+00 -0.8326673E-16  0.1388889E-01
    1      -10.249476
    2       -9.513214
    3       -7.343769
    4       -6.685612
    5       -6.675885
    6       -4.807107
    7       -4.769516
    8       -4.758518
    9       -2.454553
   10       -1.528904
   11       -1.519099
   12       -0.683502
   13       -0.673400
   14        0.874973
   15        1.600562
   16        1.614274
   17        2.043418
   18        2.085016
   19        3.509346
   20        3.518165
   21        3.753161
   22        3.841592
   23        3.849316
   24        3.899801
   25        4.552943
   26        4.907164
   27        4.919237
   28        4.982992
   29        6.173586
   30        6.998817
   31        7.766089
   32        7.793878
   33       14.840522
   34       15.805839
   35       15.830496
   36       15.953620
   37       15.966479
   38       16.347848
   39       16.361305
   40       17.018388
   41       17.827381
 
 -0.3333333E+00  0.1666667E+00  0.2775558E-16  0.1388889E-01
    1      -10.559315
    2       -9.088569
    3       -7.659039
    4       -6.247163
    5       -6.237389
    6       -5.266922
    7       -5.255558
    8       -3.945028
    9       -2.516466
   10       -2.506228
   11       -1.949184
   12       -0.222384
   13        0.178963
   14        0.189774
   15        0.690712
   16        1.177406
   17        2.559766
   18        2.566161
   19        3.112177
   20        3.129919
   21        3.819988
   22        3.828655
   23        4.193686
   24        4.807627
   25        4.810011
   26        4.820119
   27        5.190258
   28        5.417371
   29        6.504365
   30        6.755804
   31        7.064052
   32        8.498018
   33       15.019054
   34       15.407217
   35       15.420351
   36       15.940667
   37       16.155371
   38       16.567154
   39       16.784544
   40       16.799477
   41       17.216040
 
 -0.1666667E+00  0.1666667E+00  0.2235636E-16  0.1388889E-01
    1      -11.245275
    2       -7.631625
    3       -7.617488
    4       -5.683995
    5       -5.672356
    6       -5.475058
    7       -5.464951
    8       -3.268085
    9       -3.257365
   10       -3.134405
   11       -2.747706
   12       -1.374814
   13       -1.360087
   14       -0.508286
   15       -0.497316
   16        1.334030
   17        2.887680
   18        2.890288
   19        3.154880
   20        3.167714
   21        3.642478
   22        4.759414
   23        4.777544
   24        5.783244
   25        5.792624
   26        6.254656
   27        6.275505
   28        6.437628
   29        6.448237
   30        7.179081
   31        7.679309
   32        9.041316
   33       14.478674
   34       14.546014
   35       14.559444
   36       15.406543
   37       16.114136
   38       16.133925
   39       16.151891
   40       16.493167
   41       17.035191
 
  0.0000000E+00  0.3333333E+00  0.2775558E-16  0.1388889E-01
    1      -10.995226
    2       -8.791322
    3       -6.133877
    4       -6.123793
    5       -6.114133
    6       -5.286881
    7       -5.276388
    8       -5.265730
    9       -2.412788
   10       -2.401973
   11       -2.391339
   12       -0.726830
   13       -0.714809
   14       -0.702841
   15        0.180015
   16        1.910196
   17        1.916950
   18        1.923677
   19        3.871265
   20        3.878483
   21        3.885614
   22        4.472710
   23        4.481883
   24        4.490790
   25        5.499395
   26        5.507768
   27        5.515668
   28        5.690116
   29        7.098857
   30        7.123155
   31        8.364524
   32        8.390617
   33       14.560136
   34       14.570460
   35       14.580147
   36       16.178096
   37       16.206493
   38       16.357842
   39       16.367042
   40       16.378163
   41       16.593473
 
  0.1666667E+00  0.3333333E+00  0.0000000E+00  0.1388889E-01
    1      -11.057455
    2       -8.140120
    3       -6.791557
    4       -6.781641
    5       -6.678179
    6       -5.717237
    7       -4.048531
    8       -4.037793
    9       -2.888567
   10       -1.866527
   11       -1.855714
   12       -1.719632
   13       -1.709465
   14       -0.550521
   15        0.791853
   16        1.561579
   17        1.567824
   18        3.121841
   19        3.129700
   20        3.319361
   21        3.873346
   22        4.009011
   23        4.755388
   24        4.765362
   25        5.856714
   26        5.870938
   27        6.045340
   28        6.067373
   29        6.533882
   30        7.087059
   31        7.700047
   32        8.452546
   33       13.911765
   34       14.973187
   35       15.345125
   36       15.358716
   37       16.519564
   38       16.786698
   39       17.019508
   40       17.037819
   41       17.343131
 
  0.3333333E+00  0.3333333E+00 -0.2775558E-16  0.1388889E-01
    1      -10.744943
    2       -7.803492
    3       -7.168958
    4       -7.159405
    5       -7.154756
    6       -7.145204
    7       -2.699639
    8       -2.687800
    9       -2.687512
   10       -2.676112
   11       -0.978688
   12       -0.968709
   13       -0.963865
   14       -0.953719
   15        1.762820
   16        1.767151
   17        1.771430
   18        1.775731
   19        2.268630
   20        3.805168
   21        3.814569
   22        3.821098
   23        3.830451
   24        4.194315
   25        4.203751
   26        6.466956
   27        6.484714
   28        6.487242
   29        6.504202
   30        6.866086
   31        6.880114
   32        7.138008
   33       13.465671
   34       14.231282
   35       17.016144
   36       17.278777
   37       17.291456
   38       17.304702
   39       17.318739
   40       17.455115
   41       17.470686
 
  0.5000000E+00  0.3333333E+00  0.0000000E+00  0.1388889E-01
    1      -10.062247
    2       -8.605457
    3       -8.591254
    4       -7.199969
    5       -7.190463
    6       -5.893357
    7       -3.557105
    8       -3.545684
    9       -1.789338
   10       -1.780798
   11       -1.085902
   12        0.120941
   13        0.131611
   14        0.928520
   15        0.936937
   16        1.487585
   17        1.652454
   18        2.472560
   19        2.480846
   20        2.722779
   21        2.731187
   22        3.025931
   23        3.952640
   24        4.743320
   25        4.801423
   26        4.808721
   27        5.616125
   28        5.911517
   29        5.930598
   30        6.134019
   31        6.740382
   32        7.249658
   33       14.067759
   34       14.483224
   35       16.444511
   36       17.717770
   37       17.813152
   38       17.823491
   39       17.845345
   40       17.857510
   41       17.903749
 
 -0.3333333E+00  0.3333333E+00  0.3137367E-16  0.1388889E-01
    1       -9.756796
    2       -9.029163
    3       -9.015028
    4       -6.893903
    5       -6.884318
    6       -4.494847
    7       -4.378733
    8       -4.366627
    9       -2.130136
   10       -2.120067
   11       -1.397783
   12        0.239999
   13        0.786260
   14        0.798222
   15        1.710363
   16        1.724429
   17        2.235594
   18        2.243010
   19        2.273892
   20        2.290136
   21        3.598253
   22        3.606719
   23        3.773507
   24        4.680561
   25        4.688179
   26        4.707691
   27        4.801162
   28        5.622806
   29        5.643740
   30        6.002678
   31        6.016553
   32        8.019358
   33       15.283301
   34       15.293244
   35       15.632660
   36       16.886194
   37       16.926420
   38       16.942700
   39       17.803092
   40       18.049823
   41       18.081995
 
 -0.1666667E+00  0.3333333E+00  0.5551115E-16  0.1388889E-01
    1      -10.559292
    2       -9.088508
    3       -7.659398
    4       -6.247262
    5       -6.237440
    6       -5.267115
    7       -5.255530
    8       -3.947857
    9       -2.515998
   10       -2.505582
   11       -1.941455
   12       -0.216315
   13        0.181283
   14        0.192362
   15        0.685191
   16        1.171696
   17        2.551380
   18        2.557355
   19        3.110741
   20        3.124909
   21        3.822849
   22        3.838712
   23        4.194171
   24        4.798089
   25        4.816388
   26        4.821891
   27        5.180812
   28        5.419515
   29        6.501336
   30        6.764172
   31        7.075144
   32        8.496370
   33       15.019649
   34       15.410535
   35       15.424237
   36       15.943252
   37       16.159241
   38       16.562618
   39       16.789986
   40       16.806468
   41       17.210828
 
  0.0000000E+00  0.5000000E+00 -0.2775558E-16  0.1388889E-01
    1      -10.065263
    2      -10.065096
    3       -5.874119
    4       -5.856220
    5       -5.851670
    6       -5.851653
    7       -5.847119
    8       -5.829423
    9       -1.246062
   10       -1.229096
   11       -1.223417
   12       -1.223393
   13       -1.217759
   14       -1.200984
   15        2.756392
   16        2.768458
   17        2.772219
   18        2.772294
   19        2.775667
   20        2.786865
   21        2.906117
   22        2.907200
   23        4.606077
   24        4.620584
   25        4.620802
   26        4.620872
   27        4.621135
   28        4.635930
   29        7.646468
   30        7.670867
   31        7.672822
   32        7.697931
   33       15.347439
   34       15.366423
   35       15.368438
   36       15.368502
   37       15.369982
   38       15.387357
   39       17.002358
   40       17.035534
   41       17.071880
 
  0.1666667E+00  0.5000000E+00 -0.5551115E-16  0.2777778E-01
    1      -10.249392
    2       -9.513278
    3       -7.344002
    4       -6.685717
    5       -6.675923
    6       -4.809580
    7       -4.769757
    8       -4.759515
    9       -2.446225
   10       -1.526767
   11       -1.516857
   12       -0.682302
   13       -0.672166
   14        0.883023
   15        1.597282
   16        1.607101
   17        2.037891
   18        2.078242
   19        3.501784
   20        3.511033
   21        3.743383
   22        3.845169
   23        3.852452
   24        3.891808
   25        4.554306
   26        4.909959
   27        4.929558
   28        4.983855
   29        6.181811
   30        6.996637
   31        7.763669
   32        7.806257
   33       14.842875
   34       15.799283
   35       15.831602
   36       15.959800
   37       15.972553
   38       16.354741
   39       16.367138
   40       17.027161
   41       17.793886
 
  0.3333333E+00  0.5000000E+00 -0.1110223E-15  0.2777778E-01
    1      -10.062211
    2       -8.609079
    3       -8.587634
    4       -7.199993
    5       -7.190466
    6       -5.893991
    7       -3.557658
    8       -3.546019
    9       -1.787743
   10       -1.779152
   11       -1.080716
   12        0.121585
   13        0.132275
   14        0.926319
   15        0.932554
   16        1.482950
   17        1.646862
   18        2.475502
   19        2.482615
   20        2.720653
   21        2.729670
   22        3.035277
   23        3.958437
   24        4.733821
   25        4.791070
   26        4.808017
   27        5.616700
   28        5.911982
   29        5.931809
   30        6.133260
   31        6.754127
   32        7.248192
   33       14.069685
   34       14.480560
   35       16.444891
   36       17.717542
   37       17.825244
   38       17.835110
   39       17.855768
   40       17.867331
   41       17.922948
 
  0.5000000E+00  0.5000000E+00 -0.5551115E-16  0.1388889E-01
    1       -9.513147
    2       -9.499065
    3       -7.381241
    4       -7.371808
    5       -7.366902
    6       -7.357571
    7       -2.468678
    8       -2.456673
    9       -2.456009
   10       -2.444441
   11        0.790992
   12        0.803157
   13        0.803495
   14        0.815115
   15        1.271664
   16        1.276042
   17        1.279636
   18        1.283769
   19        1.941359
   20        1.946977
   21        1.949765
   22        1.955162
   23        4.884941
   24        4.888288
   25        5.344347
   26        5.355253
   27        5.365413
   28        5.376456
   29        6.418774
   30        6.435690
   31        6.438125
   32        6.455921
   33       13.746356
   34       13.753763
   35       17.149288
   36       17.160190
   37       17.165546
   38       17.176150
   39       19.173101
   40       19.194615
   41       19.214808
 
  0.0000000E+00  0.0000000E+00  0.2500000E+00  0.1388889E-01
    1      -11.323631
    2       -8.043977
    3       -6.173089
    4       -6.163350
    5       -6.153956
    6       -4.880808
    7       -4.870096
    8       -4.859363
    9       -2.933915
   10       -2.923548
   11       -2.913325
   12       -1.171930
   13       -1.159495
   14       -1.148466
   15       -1.094493
   16        2.213777
   17        2.220292
   18        2.226747
   19        3.594381
   20        3.601398
   21        3.608473
   22        5.297484
   23        5.306010
   24        5.314082
   25        5.929151
   26        5.937543
   27        5.946153
   28        6.894947
   29        6.919156
   30        7.006292
   31        8.725095
   32        8.752344
   33       14.273067
   34       14.283502
   35       14.293307
   36       15.708857
   37       15.735997
   38       16.110096
   39       16.270505
   40       16.280711
   41       16.292621
 
  0.1666667E+00 -0.1387779E-16  0.2500000E+00  0.1388889E-01
    1      -11.323524
    2       -7.362056
    3       -6.725971
    4       -6.715860
    5       -6.218977
    6       -6.168750
    7       -3.586855
    8       -3.576176
    9       -2.909366
   10       -2.387781
   11       -2.374698
   12       -2.350957
   13       -2.340582
   14       -1.754101
   15        0.188538
   16        2.127836
   17        2.134290
   18        2.881409
   19        2.889540
   20        3.474547
   21        3.634795
   22        4.961576
   23        5.320700
   24        5.330451
   25        5.797687
   26        6.270372
   27        6.431254
   28        6.452866
   29        6.807323
   30        7.682885
   31        8.093698
   32        8.642851
   33       13.607618
   34       14.723876
   35       15.154797
   36       15.168530
   37       15.715733
   38       16.079689
   39       16.092940
   40       16.498749
   41       16.503471
 
  0.3333333E+00 -0.2775558E-16  0.2500000E+00  0.1388889E-01
    1      -10.947898
    2       -7.688344
    3       -7.281227
    4       -7.016106
    5       -7.006388
    6       -6.380245
    7       -3.368315
    8       -3.357577
    9       -2.219455
   10       -2.208891
   11       -2.056030
   12       -1.457119
   13       -1.447332
   14       -0.793718
   15        1.543978
   16        1.600254
   17        1.607850
   18        2.459374
   19        2.466588
   20        3.864700
   21        3.884443
   22        3.994358
   23        4.342438
   24        4.351753
   25        4.886849
   26        6.145695
   27        6.371354
   28        6.389845
   29        6.838785
   30        6.843273
   31        7.283719
   32        7.876776
   33       13.577838
   34       14.493677
   35       16.279424
   36       16.292542
   37       16.613325
   38       17.031534
   39       17.376535
   40       17.397288
   41       17.560801
 
  0.5000000E+00  0.0000000E+00  0.2500000E+00  0.1388889E-01
    1      -10.202258
    2       -9.102643
    3       -8.006260
    4       -6.984301
    5       -6.974704
    6       -5.182210
    7       -4.167214
    8       -4.156058
    9       -1.992482
   10       -1.635601
   11       -1.626428
   12       -0.307179
   13       -0.296872
   14        1.163660
   15        1.175489
   16        1.756386
   17        1.800118
   18        1.962629
   19        3.181931
   20        3.191850
   21        3.222310
   22        3.229058
   23        4.270058
   24        4.386580
   25        4.640979
   26        5.104639
   27        5.270141
   28        5.390620
   29        5.407738
   30        6.569567
   31        7.369524
   32        7.570463
   33       14.463686
   34       15.118986
   35       16.116735
   36       16.783789
   37       16.798010
   38       17.201289
   39       17.217462
   40       17.370205
   41       17.822930
 
 -0.3333333E+00  0.2775558E-16  0.2500000E+00  0.1388889E-01
    1      -10.203116
    2       -9.101058
    3       -8.376870
    4       -6.612262
    5       -6.602597
    6       -4.814884
    7       -4.803082
    8       -3.941169
    9       -2.379381
   10       -2.369047
   11       -1.888607
   12        0.306669
   13        0.563815
   14        0.575261
   15        1.009697
   16        1.732773
   17        2.391960
   18        2.406815
   19        2.481129
   20        2.486287
   21        4.103795
   22        4.118714
   23        4.229241
   24        4.237739
   25        4.373890
   26        4.465134
   27        5.487182
   28        5.596749
   29        5.657899
   30        6.080018
   31        6.614182
   32        8.318749
   33       15.297320
   34       15.655245
   35       15.945175
   36       16.168453
   37       16.183182
   38       16.449947
   39       17.443703
   40       17.482767
   41       17.786426
 
 -0.1666667E+00  0.1387779E-16  0.2500000E+00  0.1388889E-01
    1      -10.948289
    2       -8.388009
    3       -7.685336
    4       -5.902269
    5       -5.892398
    6       -5.472393
    7       -5.460500
    8       -3.505136
    9       -2.962919
   10       -2.952318
   11       -2.228973
   12       -0.811313
   13       -0.135441
   14        0.019371
   15        0.030393
   16        0.785807
   17        2.609530
   18        2.614374
   19        3.410827
   20        3.425336
   21        3.883139
   22        3.957470
   23        3.973523
   24        5.323283
   25        5.331969
   26        5.861968
   27        5.882297
   28        6.099482
   29        6.349145
   30        6.741419
   31        7.152925
   32        8.814263
   33       14.713401
   34       14.972105
   35       14.985784
   36       15.733690
   37       16.502907
   38       16.679268
   39       16.824077
   40       16.968352
   41       17.111324
 
  0.0000000E+00  0.1666667E+00  0.2500000E+00  0.1388889E-01
    1      -11.323522
    2       -7.362018
    3       -6.728549
    4       -6.714591
    5       -6.218855
    6       -6.166717
    7       -3.589339
    8       -3.573564
    9       -2.915668
   10       -2.387033
   11       -2.368716
   12       -2.354823
   13       -2.338240
   14       -1.754215
   15        0.187712
   16        2.126408
   17        2.139203
   18        2.877566
   19        2.889918
   20        3.471085
   21        3.639364
   22        4.960911
   23        5.321902
   24        5.340214
   25        5.789145
   26        6.276550
   27        6.427376
   28        6.438691
   29        6.817633
   30        7.683410
   31        8.103004
   32        8.631965
   33       13.607511
   34       14.725928
   35       15.154597
   36       15.164272
   37       15.715285
   38       16.082558
   39       16.094502
   40       16.493297
   41       16.505818
 
  0.1666667E+00  0.1666667E+00  0.2500000E+00  0.1388889E-01
    1      -11.449077
    2       -7.478593
    3       -6.836156
    4       -5.920250
    5       -5.908728
    6       -4.970361
    7       -4.960352
    8       -3.669993
    9       -3.388551
   10       -3.377994
   11       -2.484834
   12       -2.407040
   13       -1.864208
   14       -1.158337
   15       -1.147622
   16        2.021919
   17        2.804750
   18        2.812800
   19        3.321348
   20        3.326032
   21        3.487151
   22        5.448272
   23        5.468693
   24        6.132418
   25        6.142306
   26        6.182141
   27        6.264099
   28        6.591621
   29        6.755813
   30        7.757626
   31        8.478308
   32        9.152716
   33       14.193545
   34       14.205995
   35       14.307379
   36       15.228280
   37       15.511171
   38       15.525922
   39       15.699701
   40       15.962775
   41       15.978511
 
  0.3333333E+00  0.1666667E+00  0.2500000E+00  0.1388889E-01
    1      -11.198287
    2       -7.924030
    3       -7.243996
    4       -6.112284
    5       -6.050876
    6       -5.691462
    7       -4.771069
    8       -3.541856
    9       -3.164070
   10       -2.812054
   11       -2.306174
   12       -1.652455
   13       -1.126960
   14       -1.003147
   15        0.147580
   16        1.389901
   17        2.289316
   18        3.056008
   19        3.097047
   20        3.501560
   21        3.593371
   22        4.518442
   23        4.762045
   24        5.637276
   25        5.856688
   26        5.869468
   27        6.172953
   28        6.290694
   29        6.889860
   30        6.935833
   31        7.800763
   32        8.850186
   33       14.091022
   34       14.715178
   35       15.056238
   36       15.188705
   37       16.197155
   38       16.458503
   39       16.480513
   40       16.639887
   41       17.093246
 
  0.5000000E+00  0.1666667E+00  0.2500000E+00  0.1388889E-01
    1      -10.574645
    2       -8.741788
    3       -8.026175
    4       -6.941234
    5       -5.586393
    6       -5.490741
    7       -5.142480
    8       -3.564872
    9       -2.640737
   10       -2.304527
   11       -2.103897
   12       -0.217510
   13        0.108568
   14        0.436412
   15        0.816741
   16        1.051703
   17        2.081501
   18        2.933336
   19        3.065748
   20        3.176531
   21        3.265606
   22        4.001065
   23        4.015988
   24        4.884532
   25        4.962505
   26        5.213154
   27        5.234046
   28        5.868824
   29        6.038833
   30        6.382546
   31        6.861848
   32        8.449142
   33       14.979517
   34       15.209114
   35       15.761357
   36       16.168542
   37       16.271455
   38       16.572268
   39       17.017983
   40       17.511894
   41       17.566040
 
 -0.3333333E+00  0.1666667E+00  0.2500000E+00  0.1388889E-01
    1       -9.956266
    2       -9.588633
    3       -7.773572
    4       -7.429491
    5       -6.082888
    6       -5.125152
    7       -4.611142
    8       -4.268155
    9       -2.194862
   10       -2.039016
   11       -1.232583
   12       -0.803137
   13        0.454528
   14        1.221209
   15        1.229244
   16        1.452311
   17        1.915724
   18        2.594067
   19        2.619888
   20        3.486405
   21        3.666374
   22        3.708444
   23        4.023232
   24        4.092077
   25        4.437086
   26        4.763106
   27        4.885581
   28        5.156568
   29        5.742389
   30        6.315485
   31        7.588588
   32        7.740550
   33       15.112719
   34       15.807915
   35       15.954486
   36       16.059632