  32  32   0   0
  0.5317807E+01  0.4934311E-09  0.4934311E-09  0.8070891E-09  0.5000000E-15
  1.000000000000000E-004
  CAR 
 graphite                                
     22.28809445    -13.76488254  301     11.68474971      1.00000000
    -13.765  0.0000E+00  0.0000E+00
    -13.645  0.0000E+00  0.0000E+00
    -13.525  0.0000E+00  0.0000E+00
    -13.404  0.0000E+00  0.0000E+00
    -13.284  0.0000E+00  0.0000E+00
    -13.164  0.0000E+00  0.0000E+00
    -13.044  0.0000E+00  0.0000E+00
    -12.924  0.0000E+00  0.0000E+00
    -12.803  0.0000E+00  0.0000E+00
    -12.683  0.0000E+00  0.0000E+00
    -12.563  0.0000E+00  0.0000E+00
    -12.443  0.0000E+00  0.0000E+00
    -12.323  0.0000E+00  0.0000E+00
    -12.203  0.0000E+00  0.0000E+00
    -12.082  0.0000E+00  0.0000E+00
    -11.962  0.0000E+00  0.0000E+00
    -11.842  0.0000E+00  0.0000E+00
    -11.722  0.9889E-01  0.1418E-02
    -11.602  0.6274E+00  0.5088E-01
    -11.482  0.8558E+00  0.1383E+00
    -11.361  0.1021E+01  0.2510E+00
    -11.241  0.1203E+01  0.3862E+00
    -11.121  0.1328E+01  0.5396E+00
    -11.001  0.1441E+01  0.7054E+00
    -10.881  0.1583E+01  0.8871E+00
    -10.760  0.1717E+01  0.1086E+01
    -10.640  0.1801E+01  0.1297E+01
    -10.520  0.1897E+01  0.1519E+01
    -10.400  0.2126E+01  0.1763E+01
    -10.280  0.2207E+01  0.2021E+01
    -10.160  0.2422E+01  0.2308E+01
    -10.039  0.2314E+01  0.2583E+01
     -9.919  0.2643E+01  0.2882E+01
     -9.799  0.2830E+01  0.3216E+01
     -9.679  0.2139E+01  0.3515E+01
     -9.559  0.2697E+01  0.3809E+01
     -9.439  0.1944E+01  0.4074E+01
     -9.318  0.2220E+01  0.4320E+01
     -9.198  0.3246E+01  0.4654E+01
     -9.078  0.3024E+01  0.5021E+01
     -8.958  0.3104E+01  0.5389E+01
     -8.838  0.3215E+01  0.5769E+01
     -8.717  0.3489E+01  0.6174E+01
     -8.597  0.4122E+01  0.6622E+01
     -8.477  0.3464E+01  0.7077E+01
     -8.357  0.2887E+01  0.7464E+01
     -8.237  0.2624E+01  0.7783E+01
     -8.117  0.2743E+01  0.8103E+01
     -7.996  0.3458E+01  0.8471E+01
     -7.876  0.4096E+01  0.8926E+01
     -7.756  0.3970E+01  0.9403E+01
     -7.636  0.3808E+01  0.9873E+01
     -7.516  0.3754E+01  0.1032E+02
     -7.396  0.3809E+01  0.1078E+02
     -7.275  0.3722E+01  0.1123E+02
     -7.155  0.4010E+01  0.1169E+02
     -7.035  0.4999E+01  0.1223E+02
     -6.915  0.5567E+01  0.1288E+02
     -6.795  0.5286E+01  0.1355E+02
     -6.674  0.4712E+01  0.1415E+02
     -6.554  0.4170E+01  0.1468E+02
     -6.434  0.4175E+01  0.1517E+02
     -6.314  0.4153E+01  0.1568E+02
     -6.194  0.4781E+01  0.1621E+02
     -6.074  0.4596E+01  0.1676E+02
     -5.953  0.5514E+01  0.1736E+02
     -5.833  0.6323E+01  0.1809E+02
     -5.713  0.5619E+01  0.1881E+02
     -5.593  0.5359E+01  0.1947E+02
     -5.473  0.4948E+01  0.2009E+02
     -5.353  0.4886E+01  0.2069E+02
     -5.232  0.5041E+01  0.2128E+02
     -5.112  0.4268E+01  0.2185E+02
     -4.992  0.3685E+01  0.2235E+02
     -4.872  0.3804E+01  0.2281E+02
     -4.752  0.4598E+01  0.2330E+02
     -4.631  0.5918E+01  0.2393E+02
     -4.511  0.6229E+01  0.2467E+02
     -4.391  0.5708E+01  0.2540E+02
     -4.271  0.5489E+01  0.2605E+02
     -4.151  0.5519E+01  0.2673E+02
     -4.031  0.5352E+01  0.2738E+02
     -3.910  0.4656E+01  0.2800E+02
     -3.790  0.4209E+01  0.2852E+02
     -3.670  0.3922E+01  0.2902E+02
     -3.550  0.4566E+01  0.2951E+02
     -3.430  0.5107E+01  0.3008E+02
     -3.310  0.5034E+01  0.3069E+02
     -3.189  0.4970E+01  0.3129E+02
     -3.069  0.4607E+01  0.3189E+02
     -2.949  0.4041E+01  0.3241E+02
     -2.829  0.3496E+01  0.3284E+02
     -2.709  0.3922E+01  0.3328E+02
     -2.588  0.4555E+01  0.3379E+02
     -2.468  0.5916E+01  0.3440E+02
     -2.348  0.7345E+01  0.3524E+02
     -2.228  0.6799E+01  0.3609E+02
     -2.108  0.5787E+01  0.3686E+02
     -1.988  0.5356E+01  0.3752E+02
     -1.867  0.5435E+01  0.3817E+02
     -1.747  0.5026E+01  0.3880E+02
     -1.627  0.5472E+01  0.3943E+02
     -1.507  0.5600E+01  0.4011E+02
     -1.387  0.5633E+01  0.4078E+02
     -1.267  0.5878E+01  0.4146E+02
     -1.146  0.5963E+01  0.4220E+02
     -1.026  0.5114E+01  0.4284E+02
     -0.906  0.4879E+01  0.4343E+02
     -0.786  0.5128E+01  0.4404E+02
     -0.666  0.6685E+01  0.4476E+02
     -0.545  0.6386E+01  0.4555E+02
     -0.425  0.6026E+01  0.4629E+02
     -0.305  0.6111E+01  0.4703E+02
     -0.185  0.6464E+01  0.4779E+02
     -0.065  0.6804E+01  0.4859E+02
      0.055  0.6834E+01  0.4941E+02
      0.176  0.5732E+01  0.5015E+02
      0.296  0.6216E+01  0.5085E+02
      0.416  0.6134E+01  0.5165E+02
      0.536  0.6065E+01  0.5236E+02
      0.656  0.6508E+01  0.5316E+02
      0.776  0.6540E+01  0.5399E+02
      0.897  0.7493E+01  0.5481E+02
      1.017  0.7812E+01  0.5578E+02
      1.137  0.6373E+01  0.5661E+02
      1.257  0.7141E+01  0.5739E+02
      1.377  0.8402E+01  0.5829E+02
      1.498  0.9676E+01  0.5947E+02
      1.618  0.7129E+01  0.6050E+02
      1.738  0.6841E+01  0.6132E+02
      1.858  0.7143E+01  0.6224E+02
      1.978  0.6312E+01  0.6302E+02
      2.098  0.7421E+01  0.6384E+02
      2.219  0.8110E+01  0.6477E+02
      2.339  0.1193E+02  0.6593E+02
      2.459  0.8035E+01  0.6718E+02
      2.579  0.7745E+01  0.6812E+02
      2.699  0.8810E+01  0.6912E+02
      2.819  0.9542E+01  0.7019E+02
      2.940  0.1139E+02  0.7141E+02
      3.060  0.1008E+02  0.7269E+02
      3.180  0.1053E+02  0.7388E+02
      3.300  0.1080E+02  0.7526E+02
      3.420  0.8937E+01  0.7639E+02
      3.541  0.1070E+02  0.7759E+02
      3.661  0.1103E+02  0.7898E+02
      3.781  0.1024E+02  0.8019E+02
      3.901  0.1154E+02  0.8149E+02
      4.021  0.1027E+02  0.8279E+02
      4.141  0.1053E+02  0.8403E+02
      4.262  0.8889E+01  0.8522E+02
      4.382  0.8721E+01  0.8624E+02
      4.502  0.1161E+02  0.8748E+02
      4.622  0.1090E+02  0.8888E+02
      4.742  0.1041E+02  0.9011E+02
      4.862  0.1043E+02  0.9137E+02
      4.983  0.1140E+02  0.9268E+02
      5.103  0.1057E+02  0.9401E+02
      5.223  0.8550E+01  0.9517E+02
      5.343  0.7948E+01  0.9615E+02
      5.463  0.9024E+01  0.9716E+02
      5.584  0.8519E+01  0.9821E+02
      5.704  0.7729E+01  0.9920E+02
      5.824  0.6749E+01  0.1001E+03
      5.944  0.7696E+01  0.1009E+03
      6.064  0.8227E+01  0.1019E+03
      6.184  0.7586E+01  0.1029E+03
      6.305  0.6979E+01  0.1037E+03
      6.425  0.6824E+01  0.1046E+03
      6.545  0.6272E+01  0.1053E+03
      6.665  0.5946E+01  0.1061E+03
      6.785  0.5541E+01  0.1068E+03
      6.905  0.5168E+01  0.1074E+03
      7.026  0.4912E+01  0.1080E+03
      7.146  0.4688E+01  0.1086E+03
      7.266  0.4651E+01  0.1092E+03
      7.386  0.4214E+01  0.1097E+03
      7.506  0.5329E+01  0.1102E+03
      7.627  0.4451E+01  0.1108E+03
      7.747  0.2974E+01  0.1113E+03
      7.867  0.3343E+01  0.1117E+03
      7.987  0.3112E+01  0.1121E+03
      8.107  0.3039E+01  0.1124E+03
      8.227  0.3120E+01  0.1128E+03
      8.348  0.3420E+01  0.1132E+03
      8.468  0.3642E+01  0.1136E+03
      8.588  0.3542E+01  0.1141E+03
      8.708  0.3456E+01  0.1145E+03
      8.828  0.3395E+01  0.1149E+03
      8.948  0.3683E+01  0.1153E+03
      9.069  0.3827E+01  0.1158E+03
      9.189  0.3912E+01  0.1162E+03
      9.309  0.3821E+01  0.1167E+03
      9.429  0.4900E+01  0.1172E+03
      9.549  0.5587E+01  0.1178E+03
      9.670  0.6089E+01  0.1185E+03
      9.790  0.6702E+01  0.1193E+03
      9.910  0.6315E+01  0.1201E+03
     10.030  0.6067E+01  0.1208E+03
     10.150  0.5401E+01  0.1215E+03
     10.270  0.4563E+01  0.1221E+03
     10.391  0.4108E+01  0.1226E+03
     10.511  0.3898E+01  0.1231E+03
     10.631  0.4011E+01  0.1236E+03
     10.751  0.5638E+01  0.1242E+03
     10.871  0.4907E+01  0.1249E+03
     10.991  0.2597E+01  0.1253E+03
     11.112  0.2926E+01  0.1256E+03
     11.232  0.3329E+01  0.1260E+03
     11.352  0.3521E+01  0.1264E+03
     11.472  0.4732E+01  0.1269E+03
     11.592  0.5330E+01  0.1275E+03
     11.713  0.5060E+01  0.1281E+03
     11.833  0.4669E+01  0.1288E+03
     11.953  0.3919E+01  0.1293E+03
     12.073  0.2900E+01  0.1297E+03
     12.193  0.2227E+01  0.1300E+03
     12.313  0.2474E+01  0.1303E+03
     12.434  0.2935E+01  0.1306E+03
     12.554  0.6149E+01  0.1311E+03
     12.674  0.6891E+01  0.1319E+03
     12.794  0.5822E+01  0.1327E+03
     12.914  0.5647E+01  0.1334E+03
     13.034  0.4843E+01  0.1340E+03
     13.155  0.4567E+01  0.1346E+03
     13.275  0.5253E+01  0.1352E+03
     13.395  0.5777E+01  0.1358E+03
     13.515  0.6094E+01  0.1365E+03
     13.635  0.6019E+01  0.1373E+03
     13.756  0.4104E+01  0.1379E+03
     13.876  0.5004E+01  0.1384E+03
     13.996  0.4543E+01  0.1390E+03
     14.116  0.4233E+01  0.1396E+03
     14.236  0.4574E+01  0.1401E+03
     14.356  0.4544E+01  0.1406E+03
     14.477  0.5250E+01  0.1412E+03
     14.597  0.4714E+01  0.1418E+03
     14.717  0.3830E+01  0.1424E+03
     14.837  0.4149E+01  0.1428E+03
     14.957  0.5048E+01  0.1434E+03
     15.077  0.5750E+01  0.1440E+03
     15.198  0.5278E+01  0.1447E+03
     15.318  0.4855E+01  0.1453E+03
     15.438  0.4865E+01  0.1459E+03
     15.558  0.5543E+01  0.1465E+03
     15.678  0.6382E+01  0.1472E+03
     15.799  0.4585E+01  0.1479E+03
     15.919  0.4306E+01  0.1484E+03
     16.039  0.4356E+01  0.1489E+03
     16.159  0.4737E+01  0.1495E+03
     16.279  0.5007E+01  0.1500E+03
     16.399  0.4662E+01  0.1506E+03
     16.520  0.5001E+01  0.1512E+03
     16.640  0.4885E+01  0.1518E+03
     16.760  0.4829E+01  0.1524E+03
     16.880  0.5012E+01  0.1530E+03
     17.000  0.5681E+01  0.1536E+03
     17.121  0.7781E+01  0.1544E+03
     17.241  0.6549E+01  0.1553E+03
     17.361  0.5765E+01  0.1561E+03
     17.481  0.7059E+01  0.1568E+03
     17.601  0.8543E+01  0.1578E+03
     17.721  0.8472E+01  0.1588E+03
     17.842  0.8131E+01  0.1598E+03
     17.962  0.7939E+01  0.1608E+03
     18.082  0.6187E+01  0.1617E+03
     18.202  0.5087E+01  0.1623E+03
     18.322  0.4252E+01  0.1629E+03
     18.442  0.3946E+01  0.1634E+03
     18.563  0.3864E+01  0.1638E+03
     18.683  0.3820E+01  0.1643E+03
     18.803  0.4178E+01  0.1648E+03
     18.923  0.4835E+01  0.1653E+03
     19.043  0.4863E+01  0.1659E+03
     19.164  0.3888E+01  0.1664E+03
     19.284  0.3124E+01  0.1668E+03
     19.404  0.2408E+01  0.1672E+03
     19.524  0.2066E+01  0.1674E+03
     19.644  0.1505E+01  0.1676E+03
     19.764  0.1077E+01  0.1678E+03
     19.885  0.7136E+00  0.1679E+03
     20.005  0.2967E+00  0.1680E+03
     20.125  0.1593E+00  0.1680E+03
     20.245  0.4466E-01  0.1680E+03
     20.365  0.0000E+00  0.1680E+03
     20.485  0.0000E+00  0.1680E+03
     20.606  0.0000E+00  0.1680E+03
     20.726  0.0000E+00  0.1680E+03
     20.846  0.0000E+00  0.1680E+03
     20.966  0.0000E+00  0.1680E+03
     21.086  0.0000E+00  0.1680E+03
     21.207  0.0000E+00  0.1680E+03
     21.327  0.0000E+00  0.1680E+03
     21.447  0.0000E+00  0.1680E+03
     21.567  0.0000E+00  0.1680E+03
     21.687  0.0000E+00  0.1680E+03
     21.807  0.0000E+00  0.1680E+03
     21.928  0.0000E+00  0.1680E+03
     22.048  0.0000E+00  0.1680E+03
     22.168  0.0000E+00  0.1680E+03
     22.288  0.0000E+00  0.1680E+03
