  32  32   0   0
  0.3545204E+01  0.4934311E-09  0.4934311E-09  0.5380594E-09  0.5000000E-15
  1.000000000000000E-004
  CAR 
 graphite                                
     28.33301833    -13.14148407  301     19.57151697      1.00000000
    -13.141  0.0000E+00  0.0000E+00
    -13.003  0.0000E+00  0.0000E+00
    -12.865  0.0000E+00  0.0000E+00
    -12.727  0.0000E+00  0.0000E+00
    -12.588  0.0000E+00  0.0000E+00
    -12.450  0.0000E+00  0.0000E+00
    -12.312  0.0000E+00  0.0000E+00
    -12.174  0.0000E+00  0.0000E+00
    -12.035  0.0000E+00  0.0000E+00
    -11.897  0.0000E+00  0.0000E+00
    -11.759  0.0000E+00  0.0000E+00
    -11.621  0.0000E+00  0.0000E+00
    -11.483  0.0000E+00  0.0000E+00
    -11.344  0.0000E+00  0.0000E+00
    -11.206  0.0000E+00  0.0000E+00
    -11.068  0.1329E+00  0.3266E-02
    -10.930  0.4412E+00  0.4256E-01
    -10.791  0.6340E+00  0.1213E+00
    -10.653  0.7430E+00  0.2168E+00
    -10.515  0.8598E+00  0.3276E+00
    -10.377  0.9581E+00  0.4535E+00
    -10.238  0.1070E+01  0.5933E+00
    -10.100  0.1174E+01  0.7493E+00
     -9.962  0.1230E+01  0.9154E+00
     -9.824  0.1342E+01  0.1092E+01
     -9.685  0.1439E+01  0.1285E+01
     -9.547  0.1552E+01  0.1495E+01
     -9.409  0.1427E+01  0.1701E+01
     -9.271  0.1432E+01  0.1893E+01
     -9.132  0.1738E+01  0.2111E+01
     -8.994  0.2188E+01  0.2376E+01
     -8.856  0.2307E+01  0.2696E+01
     -8.718  0.2344E+01  0.3016E+01
     -8.579  0.1634E+01  0.3287E+01
     -8.441  0.1443E+01  0.3491E+01
     -8.303  0.1416E+01  0.3694E+01
     -8.165  0.1586E+01  0.3899E+01
     -8.026  0.2467E+01  0.4153E+01
     -7.888  0.2283E+01  0.4467E+01
     -7.750  0.2418E+01  0.4794E+01
     -7.612  0.2359E+01  0.5125E+01
     -7.473  0.2194E+01  0.5441E+01
     -7.335  0.1955E+01  0.5727E+01
     -7.197  0.2033E+01  0.6000E+01
     -7.059  0.2320E+01  0.6299E+01
     -6.920  0.2415E+01  0.6627E+01
     -6.782  0.2811E+01  0.6994E+01
     -6.644  0.2826E+01  0.7388E+01
     -6.506  0.3012E+01  0.7786E+01
     -6.367  0.3412E+01  0.8229E+01
     -6.229  0.3619E+01  0.8721E+01
     -6.091  0.3439E+01  0.9208E+01
     -5.953  0.3285E+01  0.9674E+01
     -5.814  0.3118E+01  0.1011E+02
     -5.676  0.3056E+01  0.1054E+02
     -5.538  0.2865E+01  0.1096E+02
     -5.400  0.2665E+01  0.1134E+02
     -5.261  0.2450E+01  0.1169E+02
     -5.123  0.2299E+01  0.1202E+02
     -4.985  0.2654E+01  0.1235E+02
     -4.847  0.2913E+01  0.1274E+02
     -4.708  0.3473E+01  0.1318E+02
     -4.570  0.3735E+01  0.1368E+02
     -4.432  0.3413E+01  0.1419E+02
     -4.294  0.3245E+01  0.1465E+02
     -4.155  0.2764E+01  0.1506E+02
     -4.017  0.2274E+01  0.1541E+02
     -3.879  0.2171E+01  0.1571E+02
     -3.741  0.2605E+01  0.1603E+02
     -3.602  0.2386E+01  0.1638E+02
     -3.464  0.2463E+01  0.1671E+02
     -3.326  0.3067E+01  0.1710E+02
     -3.188  0.3084E+01  0.1753E+02
     -3.049  0.3070E+01  0.1795E+02
     -2.911  0.2977E+01  0.1837E+02
     -2.773  0.3055E+01  0.1879E+02
     -2.635  0.3068E+01  0.1921E+02
     -2.496  0.2939E+01  0.1963E+02
     -2.358  0.3747E+01  0.2005E+02
     -2.220  0.3857E+01  0.2059E+02
     -2.082  0.4390E+01  0.2114E+02
     -1.943  0.4638E+01  0.2177E+02
     -1.805  0.4718E+01  0.2241E+02
     -1.667  0.4903E+01  0.2308E+02
     -1.529  0.4887E+01  0.2376E+02
     -1.390  0.4599E+01  0.2442E+02
     -1.252  0.3718E+01  0.2501E+02
     -1.114  0.3244E+01  0.2549E+02
     -0.976  0.3072E+01  0.2593E+02
     -0.837  0.3092E+01  0.2635E+02
     -0.699  0.2812E+01  0.2675E+02
     -0.561  0.3738E+01  0.2721E+02
     -0.423  0.3736E+01  0.2773E+02
     -0.284  0.3348E+01  0.2822E+02
     -0.146  0.3145E+01  0.2866E+02
     -0.008  0.3199E+01  0.2909E+02
      0.130  0.3615E+01  0.2955E+02
      0.269  0.4732E+01  0.3014E+02
      0.407  0.5148E+01  0.3084E+02
      0.545  0.5406E+01  0.3157E+02
      0.683  0.5506E+01  0.3231E+02
      0.822  0.5439E+01  0.3308E+02
      0.960  0.4762E+01  0.3380E+02
      1.098  0.4119E+01  0.3440E+02
      1.236  0.4098E+01  0.3497E+02
      1.375  0.4266E+01  0.3554E+02
      1.513  0.4416E+01  0.3614E+02
      1.651  0.4504E+01  0.3676E+02
      1.789  0.4438E+01  0.3737E+02
      1.928  0.5566E+01  0.3802E+02
      2.066  0.5653E+01  0.3879E+02
      2.204  0.5319E+01  0.3954E+02
      2.342  0.5118E+01  0.4026E+02
      2.481  0.5256E+01  0.4098E+02
      2.619  0.5779E+01  0.4175E+02
      2.757  0.5520E+01  0.4253E+02
      2.895  0.5960E+01  0.4332E+02
      3.034  0.5622E+01  0.4413E+02
      3.172  0.4794E+01  0.4485E+02
      3.310  0.5210E+01  0.4553E+02
      3.448  0.5157E+01  0.4625E+02
      3.587  0.4652E+01  0.4693E+02
      3.725  0.4307E+01  0.4755E+02
      3.863  0.4548E+01  0.4814E+02
      4.001  0.6154E+01  0.4885E+02
      4.140  0.7531E+01  0.4988E+02
      4.278  0.6638E+01  0.5084E+02
      4.416  0.4708E+01  0.5163E+02
      4.554  0.6999E+01  0.5246E+02
      4.693  0.6439E+01  0.5343E+02
      4.831  0.5928E+01  0.5428E+02
      4.969  0.5832E+01  0.5508E+02
      5.107  0.5728E+01  0.5588E+02
      5.246  0.4070E+01  0.5657E+02
      5.384  0.3395E+01  0.5708E+02
      5.522  0.3690E+01  0.5756E+02
      5.660  0.4818E+01  0.5813E+02
      5.799  0.5521E+01  0.5892E+02
      5.937  0.4945E+01  0.5964E+02
      6.075  0.4494E+01  0.6029E+02
      6.213  0.4229E+01  0.6090E+02
      6.352  0.3864E+01  0.6146E+02
      6.490  0.4180E+01  0.6200E+02
      6.628  0.4581E+01  0.6261E+02
      6.766  0.4783E+01  0.6326E+02
      6.905  0.4889E+01  0.6393E+02
      7.043  0.5426E+01  0.6465E+02
      7.181  0.4972E+01  0.6536E+02
      7.319  0.5188E+01  0.6607E+02
      7.458  0.4164E+01  0.6672E+02
      7.596  0.3539E+01  0.6725E+02
      7.734  0.3185E+01  0.6771E+02
      7.872  0.3222E+01  0.6816E+02
      8.011  0.3541E+01  0.6862E+02
      8.149  0.3935E+01  0.6914E+02
      8.287  0.3712E+01  0.6967E+02
      8.425  0.3533E+01  0.7017E+02
      8.564  0.3339E+01  0.7065E+02
      8.702  0.3935E+01  0.7116E+02
      8.840  0.4330E+01  0.7173E+02
      8.978  0.4814E+01  0.7236E+02
      9.116  0.5440E+01  0.7307E+02
      9.255  0.5704E+01  0.7384E+02
      9.393  0.4556E+01  0.7456E+02
      9.531  0.3427E+01  0.7511E+02
      9.669  0.3417E+01  0.7557E+02
      9.808  0.3510E+01  0.7604E+02
      9.946  0.3890E+01  0.7656E+02
     10.084  0.4800E+01  0.7715E+02
     10.222  0.5836E+01  0.7789E+02
     10.361  0.6011E+01  0.7871E+02
     10.499  0.5825E+01  0.7953E+02
     10.637  0.5743E+01  0.8031E+02
     10.775  0.6779E+01  0.8121E+02
     10.914  0.6353E+01  0.8214E+02
     11.052  0.4623E+01  0.8290E+02
     11.190  0.3757E+01  0.8346E+02
     11.328  0.3671E+01  0.8397E+02
     11.467  0.3582E+01  0.8448E+02
     11.605  0.3298E+01  0.8495E+02
     11.743  0.3015E+01  0.8539E+02
     11.881  0.2877E+01  0.8579E+02
     12.020  0.3024E+01  0.8620E+02
     12.158  0.2924E+01  0.8661E+02
     12.296  0.2603E+01  0.8699E+02
     12.434  0.2406E+01  0.8734E+02
     12.573  0.2261E+01  0.8766E+02
     12.711  0.2214E+01  0.8797E+02
     12.849  0.2176E+01  0.8827E+02
     12.987  0.2383E+01  0.8858E+02
     13.126  0.3785E+01  0.8901E+02
     13.264  0.4844E+01  0.8964E+02
     13.402  0.5097E+01  0.9030E+02
     13.540  0.5823E+01  0.9105E+02
     13.679  0.8281E+01  0.9196E+02
     13.817  0.6509E+01  0.9291E+02
     13.955  0.9070E+01  0.9393E+02
     14.093  0.8016E+01  0.9514E+02
     14.232  0.4432E+01  0.9601E+02
     14.370  0.3297E+01  0.9652E+02
     14.508  0.4542E+01  0.9704E+02
     14.646  0.6154E+01  0.9780E+02
     14.785  0.6899E+01  0.9872E+02
     14.923  0.6877E+01  0.9970E+02
     15.061  0.7316E+01  0.1007E+03
     15.199  0.8175E+01  0.1018E+03
     15.338  0.7622E+01  0.1029E+03
     15.476  0.7168E+01  0.1039E+03
     15.614  0.6396E+01  0.1049E+03
     15.752  0.4841E+01  0.1056E+03
     15.891  0.5306E+01  0.1063E+03
     16.029  0.5663E+01  0.1070E+03
     16.167  0.6029E+01  0.1078E+03
     16.305  0.5335E+01  0.1087E+03
     16.444  0.4845E+01  0.1093E+03
     16.582  0.5160E+01  0.1100E+03
     16.720  0.5469E+01  0.1108E+03
     16.858  0.5982E+01  0.1115E+03
     16.997  0.6604E+01  0.1124E+03
     17.135  0.7635E+01  0.1134E+03
     17.273  0.7376E+01  0.1144E+03
     17.411  0.6909E+01  0.1154E+03
     17.550  0.6359E+01  0.1163E+03
     17.688  0.6196E+01  0.1172E+03
     17.826  0.6829E+01  0.1181E+03
     17.964  0.6041E+01  0.1190E+03
     18.103  0.6081E+01  0.1198E+03
     18.241  0.5964E+01  0.1206E+03
     18.379  0.5843E+01  0.1214E+03
     18.517  0.5048E+01  0.1222E+03
     18.656  0.5263E+01  0.1229E+03
     18.794  0.5290E+01  0.1236E+03
     18.932  0.5186E+01  0.1244E+03
     19.070  0.4880E+01  0.1251E+03
     19.209  0.6500E+01  0.1258E+03
     19.347  0.6786E+01  0.1268E+03
     19.485  0.4800E+01  0.1276E+03
     19.623  0.4394E+01  0.1282E+03
     19.762  0.4782E+01  0.1289E+03
     19.900  0.5189E+01  0.1296E+03
     20.038  0.7649E+01  0.1304E+03
     20.176  0.9188E+01  0.1316E+03
     20.315  0.1118E+02  0.1329E+03
     20.453  0.9937E+01  0.1345E+03
     20.591  0.9062E+01  0.1358E+03
     20.729  0.8985E+01  0.1370E+03
     20.868  0.8205E+01  0.1383E+03
     21.006  0.8275E+01  0.1393E+03
     21.144  0.9161E+01  0.1406E+03
     21.282  0.6986E+01  0.1417E+03
     21.421  0.4640E+01  0.1426E+03
     21.559  0.4174E+01  0.1432E+03
     21.697  0.4006E+01  0.1438E+03
     21.835  0.3323E+01  0.1443E+03
     21.974  0.5330E+01  0.1448E+03
     22.112  0.4376E+01  0.1455E+03
     22.250  0.4440E+01  0.1461E+03
     22.388  0.4541E+01  0.1467E+03
     22.527  0.4889E+01  0.1473E+03
     22.665  0.5055E+01  0.1480E+03
     22.803  0.5315E+01  0.1487E+03
     22.941  0.5963E+01  0.1495E+03
     23.080  0.6504E+01  0.1504E+03
     23.218  0.7242E+01  0.1513E+03
     23.356  0.7748E+01  0.1523E+03
     23.494  0.7953E+01  0.1534E+03
     23.633  0.8053E+01  0.1545E+03
     23.771  0.9207E+01  0.1557E+03
     23.909  0.1019E+02  0.1571E+03
     24.047  0.1037E+02  0.1585E+03
     24.186  0.1033E+02  0.1599E+03
     24.324  0.9493E+01  0.1613E+03
     24.462  0.7609E+01  0.1625E+03
     24.600  0.6101E+01  0.1634E+03
     24.739  0.5784E+01  0.1642E+03
     24.877  0.4270E+01  0.1649E+03
     25.015  0.3221E+01  0.1654E+03
     25.153  0.3069E+01  0.1658E+03
     25.292  0.3106E+01  0.1662E+03
     25.430  0.3111E+01  0.1667E+03
     25.568  0.2290E+01  0.1671E+03
     25.706  0.2182E+01  0.1674E+03
     25.845  0.1859E+01  0.1677E+03
     25.983  0.1162E+01  0.1679E+03
     26.121  0.3454E+00  0.1680E+03
     26.259  0.3028E-01  0.1680E+03
     26.398  0.0000E+00  0.1680E+03
     26.536  0.0000E+00  0.1680E+03
     26.674  0.0000E+00  0.1680E+03
     26.812  0.0000E+00  0.1680E+03
     26.951  0.0000E+00  0.1680E+03
     27.089  0.0000E+00  0.1680E+03
     27.227  0.0000E+00  0.1680E+03
     27.365  0.0000E+00  0.1680E+03
     27.504  0.0000E+00  0.1680E+03
     27.642  0.0000E+00  0.1680E+03
     27.780  0.0000E+00  0.1680E+03
     27.918  0.0000E+00  0.1680E+03
     28.057  0.0000E+00  0.1680E+03
     28.195  0.0000E+00  0.1680E+03
     28.333  0.0000E+00  0.1680E+03
