   32   32    1    1
  0.3545204E+01  0.4934311E-09  0.4934311E-09  0.5380594E-09  0.5000000E-15
  1.000000000000000E-004
  CAR 
 graphite                                
    128    163     84
 
  0.0000000E+00  0.0000000E+00  0.0000000E+00  0.3086420E-02
    1      -11.141484
    2       -7.215347
    3       -7.208567
    4       -5.667410
    5       -5.666761
    6       -5.665839
    7       -3.972617
    8       -3.972239
    9       -3.971517
   10       -2.106441
   11       -2.093802
   12       -2.092134
   13       -2.090923
   14       -2.089184
   15       -2.076526
   16        0.443577
   17        0.444646
   18        0.449999
   19        0.451880
   20        0.457549
   21        0.458552
   22        1.310148
   23        4.182783
   24        4.184617
   25        4.185176
   26        5.149665
   27        5.150404
   28        5.151081
   29        8.510455
   30        8.513868
   31        8.521195
   32        8.521904
   33        8.528995
   34        8.531911
   35        8.769556
   36        8.917243
   37        8.920009
   38       11.121839
   39       11.128969
   40       11.136045
   41       12.227513
   42       12.234270
   43       12.244204
   44       12.251075
   45       12.949807
   46       12.951311
   47       12.952340
   48       13.378685
   49       13.382119
   50       13.383315
   51       13.624934
   52       13.635613
   53       16.130863
   54       16.136888
   55       16.140458
   56       16.274157
   57       16.282417
   58       16.284125
   59       16.285351
   60       16.286808
   61       16.294552
   62       16.369193
   63       16.378599
   64       16.386792
   65       19.316075
   66       19.340743
   67       20.854494
   68       20.870508
   69       21.473486
   70       21.475364
   71       21.480065
   72       22.276341
   73       22.276630
   74       22.527917
   75       22.538659
   76       22.544460
   77       22.555273
   78       24.187292
   79       24.217063
   80       24.218282
   81       24.220477
   82       24.221471
   83       24.251638
   84       25.135767
 
  0.1111111E+00  0.2081668E-16  0.0000000E+00  0.6172840E-02
    1      -11.063521
    2       -7.137649
    3       -7.130849
    4       -6.360004
    5       -5.841138
    6       -5.838486
    7       -3.659635
    8       -3.656873
    9       -3.142272
   10       -2.621536
   11       -2.613587
   12       -2.204719
   13       -2.197905
   14       -2.195568
   15       -2.186323
   16        0.686431
   17        0.690378
   18        0.694504
   19        0.699934
   20        1.104442
   21        1.113057
   22        1.387222
   23        3.821671
   24        3.824523
   25        4.268062
   26        4.950352
   27        5.131201
   28        5.132509
   29        8.120247
   30        8.128850
   31        8.133876
   32        8.138464
   33        8.360885
   34        8.590016
   35        8.597518
   36        8.609628
   37        8.815057
   38       10.991727
   39       11.250438
   40       11.259284
   41       11.785780
   42       11.800525
   43       12.051665
   44       12.066875
   45       12.997613
   46       12.999155
   47       13.008165
   48       13.522345
   49       13.526539
   50       13.690005
   51       13.755202
   52       13.979462
   53       16.038947
   54       16.044841
   55       16.167624
   56       16.340309
   57       16.348240
   58       16.585704
   59       16.736412
   60       16.743690
   61       16.744347
   62       16.751484
   63       16.785725
   64       16.798283
   65       19.361219
   66       19.382899
   67       20.671734
   68       21.090665
   69       21.153102
   70       21.158544
   71       21.371784
   72       21.378788
   73       21.575889
   74       22.878621
   75       22.892880
   76       23.830058
   77       23.838546
   78       24.106540
   79       24.134831
   80       24.137499
   81       24.144481
   82       24.146961
   83       24.174725
   84       24.560165
 
  0.2222222E+00  0.1387779E-16  0.0000000E+00  0.6172840E-02
    1      -10.829933
    2       -7.403969
    3       -6.904896
    4       -6.898060
    5       -6.148559
    6       -6.145149
    7       -3.560505
    8       -3.552827
    9       -2.934494
   10       -2.930878
   11       -2.421542
   12       -2.414483
   13       -2.413208
   14       -2.404277
   15       -1.690314
   16        1.306456
   17        1.310433
   18        1.314934
   19        1.319867
   20        1.616341
   21        2.433982
   22        2.443156
   23        2.917992
   24        2.921687
   25        4.437741
   26        4.519044
   27        5.084416
   28        5.086428
   29        7.014149
   30        7.173144
   31        7.180955
   32        7.185070
   33        7.190672
   34        7.860902
   35        8.821092
   36        8.833039
   37        8.949954
   38       10.638920
   39       10.652632
   40       10.663092
   41       11.431048
   42       11.437245
   43       11.573330
   44       11.587993
   45       13.149859
   46       13.235623
   47       13.238624
   48       13.915461
   49       13.925445
   50       13.930060
   51       14.512782
   52       14.745874
   53       15.771253
   54       15.776899
   55       16.238551
   56       16.524905
   57       16.532889
   58       17.165243
   59       17.868162
   60       17.877469
   61       17.878410
   62       17.885348
   63       17.942008
   64       17.953657
   65       19.096661
   66       19.109568
   67       20.107252
   68       20.344424
   69       20.349600
   70       21.163107
   71       21.178701
   72       21.531322
   73       21.882260
   74       23.786114
   75       23.850278
   76       23.853094
   77       23.865647
   78       23.877386
   79       23.892319
   80       23.904356
   81       23.906514
   82       23.932506
   83       24.777262
   84       25.397353
 
  0.3333333E+00  0.1110223E-15  0.0000000E+00  0.6172840E-02
    1      -10.441542
    2       -8.371349
    3       -6.519056
    4       -6.512134
    5       -6.397162
    6       -6.393426
    7       -4.483969
    8       -4.476535
    9       -2.617275
   10       -2.610041
   11       -2.609460
   12       -2.600762
   13       -2.014531
   14       -2.010655
   15       -0.055406
   16        1.780683
   17        1.784764
   18        1.989599
   19        2.140704
   20        2.144824
   21        2.149384
   22        2.154505
   23        3.778844
   24        3.996377
   25        4.006151
   26        4.932103
   27        5.033050
   28        5.035569
   29        5.317948
   30        6.027905
   31        6.036113
   32        6.039137
   33        6.045446
   34        7.012094
   35        9.104265
   36        9.116775
   37        9.171146
   38        9.192008
   39        9.204216
   40       10.250183
   41       10.944663
   42       10.958179
   43       11.488729
   44       11.493676
   45       13.340922
   46       13.699595
   47       13.704501
   48       13.911016
   49       14.489509
   50       14.494419
   51       15.360567
   52       15.366208
   53       15.524173
   54       15.649370
   55       16.307010
   56       16.832444
   57       16.840514
   58       18.013968
   59       18.455577
   60       18.464934
   61       19.239375
   62       19.257043
   63       19.266847
   64       19.268565
   65       19.274609
   66       19.378683
   67       19.383062
   68       19.669543
   69       19.680075
   70       21.183887
   71       21.638129
   72       21.658535
   73       22.396130
   74       23.422556
   75       23.449488
   76       23.451402
   77       23.454272
   78       23.456798
   79       23.486287
   80       24.107256
   81       24.892575
   82       24.968656
   83       25.293669
   84       25.306310
 
  0.4444444E+00  0.2775558E-16  0.0000000E+00  0.6172840E-02
    1       -9.899894
    2       -9.207644
    3       -6.529749
    4       -6.526079
    5       -5.981886
    6       -5.974822
    7       -5.300196
    8       -5.292961
    9       -2.726274
   10       -2.719022
   11       -2.718792
   12       -2.710113
   13       -1.078900
   14       -1.075065
   15        0.707372
   16        0.711551
   17        1.692667
   18        2.493526
   19        2.972194
   20        2.977541
   21        2.981118
   22        2.987749
   23        3.105211
   24        3.505155
   25        4.997602
   26        5.001665
   27        5.017718
   28        5.025967
   29        5.026964
   30        5.036442
   31        5.498965
   32        5.676304
   33        5.686693
   34        6.202884
   35        7.406345
   36        7.417613
   37        9.471593
   38        9.690883
   39        9.703203
   40        9.839187
   41       10.290727
   42       10.303766
   43       11.483914
   44       11.488249
   45       13.557534
   46       13.766195
   47       14.257050
   48       14.263059
   49       14.856697
   50       14.861849
   51       14.977596
   52       14.982473
   53       16.057069
   54       16.287503
   55       16.910904
   56       17.261614
   57       17.269847
   58       17.808973
   59       17.817425
   60       18.147189
   61       18.655446
   62       18.658084
   63       19.039218
   64       20.151580
   65       20.441267
   66       20.454097
   67       20.456301
   68       20.459472
   69       21.799485
   70       21.809268
   71       22.281484
   72       22.303502
   73       22.829077
   74       22.846686
   75       22.848078
   76       22.869898
   77       22.910038
   78       22.934361
   79       23.113908
   80       24.002592
   81       24.194304
   82       24.203955
   83       25.376678
   84       25.558435
 
 -0.8470329E-21  0.1111111E+00  0.0000000E+00  0.6172840E-02
    1      -11.063519
    2       -7.137644
    3       -7.130846
    4       -6.359926
    5       -5.842331
    6       -5.837360
    7       -3.661116
    8       -3.656036
    9       -3.141594
   10       -2.621463
   11       -2.613581
   12       -2.205419
   13       -2.197530
   14       -2.194988
   15       -2.186645
   16        0.685192
   17        0.691125
   18        0.693768
   19        0.699522
   20        1.105314
   21        1.113881
   22        1.387178
   23        3.821739
   24        3.825629
   25        4.266740
   26        4.950232
   27        5.130925
   28        5.132919
   29        8.121830
   30        8.128878
   31        8.133663
   32        8.140399
   33        8.362799
   34        8.588107
   35        8.596995
   36        8.605932
   37        8.815577
   38       10.994178
   39       11.249661
   40       11.256945
   41       11.791533
   42       11.802776
   43       12.049476
   44       12.060610
   45       12.997827
   46       12.999769
   47       13.008440
   48       13.522061
   49       13.526842
   50       13.689965
   51       13.759511
   52       13.974589
   53       16.041055
   54       16.046247
   55       16.163247
   56       16.341154
   57       16.348890
   58       16.585475
   59       16.735369
   60       16.743317
   61       16.744521
   62       16.752283
   63       16.790622
   64       16.793671
   65       19.361466
   66       19.383145
   67       20.671745
   68       21.091994
   69       21.152594
   70       21.158688
   71       21.370572
   72       21.376170
   73       21.576323
   74       22.888620
   75       22.893853
   76       23.829334
   77       23.832195
   78       24.107029
   79       24.134961
   80       24.136779
   81       24.144375
   82       24.147194
   83       24.174381
   84       24.553152
 
  0.1111111E+00  0.1111111E+00  0.0000000E+00  0.6172840E-02
    1      -10.907756
    2       -6.982640
    3       -6.975771
    4       -6.831795
    5       -6.825104
    6       -5.465768
    7       -3.747080
    8       -3.033567
    9       -3.024975
   10       -3.021620
   11       -3.014483
   12       -2.401344
   13       -2.394215
   14       -1.901842
   15       -1.893538
   16        0.666242
   17        0.674464
   18        1.539905
   19        1.770692
   20        1.779906
   21        1.781378
   22        1.789097
   23        2.837217
   24        3.988103
   25        3.990704
   26        4.758337
   27        4.761809
   28        5.275469
   29        7.096802
   30        7.107595
   31        7.503437
   32        7.977836
   33        8.277477
   34        8.281526
   35        8.287189
   36        8.295763
   37        8.909838
   38       10.959189
   39       10.967621
   40       11.045316
   41       11.059258
   42       11.659701
   43       11.662597
   44       11.678585
   45       13.029151
   46       13.177962
   47       13.182575
   48       13.644853
   49       14.022255
   50       14.100620
   51       14.103860
   52       14.406305
   53       15.747770
   54       16.092234
   55       16.099453
   56       16.853635
   57       16.859977
   58       16.862294
   59       16.868231
   60       17.152985
   61       17.165081
   62       17.800304
   63       17.822266
   64       17.831074
   65       19.315182
   66       19.330558
   67       20.228361
   68       20.292841
   69       21.008705
   70       21.019105
   71       21.365028
   72       21.367732
   73       21.459202
   74       23.578686
   75       23.593993
   76       23.827235
   77       23.930602
   78       23.954273
   79       23.956657
   80       23.973460
   81       24.014783
   82       24.038465
   83       24.910747
   84       24.968607
 
  0.2222222E+00  0.1111111E+00  0.0000000E+00  0.6172840E-02
    1      -10.596631
    2       -7.846070
    3       -7.182117
    4       -6.672890
    5       -6.665996
    6       -5.432756
    7       -3.977943
    8       -3.970371
    9       -3.345527
   10       -3.337807
   11       -3.221992
   12       -1.815507
   13       -1.807148
   14       -1.504304
   15       -0.846255
   16        1.114898
   17        1.123297
   18        1.608505
   19        1.841724
   20        2.610339
   21        2.619411
   22        3.168602
   23        3.236537
   24        3.245937
   25        4.160058
   26        4.321023
   27        4.594867
   28        5.368699
   29        5.853341
   30        5.863471
   31        6.096944
   32        7.086685
   33        7.418984
   34        7.429143
   35        8.586240
   36        8.597855
   37        9.091986
   38        9.791662
   39        9.805326
   40       10.544121
   41       10.977010
   42       11.002356
   43       11.017257
   44       11.958663
   45       13.216973
   46       13.432387
   47       13.642604
   48       14.037196
   49       14.211736
   50       14.677086
   51       15.061103
   52       15.085162
   53       15.318660
   54       15.838369
   55       16.172958
   56       17.093858
   57       17.102139
   58       17.837363
   59       18.028088
   60       18.036440
   61       18.380410
   62       18.980743
   63       18.990434
   64       19.079765
   65       19.189921
   66       19.199445
   67       19.445182
   68       19.590216
   69       20.711911
   70       21.137172
   71       21.153712
   72       21.648045
   73       21.796675
   74       23.196182
   75       23.544309
   76       23.566359
   77       23.577604
   78       23.599236
   79       23.738326
   80       23.760637
   81       24.773708
   82       24.789929
   83       25.228271
   84       25.263640
 
  0.3333333E+00  0.1111111E+00  0.0000000E+00  0.6172840E-02
    1      -10.131677
    2       -8.749798
    3       -7.399099
    4       -6.211349
    5       -6.204347
    6       -5.527384
    7       -4.851725
    8       -4.844380
    9       -3.544177
   10       -3.536489
   11       -2.340655
   12       -1.841967
   13       -1.833628
   14       -0.537829
   15        0.363910
   16        0.840731
   17        1.878165
   18        1.886936
   19        2.141349
   20        2.280829
   21        3.485350
   22        3.507832
   23        3.517208
   24        4.396199
   25        4.483360
   26        4.639089
   27        4.648697
   28        4.810821
   29        4.854535
   30        4.864479
   31        5.417037
   32        6.218397
   33        6.402593
   34        6.412215
   35        8.231381
   36        8.243582
   37        9.034064
   38        9.045775
   39        9.357853
   40       10.105048
   41       10.281932
   42       10.295266
   43       10.955343
   44       12.055290
   45       13.635674
   46       13.698512
   47       14.148752
   48       14.263348
   49       14.586964
   50       14.805722
   51       15.249704
   52       15.422776
   53       15.705211
   54       16.206231
   55       16.273788
   56       17.444322
   57       17.452625
   58       18.016948
   59       18.435955
   60       18.444640
   61       18.635048
   62       18.744098
   63       19.381973
   64       19.389982
   65       19.993368
   66       20.130416
   67       20.504059
   68       20.513267
   69       20.881710
   70       21.518296
   71       21.713837
   72       21.733559
   73       22.446285
   74       22.894226
   75       22.914099
   76       23.048963
   77       23.071195
   78       23.288626
   79       23.310822
   80       23.571164
   81       24.286944
   82       24.697125
   83       26.091359
   84       26.180134
 
  0.4444444E+00  0.1111111E+00  0.0000000E+00  0.6172840E-02
    1       -9.518272
    2       -9.511281
    3       -7.471967
    4       -5.608050
    5       -5.599998
    6       -5.596669
    7       -5.591031
    8       -5.568946
    9       -3.611740
   10       -3.604054
   11       -1.863097
   12       -1.854787
   13       -1.653973
   14       -0.438915
   15        0.111854
   16        1.455473
   17        2.448966
   18        2.458118
   19        2.607302
   20        2.610298
   21        2.836790
   22        2.842856
   23        3.923217
   24        3.932309
   25        4.059208
   26        4.069363
   27        4.444820
   28        5.430459
   29        5.445221
   30        5.452974
   31        5.796271
   32        5.806049
   33        6.539976
   34        6.549470
   35        6.555134
   36        6.560446
   37        9.603317
   38        9.611241
   39        9.613303
   40        9.630651
   41        9.696497
   42        9.704747
   43       10.940624
   44       12.067781
   45       13.949343
   46       13.953525
   47       14.037704
   48       14.386409
   49       14.868545
   50       14.896252
   51       14.916890
   52       15.514671
   53       16.082730
   54       16.094667
   55       17.495955
   56       17.501706
   57       17.509473
   58       17.893902
   59       17.902247
   60       17.905445
   61       17.912848
   62       19.663927
   63       19.790548
   64       19.798199
   65       20.163092
   66       20.168660
   67       21.196566
   68       21.201846
   69       22.236438
   70       22.322945
   71       22.375594
   72       22.399864
   73       22.404188
   74       22.414885
   75       22.418183
   76       22.441962
   77       22.929827
   78       22.953059
   79       23.297374
   80       23.300668
   81       23.796768
   82       23.933845
   83       24.593898
   84       24.607007
 
 -0.4444444E+00  0.1111111E+00  0.0000000E+00  0.6172840E-02
    1      -10.131753
    2       -8.749679
    3       -7.399265
    4       -6.211414
    5       -6.204403
    6       -5.527222
    7       -4.851608
    8       -4.844263
    9       -3.544332
   10       -3.536616
   11       -2.339481
   12       -1.841794
   13       -1.833516
   14       -0.539118
   15        0.362521
   16        0.840554
   17        1.879274
   18        1.888033
   19        2.142862
   20        2.280718
   21        3.484519
   22        3.507106
   23        3.516539
   24        4.396205
   25        4.483238
   26        4.638199
   27        4.647270
   28        4.811047
   29        4.854353
   30        4.864410
   31        5.417076
   32        6.218023
   33        6.403424
   34        6.413738
   35        8.232047
   36        8.243414
   37        9.034392
   38        9.046286
   39        9.358453
   40       10.104472
   41       10.281838
   42       10.293872
   43       10.955707
   44       12.054356
   45       13.635708
   46       13.699459
   47       14.149248
   48       14.264802
   49       14.589805
   50       14.806314
   51       15.247458
   52       15.421334
   53       15.704153
   54       16.206316
   55       16.274051
   56       17.443886
   57       17.452423
   58       18.013816
   59       18.436553
   60       18.444793
   61       18.634598
   62       18.743284
   63       19.384214
   64       19.393379
   65       19.996057
   66       20.133471
   67       20.501967
   68       20.509935
   69       20.883624
   70       21.514048
   71       21.715911
   72       21.735768
   73       22.446280
   74       22.892726
   75       22.913072
   76       23.047650
   77       23.069745
   78       23.289925
   79       23.311512
   80       23.576048
   81       24.287068
   82       24.693199
   83       26.102359
   84       26.204813
 
 -0.3333333E+00  0.1111111E+00  0.0000000E+00  0.6172840E-02
    1      -10.596685
    2       -7.845925
    3       -7.182459
    4       -6.672934
    5       -6.666029
    6       -5.432389
    7       -3.977798
    8       -3.970231
    9       -3.345768
   10       -3.337983
   11       -3.221045
   12       -1.815162
   13       -1.806933
   14       -1.505525
   15       -0.846450
   16        1.116009
   17        1.124456
   18        1.606937
   19        1.841630
   20        2.609081
   21        2.618251
   22        3.170216
   23        3.236416
   24        3.245715
   25        4.160126
   26        4.321267
   27        4.594816
   28        5.368649
   29        5.852347
   30        5.861946
   31        6.096534
   32        7.086483
   33        7.419931
   34        7.430824
   35        8.586504
   36        8.598151
   37        9.092622
   38        9.793102
   39        9.804665
   40       10.543488
   41       10.977864
   42       11.002988
   43       11.014871
   44       11.956397
   45       13.218154
   46       13.433525
   47       13.643906
   48       14.040873
   49       14.213527
   50       14.673776
   51       15.058834
   52       15.085306
   53       15.319454
   54       15.836905
   55       16.172716
   56       17.093554
   57       17.101972
   58       17.837015
   59       18.031336
   60       18.040422
   61       18.383052
   62       18.981380
   63       18.990631
   64       19.075595
   65       19.186685
   66       19.195472
   67       19.441265
   68       19.589749
   69       20.716069
   70       21.139311
   71       21.155910
   72       21.653278
   73       21.796711
   74       23.195038
   75       23.543535
   76       23.565928
   77       23.576252
   78       23.598243
   79       23.739387
   80       23.760972
   81       24.781123
   82       24.786556
   83       25.223610
   84       25.263799
 
 -0.2222222E+00  0.1111111E+00  0.0000000E+00  0.6172840E-02
    1      -10.907788
    2       -6.982690
    3       -6.975838
    4       -6.828924
    5       -6.828228
    6       -5.465204
    7       -3.746012
    8       -3.032376
    9       -3.024501
   10       -3.023126
   11       -3.015311
   12       -2.398679
   13       -2.398254
   14       -1.901267
   15       -1.893145
   16        0.667271
   17        0.675577
   18        1.539775
   19        1.772017
   20        1.778366
   21        1.780737
   22        1.787373
   23        2.835608
   24        3.990150
   25        3.990444
   26        4.759972
   27        4.760173
   28        5.275459
   29        7.095895
   30        7.106013
   31        7.502225
   32        7.978219
   33        8.277788
   34        8.283015
   35        8.289219
   36        8.294647
   37        8.910600
   38       10.961666
   39       10.966864
   40       11.047296
   41       11.058323
   42       11.658110
   43       11.663199
   44       11.673911
   45       13.031157
   46       13.180573
   47       13.181335
   48       13.648746
   49       14.027278
   50       14.098499
   51       14.102334
   52       14.401058
   53       15.748564
   54       16.092572
   55       16.097454
   56       16.855189
   57       16.862543
   58       16.863635
   59       16.870866
   60       17.158774
   61       17.161468
   62       17.796843
   63       17.818368
   64       17.826863
   65       19.316212
   66       19.331589
   67       20.223603
   68       20.292490
   69       21.009730
   70       21.019625
   71       21.366255
   72       21.371431
   73       21.463858
   74       23.587128
   75       23.590696
   76       23.820975
   77       23.930696
   78       23.953513
   79       23.955728
   80       23.973169
   81       24.015706
   82       24.038450
   83       24.911156
   84       24.967746
 
 -0.1111111E+00  0.1111111E+00  0.0000000E+00  0.6172840E-02
    1      -11.063529
    2       -7.137656
    3       -7.130859
    4       -6.360482
    5       -5.840806
    6       -5.838157
    7       -3.659424
    8       -3.656822
    9       -3.142734
   10       -2.621983
   11       -2.614012
   12       -2.205498
   13       -2.196534
   14       -2.194203
   15       -2.187166
   16        0.685863
   17        0.691072
   18        0.695286
   19        0.699357
   20        1.104176
   21        1.112738
   22        1.387211
   23        3.821648
   24        3.824193
   25        4.268304
   26        4.950206
   27        5.131183
   28        5.132683
   29        8.122496
   30        8.127341
   31        8.132351
   32        8.140462
   33        8.361093
   34        8.587568
   35        8.599648
   36        8.607132
   37        8.816015
   38       10.997493
   39       11.247090
   40       11.255515
   41       11.790601
   42       11.805487
   43       12.046461
   44       12.061384
   45       12.999537
   46       13.000428
   47       13.007411
   48       13.525522
   49       13.527332
   50       13.686095
   51       13.764020
   52       13.970027
   53       16.040607
   54       16.047306
   55       16.162618
   56       16.345222
   57       16.353242
   58       16.588086
   59       16.733931
   60       16.740727
   61       16.742578
   62       16.749498
   63       16.784952
   64       16.796312
   65       19.362208
   66       19.383910
   67       20.671601
   68       21.093439
   69       21.152033
   70       21.154220
   71       21.369055
   72       21.376110
   73       21.581479
   74       22.887673
   75       22.901741
   76       23.823146
   77       23.831881
   78       24.107002
   79       24.134258
   80       24.136400
   81       24.144879
   82       24.147626
   83       24.174139
   84       24.545285
 
 -0.1694066E-20  0.2222222E+00  0.0000000E+00  0.6172840E-02
    1      -10.829922
    2       -7.403850
    3       -6.904909
    4       -6.898061
    5       -6.150254
    6       -6.143615
    7       -3.560433
    8       -3.552784
    9       -2.936369
   10       -2.929506
   11       -2.422625
   12       -2.414696
   13       -2.412275
   14       -2.404052
   15       -1.689710
   16        1.304557
   17        1.311530
   18        1.313687
   19        1.320326
   20        1.616435
   21        2.434938
   22        2.443945
   23        2.917165
   24        2.923441
   25        4.437639
   26        4.517683
   27        5.083665
   28        5.087325
   29        7.015910
   30        7.173530
   31        7.181481
   32        7.184575
   33        7.193048
   34        7.858804
   35        8.819498
   36        8.830489
   37        8.950560
   38       10.644252
   39       10.655462
   40       10.663173
   41       11.428420
   42       11.436292
   43       11.571194
   44       11.582361
   45       13.150688
   46       13.236584
   47       13.239994
   48       13.918892
   49       13.924832
   50       13.930925
   51       14.512721
   52       14.740316
   53       15.772934
   54       15.778475
   55       16.233947
   56       16.525631
   57       16.533400
   58       17.165261
   59       17.867964
   60       17.876921
   61       17.878414
   62       17.886989
   63       17.945821
   64       17.950045
   65       19.096882
   66       19.109677
   67       20.107269
   68       20.343693
   69       20.350174
   70       21.162394
   71       21.177900
   72       21.536797
   73       21.882649
   74       23.776428
   75       23.850726
   76       23.859800
   77       23.868171
   78       23.878207
   79       23.891518
   80       23.903869
   81       23.906679
   82       23.931582
   83       24.784219
   84       25.393105
 
  0.1111111E+00  0.2222222E+00  0.0000000E+00  0.6172840E-02
    1      -10.596623
    2       -7.845957
    3       -7.182267
    4       -6.672876
    5       -6.665985
    6       -5.432818
    7       -3.977859
    8       -3.970304
    9       -3.345556
   10       -3.337833
   11       -3.222071
   12       -1.815529
   13       -1.807193
   14       -1.504898
   15       -0.845581
   16        1.114907
   17        1.123319
   18        1.608471
   19        1.841710
   20        2.609407
   21        2.618641
   22        3.169572
   23        3.237532
   24        3.246880
   25        4.159954
   26        4.319808
   27        4.594970
   28        5.368721
   29        5.853389
   30        5.863445
   31        6.098079
   32        7.085337
   33        7.420188
   34        7.430949
   35        8.584782
   36        8.595532
   37        9.092182
   38        9.794146
   39        9.806011
   40       10.545868
   41       10.975033
   42       11.001731
   43       11.013877
   44       11.957583
   45       13.218464
   46       13.432810
   47       13.642728
   48       14.037139
   49       14.215028