<?xml version="1.0" encoding="ISO-8859-1"?>
<modeling>
 <generator>
  <i name="program" type="string">vasp </i>
  <i name="version" type="string">5.3.5  </i>
  <i name="subversion" type="string">31Mar14 (build Nov 02 2014 15:17:37) complex                          parallel </i>
  <i name="platform" type="string">ion-Intel-MKL </i>
  <i name="date" type="string">2016 10 18 </i>
  <i name="time" type="string">03:50:04 </i>
 </generator>
 <incar>
  <i type="string" name="SYSTEM">graphite</i>
  <i type="string" name="PREC">accurate</i>
  <i type="int" name="NELM">   200</i>
  <i type="int" name="IBRION">    -1</i>
  <i name="EDIFF">      0.00000001</i>
  <i name="EDIFFG">      0.00100000</i>
  <i type="int" name="NSW">     0</i>
  <i type="int" name="ISIF">     2</i>
  <i name="ENCUT">    800.00000000</i>
  <i type="int" name="ISMEAR">    -5</i>
  <i type="logical" name="LWAVE"> F  </i>
  <i type="logical" name="LCHARG"> F  </i>
  <i type="int" name="NELM">   200</i>
  <i type="string" name="GGA">PE</i>
 </incar>
 <kpoints>
  <generation param="Gamma">
   <v type="int" name="divisions">       6        6        4 </v>
   <v name="usershift">      0.00000000       0.00000000       0.00000000 </v>
   <v name="genvec1">      0.16666667       0.00000000       0.00000000 </v>
   <v name="genvec2">      0.00000000       0.16666667       0.00000000 </v>
   <v name="genvec3">      0.00000000       0.00000000       0.25000000 </v>
   <v name="shift">      0.00000000       0.00000000       0.00000000 </v>
  </generation>
  <varray name="kpointlist" >
   <v>       0.00000000       0.00000000       0.00000000 </v>
   <v>       0.16666667       0.00000000       0.00000000 </v>
   <v>       0.33333333       0.00000000       0.00000000 </v>
   <v>       0.50000000       0.00000000       0.00000000 </v>
   <v>       0.00000000       0.16666667       0.00000000 </v>
   <v>       0.16666667       0.16666667       0.00000000 </v>
   <v>       0.33333333       0.16666667       0.00000000 </v>
   <v>       0.50000000       0.16666667       0.00000000 </v>
   <v>      -0.33333333       0.16666667       0.00000000 </v>
   <v>      -0.16666667       0.16666667       0.00000000 </v>
   <v>       0.00000000       0.33333333       0.00000000 </v>
   <v>       0.16666667       0.33333333       0.00000000 </v>
   <v>       0.33333333       0.33333333       0.00000000 </v>
   <v>       0.50000000       0.33333333       0.00000000 </v>
   <v>      -0.33333333       0.33333333       0.00000000 </v>
   <v>      -0.16666667       0.33333333       0.00000000 </v>
   <v>       0.00000000       0.50000000       0.00000000 </v>
   <v>       0.16666667       0.50000000       0.00000000 </v>
   <v>       0.33333333       0.50000000       0.00000000 </v>
   <v>       0.50000000       0.50000000       0.00000000 </v>
   <v>       0.00000000       0.00000000       0.25000000 </v>
   <v>       0.16666667       0.00000000       0.25000000 </v>
   <v>       0.33333333       0.00000000       0.25000000 </v>
   <v>       0.50000000       0.00000000       0.25000000 </v>
   <v>      -0.33333333      -0.00000000       0.25000000 </v>
   <v>      -0.16666667      -0.00000000       0.25000000 </v>
   <v>       0.00000000       0.16666667       0.25000000 </v>
   <v>       0.16666667       0.16666667       0.25000000 </v>
   <v>       0.33333333       0.16666667       0.25000000 </v>
   <v>       0.50000000       0.16666667       0.25000000 </v>
   <v>      -0.33333333       0.16666667       0.25000000 </v>
   <v>      -0.16666667       0.16666667       0.25000000 </v>
   <v>       0.00000000       0.33333333       0.25000000 </v>
   <v>       0.16666667       0.33333333       0.25000000 </v>
   <v>       0.33333333       0.33333333       0.25000000 </v>
   <v>       0.50000000       0.33333333       0.25000000 </v>
   <v>      -0.33333333       0.33333333       0.25000000 </v>
   <v>      -0.16666667       0.33333333       0.25000000 </v>
   <v>       0.00000000       0.50000000       0.25000000 </v>
   <v>       0.16666667       0.50000000       0.25000000 </v>
   <v>       0.33333333       0.50000000       0.25000000 </v>
   <v>       0.50000000       0.50000000       0.25000000 </v>
   <v>      -0.33333333       0.50000000       0.25000000 </v>
   <v>      -0.16666667       0.50000000       0.25000000 </v>
   <v>      -0.00000000      -0.33333333       0.25000000 </v>
   <v>       0.16666667      -0.33333333       0.25000000 </v>
   <v>       0.33333333      -0.33333333       0.25000000 </v>
   <v>       0.50000000      -0.33333333       0.25000000 </v>
   <v>      -0.33333333      -0.33333333       0.25000000 </v>
   <v>      -0.16666667      -0.33333333       0.25000000 </v>
   <v>       0.00000000      -0.16666667       0.25000000 </v>
   <v>       0.16666667      -0.16666667       0.25000000 </v>
   <v>       0.33333333      -0.16666667       0.25000000 </v>
   <v>       0.50000000      -0.16666667       0.25000000 </v>
   <v>      -0.33333333      -0.16666667       0.25000000 </v>
   <v>      -0.16666667      -0.16666667       0.25000000 </v>
   <v>       0.00000000       0.00000000       0.50000000 </v>
   <v>       0.16666667       0.00000000       0.50000000 </v>
   <v>       0.33333333       0.00000000       0.50000000 </v>
   <v>       0.50000000       0.00000000       0.50000000 </v>
   <v>       0.00000000       0.16666667       0.50000000 </v>
   <v>       0.16666667       0.16666667       0.50000000 </v>
   <v>       0.33333333       0.16666667       0.50000000 </v>
   <v>       0.50000000       0.16666667       0.50000000 </v>
   <v>      -0.33333333       0.16666667       0.50000000 </v>
   <v>      -0.16666667       0.16666667       0.50000000 </v>
   <v>       0.00000000       0.33333333       0.50000000 </v>
   <v>       0.16666667       0.33333333       0.50000000 </v>
   <v>       0.33333333       0.33333333       0.50000000 </v>
   <v>       0.50000000       0.33333333       0.50000000 </v>
   <v>      -0.33333333       0.33333333       0.50000000 </v>
   <v>      -0.16666667       0.33333333       0.50000000 </v>
   <v>       0.00000000       0.50000000       0.50000000 </v>
   <v>       0.16666667       0.50000000       0.50000000 </v>
   <v>       0.33333333       0.50000000       0.50000000 </v>
   <v>       0.50000000       0.50000000       0.50000000 </v>
  </varray>
  <varray name="weights" >
   <v>       0.00694444 </v>
   <v>       0.01388889 </v>
   <v>       0.01388889 </v>
   <v>       0.00694444 </v>
   <v>       0.01388889 </v>
   <v>       0.01388889 </v>
   <v>       0.01388889 </v>
   <v>       0.01388889 </v>
   <v>       0.01388889 </v>
   <v>       0.01388889 </v>
   <v>       0.01388889 </v>
   <v>       0.01388889 </v>
   <v>       0.01388889 </v>
   <v>       0.01388889 </v>
   <v>       0.01388889 </v>
   <v>       0.01388889 </v>
   <v>       0.00694444 </v>
   <v>       0.01388889 </v>
   <v>       0.01388889 </v>
   <v>       0.00694444 </v>
   <v>       0.01388889 </v>
   <v>       0.01388889 </v>
   <v>       0.01388889 </v>
   <v>       0.01388889 </v>
   <v>       0.01388889 </v>
   <v>       0.01388889 </v>
   <v>       0.01388889 </v>
   <v>       0.01388889 </v>
   <v>       0.01388889 </v>
   <v>       0.01388889 </v>
   <v>       0.01388889 </v>
   <v>       0.01388889 </v>
   <v>       0.01388889 </v>
   <v>       0.01388889 </v>
   <v>       0.01388889 </v>
   <v>       0.01388889 </v>
   <v>       0.01388889 </v>
   <v>       0.01388889 </v>
   <v>       0.01388889 </v>
   <v>       0.01388889 </v>
   <v>       0.01388889 </v>
   <v>       0.01388889 </v>
   <v>       0.01388889 </v>
   <v>       0.01388889 </v>
   <v>       0.01388889 </v>
   <v>       0.01388889 </v>
   <v>       0.01388889 </v>
   <v>       0.01388889 </v>
   <v>       0.01388889 </v>
   <v>       0.01388889 </v>
   <v>       0.01388889 </v>
   <v>       0.01388889 </v>
   <v>       0.01388889 </v>
   <v>       0.01388889 </v>
   <v>       0.01388889 </v>
   <v>       0.01388889 </v>
   <v>       0.00694444 </v>
   <v>       0.01388889 </v>
   <v>       0.01388889 </v>
   <v>       0.00694444 </v>
   <v>       0.01388889 </v>
   <v>       0.01388889 </v>
   <v>       0.01388889 </v>
   <v>       0.01388889 </v>
   <v>       0.01388889 </v>
   <v>       0.01388889 </v>
   <v>       0.01388889 </v>
   <v>       0.01388889 </v>
   <v>       0.01388889 </v>
   <v>       0.01388889 </v>
   <v>       0.01388889 </v>
   <v>       0.01388889 </v>
   <v>       0.00694444 </v>
   <v>       0.01388889 </v>
   <v>       0.01388889 </v>
   <v>       0.00694444 </v>
  </varray>
  <varray name="tetrahedronlist"  type="int" >
   <v type="int" >        2        2        5        6       27 </v>
   <v type="int" >        2        1        2        5       27 </v>
   <v type="int" >        2        1        2       21       27 </v>
   <v type="int" >        2        2        6       27       28 </v>
   <v type="int" >        2        2       22       27       28 </v>
   <v type="int" >        2        2       21       22       27 </v>
   <v type="int" >        2        3        6        7       28 </v>
   <v type="int" >        2        2        3        6       28 </v>
   <v type="int" >        2        2        3       22       28 </v>
   <v type="int" >        2        3        7       28       29 </v>
   <v type="int" >        2        3       23       28       29 </v>
   <v type="int" >        2        3       22       23       28 </v>
   <v type="int" >        2        4        7        8       29 </v>
   <v type="int" >        2        3        4        7       29 </v>
   <v type="int" >        2        3        4       23       29 </v>
   <v type="int" >        2        4        8       29       30 </v>
   <v type="int" >        2        4       24       29       30 </v>
   <v type="int" >        2        4       23       24       29 </v>
   <v type="int" >        2        3        8        9       30 </v>
   <v type="int" >        2        3        4        8       30 </v>
   <v type="int" >        2        3        4       24       30 </v>
   <v type="int" >        2        3        9       30       31 </v>
   <v type="int" >        2        3       25       30       31 </v>
   <v type="int" >        2        3       24       25       30 </v>
   <v type="int" >        2        2        9       10       31 </v>
   <v type="int" >        2        2        3        9       31 </v>
   <v type="int" >        2        2        3       25       31 </v>
   <v type="int" >        2        2       10       31       32 </v>
   <v type="int" >        2        2       26       31       32 </v>
   <v type="int" >        2        2       25       26       31 </v>
   <v type="int" >        2        1        5       10       32 </v>
   <v type="int" >        2        1        2       10       32 </v>
   <v type="int" >        2        1        2       26       32 </v>
   <v type="int" >        2        1        5       27       32 </v>
   <v type="int" >        2        1       21       27       32 </v>
   <v type="int" >        2        1       21       26       32 </v>
   <v type="int" >        2        6       11       12       33 </v>
   <v type="int" >        2        5        6       11       33 </v>
   <v type="int" >        2        5        6       27       33 </v>
   <v type="int" >        2        6       12       33       34 </v>
   <v type="int" >        2        6       28       33       34 </v>
   <v type="int" >        2        6       27       28       33 </v>
   <v type="int" >        2        7       12       13       34 </v>
   <v type="int" >        2        6        7       12       34 </v>
   <v type="int" >        2        6        7       28       34 </v>
   <v type="int" >        2        7       13       34       35 </v>
   <v type="int" >        2        7       29       34       35 </v>
   <v type="int" >        2        7       28       29       34 </v>
   <v type="int" >        2        8       13       14       35 </v>
   <v type="int" >        2        7        8       13       35 </v>
   <v type="int" >        2        7        8       29       35 </v>
   <v type="int" >        2        8       14       35       36 </v>
   <v type="int" >        2        8       30       35       36 </v>
   <v type="int" >        2        8       29       30       35 </v>
   <v type="int" >        2        9       14       15       36 </v>
   <v type="int" >        2        8        9       14       36 </v>
   <v type="int" >        2        8        9       30       36 </v>
   <v type="int" >        2        9       15       36       37 </v>
   <v type="int" >        2        9       31       36       37 </v>
   <v type="int" >        2        9       30       31       36 </v>
   <v type="int" >        2       10       15       16       37 </v>
   <v type="int" >        2        9       10       15       37 </v>
   <v type="int" >        2        9       10       31       37 </v>
   <v type="int" >        2       10       16       37       38 </v>
   <v type="int" >        2       10       32       37       38 </v>
   <v type="int" >        2       10       31       32       37 </v>
   <v type="int" >        2        5       11       16       38 </v>
   <v type="int" >        2        5       10       16       38 </v>
   <v type="int" >        2        5       10       32       38 </v>
   <v type="int" >        2        5       11       33       38 </v>
   <v type="int" >        2        5       27       33       38 </v>
   <v type="int" >        2        5       27       32       38 </v>
   <v type="int" >        2       12       17       18       39 </v>
   <v type="int" >        2       11       12       17       39 </v>
   <v type="int" >        2       11       12       33       39 </v>
   <v type="int" >        2       12       18       39       40 </v>
   <v type="int" >        2       12       34       39       40 </v>
   <v type="int" >        2       12       33       34       39 </v>
   <v type="int" >        2       13       18       19       40 </v>
   <v type="int" >        2       12       13       18       40 </v>
   <v type="int" >        2       12       13       34       40 </v>
   <v type="int" >        2       13       19       40       41 </v>
   <v type="int" >        2       13       35       40       41 </v>
   <v type="int" >        2       13       34       35       40 </v>
   <v type="int" >        2       14       19       20       41 </v>
   <v type="int" >        2       13       14       19       41 </v>
   <v type="int" >        2       13       14       35       41 </v>
   <v type="int" >        2       14       20       41       42 </v>
   <v type="int" >        2       14       36       41       42 </v>
   <v type="int" >        2       14       35       36       41 </v>
   <v type="int" >        2       15       19       20       42 </v>
   <v type="int" >        2       14       15       20       42 </v>
   <v type="int" >        2       14       15       36       42 </v>
   <v type="int" >        2       15       19       42       43 </v>
   <v type="int" >        2       15       37       42       43 </v>
   <v type="int" >        2       15       36       37       42 </v>
   <v type="int" >        2       16       18       19       43 </v>
   <v type="int" >        2       15       16       19       43 </v>
   <v type="int" >        2       15       16       37       43 </v>
   <v type="int" >        2       16       18       43       44 </v>
   <v type="int" >        2       16       38       43       44 </v>
   <v type="int" >        2       16       37       38       43 </v>
   <v type="int" >        2       11       17       18       44 </v>
   <v type="int" >        2       11       16       18       44 </v>
   <v type="int" >        2       11       16       38       44 </v>
   <v type="int" >        2       11       17       39       44 </v>
   <v type="int" >        2       11       33       39       44 </v>
   <v type="int" >        2       11       33       38       44 </v>
   <v type="int" >        2       11       16       18       45 </v>
   <v type="int" >        2       11       17       18       45 </v>
   <v type="int" >        2       17       18       39       45 </v>
   <v type="int" >        2       16       18       45       46 </v>
   <v type="int" >        2       18       40       45       46 </v>
   <v type="int" >        2       18       39       40       45 </v>
   <v type="int" >        2       15       16       19       46 </v>
   <v type="int" >        2       16       18       19       46 </v>
   <v type="int" >        2       18       19       40       46 </v>
   <v type="int" >        2       15       19       46       47 </v>
   <v type="int" >        2       19       41       46       47 </v>
   <v type="int" >        2       19       40       41       46 </v>
   <v type="int" >        2       14       15       20       47 </v>
   <v type="int" >        2       15       19       20       47 </v>
   <v type="int" >        2       19       20       41       47 </v>
   <v type="int" >        2       14       20       47       48 </v>
   <v type="int" >        2       20       42       47       48 </v>
   <v type="int" >        2       20       41       42       47 </v>
   <v type="int" >        2       13       14       19       48 </v>
   <v type="int" >        2       14       19       20       48 </v>
   <v type="int" >        2       19       20       42       48 </v>
   <v type="int" >        2       13       19       48       49 </v>
   <v type="int" >        2       19       43       48       49 </v>
   <v type="int" >        2       19       42       43       48 </v>
   <v type="int" >        2       12       13       18       49 </v>
   <v type="int" >        2       13       18       19       49 </v>
   <v type="int" >        2       18       19       43       49 </v>
   <v type="int" >        2       12       18       49       50 </v>
   <v type="int" >        2       18       44       49       50 </v>
   <v type="int" >        2       18       43       44       49 </v>
   <v type="int" >        2       11       12       17       50 </v>
   <v type="int" >        2       12       17       18       50 </v>
   <v type="int" >        2       17       18       44       50 </v>
   <v type="int" >        2       11       17       45       50 </v>
   <v type="int" >        2       17       39       45       50 </v>
   <v type="int" >        2       17       39       44       50 </v>
   <v type="int" >        2        5       10       16       51 </v>
   <v type="int" >        2        5       11       16       51 </v>
   <v type="int" >        2       11       16       45       51 </v>
   <v type="int" >        2       10       16       51       52 </v>
   <v type="int" >        2       16       46       51       52 </v>
   <v type="int" >        2       16       45       46       51 </v>
   <v type="int" >        2        9       10       15       52 </v>
   <v type="int" >        2       10       15       16       52 </v>
   <v type="int" >        2       15       16       46       52 </v>
   <v type="int" >        2        9       15       52       53 </v>
   <v type="int" >        2       15       47       52       53 </v>
   <v type="int" >        2       15       46       47       52 </v>
   <v type="int" >        2        8        9       14       53 </v>
   <v type="int" >        2        9       14       15       53 </v>
   <v type="int" >        2       14       15       47       53 </v>
   <v type="int" >        2        8       14       53       54 </v>
   <v type="int" >        2       14       48       53       54 </v>
   <v type="int" >        2       14       47       48       53 </v>
   <v type="int" >        2        7        8       13       54 </v>
   <v type="int" >        2        8       13       14       54 </v>
   <v type="int" >        2       13       14       48       54 </v>
   <v type="int" >        2        7       13       54       55 </v>
   <v type="int" >        2       13       49       54       55 </v>
   <v type="int" >        2       13       48       49       54 </v>
   <v type="int" >        2        6        7       12       55 </v>
   <v type="int" >        2        7       12       13       55 </v>
   <v type="int" >        2       12       13       49       55 </v>
   <v type="int" >        2        6       12       55       56 </v>
   <v type="int" >        2       12       50       55       56 </v>
   <v type="int" >        2       12       49       50       55 </v>
   <v type="int" >        2        5        6       11       56 </v>
   <v type="int" >        2        6       11       12       56 </v>
   <v type="int" >        2       11       12       50       56 </v>
   <v type="int" >        2        5       11       51       56 </v>
   <v type="int" >        2       11       45       51       56 </v>
   <v type="int" >        2       11       45       50       56 </v>
   <v type="int" >        2        1        2       10       21 </v>
   <v type="int" >        2        1        5       10       21 </v>
   <v type="int" >        2        5       10       21       51 </v>
   <v type="int" >        2        2       10       21       22 </v>
   <v type="int" >        2       10       21       22       52 </v>
   <v type="int" >        2       10       21       51       52 </v>
   <v type="int" >        2        2        3        9       22 </v>
   <v type="int" >        2        2        9       10       22 </v>
   <v type="int" >        2        9       10       22       52 </v>
   <v type="int" >        2        3        9       22       23 </v>
   <v type="int" >        2        9       22       23       53 </v>
   <v type="int" >        2        9       22       52       53 </v>
   <v type="int" >        2        3        4        8       23 </v>
   <v type="int" >        2        3        8        9       23 </v>
   <v type="int" >        2        8        9       23       53 </v>
   <v type="int" >        2        4        8       23       24 </v>
   <v type="int" >        2        8       23       24       54 </v>
   <v type="int" >        2        8       23       53       54 </v>
   <v type="int" >        2        3        4        7       24 </v>
   <v type="int" >        2        4        7        8       24 </v>
   <v type="int" >        2        7        8       24       54 </v>
   <v type="int" >        2        3        7       24       25 </v>
   <v type="int" >        2        7       24       25       55 </v>
   <v type="int" >        2        7       24       54       55 </v>
   <v type="int" >        2        2        3        6       25 </v>
   <v type="int" >        2        3        6        7       25 </v>
   <v type="int" >        2        6        7       25       55 </v>
   <v type="int" >        2        2        6       25       26 </v>
   <v type="int" >        2        6       25       26       56 </v>
   <v type="int" >        2        6       25       55       56 </v>
   <v type="int" >        2        1        2        5       26 </v>
   <v type="int" >        2        2        5        6       26 </v>
   <v type="int" >        2        5        6       26       56 </v>
   <v type="int" >        2        1        5       21       26 </v>
   <v type="int" >        2        5       21       26       51 </v>
   <v type="int" >        2        5       26       51       56 </v>
   <v type="int" >        2       22       27       28       61 </v>
   <v type="int" >        2       21       22       27       61 </v>
   <v type="int" >        2       21       22       57       61 </v>
   <v type="int" >        2       22       28       61       62 </v>
   <v type="int" >        2       22       58       61       62 </v>
   <v type="int" >        2       22       57       58       61 </v>
   <v type="int" >        2       23       28       29       62 </v>
   <v type="int" >        2       22       23       28       62 </v>
   <v type="int" >        2       22       23       58       62 </v>
   <v type="int" >        2       23       29       62       63 </v>
   <v type="int" >        2       23       59       62       63 </v>
   <v type="int" >        2       23       58       59       62 </v>
   <v type="int" >        2       24       29       30       63 </v>
   <v type="int" >        2       23       24       29       63 </v>
   <v type="int" >        2       23       24       59       63 </v>
   <v type="int" >        2       24       30       63       64 </v>
   <v type="int" >        2       24       60       63       64 </v>
   <v type="int" >        2       24       59       60       63 </v>
   <v type="int" >        2       25       30       31       64 </v>
   <v type="int" >        2       24       25       30       64 </v>
   <v type="int" >        2       24       25       60       64 </v>
   <v type="int" >        2       25       31       64       65 </v>
   <v type="int" >        2       25       59       64       65 </v>
   <v type="int" >        2       25       59       60       64 </v>
   <v type="int" >        2       26       31       32       65 </v>
   <v type="int" >        2       25       26       31       65 </v>
   <v type="int" >        2       25       26       59       65 </v>
   <v type="int" >        2       26       32       65       66 </v>
   <v type="int" >        2       26       58       65       66 </v>
   <v type="int" >        2       26       58       59       65 </v>
   <v type="int" >        2       21       27       32       66 </v>
   <v type="int" >        2       21       26       32       66 </v>
   <v type="int" >        2       21       26       58       66 </v>
   <v type="int" >        2       21       27       61       66 </v>
   <v type="int" >        2       21       57       61       66 </v>
   <v type="int" >        2       21       57       58       66 </v>
   <v type="int" >        2       28       33       34       67 </v>
   <v type="int" >        2       27       28       33       67 </v>
   <v type="int" >        2       27       28       61       67 </v>
   <v type="int" >        2       28       34       67       68 </v>
   <v type="int" >        2       28       62       67       68 </v>
   <v type="int" >        2       28       61       62       67 </v>
   <v type="int" >        2       29       34       35       68 </v>
   <v type="int" >        2       28       29       34       68 </v>
   <v type="int" >        2       28       29       62       68 </v>
   <v type="int" >        2       29       35       68       69 </v>
   <v type="int" >        2       29       63       68       69 </v>
   <v type="int" >        2       29       62       63       68 </v>
   <v type="int" >        2       30       35       36       69 </v>
   <v type="int" >        2       29       30       35       69 </v>
   <v type="int" >        2       29       30       63       69 </v>
   <v type="int" >        2       30       36       69       70 </v>
   <v type="int" >        2       30       64       69       70 </v>
   <v type="int" >        2       30       63       64       69 </v>
   <v type="int" >        2       31       36       37       70 </v>
   <v type="int" >        2       30       31       36       70 </v>
   <v type="int" >        2       30       31       64       70 </v>
   <v type="int" >        2       31       37       70       71 </v>
   <v type="int" >        2       31       65       70       71 </v>
   <v type="int" >        2       31       64       65       70 </v>
   <v type="int" >        2       32       37       38       71 </v>
   <v type="int" >        2       31       32       37       71 </v>
   <v type="int" >        2       31       32       65       71 </v>
   <v type="int" >        2       32       38       71       72 </v>
   <v type="int" >        2       32       66       71       72 </v>
   <v type="int" >        2       32       65       66       71 </v>
   <v type="int" >        2       27       33       38       72 </v>
   <v type="int" >        2       27       32       38       72 </v>
   <v type="int" >        2       27       32       66       72 </v>
   <v type="int" >        2       27       33       67       72 </v>
   <v type="int" >        2       27       61       67       72 </v>
   <v type="int" >        2       27       61       66       72 </v>
   <v type="int" >        2       34       39       40       73 </v>
   <v type="int" >        2       33       34       39       73 </v>
   <v type="int" >        2       33       34       67       73 </v>
   <v type="int" >        2       34       40       73       74 </v>
   <v type="int" >        2       34       68       73       74 </v>
   <v type="int" >        2       34       67       68       73 </v>
   <v type="int" >        2       35       40       41       74 </v>
   <v type="int" >        2       34       35       40       74 </v>
   <v type="int" >        2       34       35       68       74 </v>
   <v type="int" >        2       35       41       74       75 </v>
   <v type="int" >        2       35       69       74       75 </v>
   <v type="int" >        2       35       68       69       74 </v>
   <v type="int" >        2       36       41       42       75 </v>
   <v type="int" >        2       35       36       41       75 </v>
   <v type="int" >        2       35       36       69       75 </v>
   <v type="int" >        2       36       42       75       76 </v>
   <v type="int" >        2       36       70       75       76 </v>
   <v type="int" >        2       36       69       70       75 </v>
   <v type="int" >        2       37       42       43       76 </v>
   <v type="int" >        2       36       37       42       76 </v>
   <v type="int" >        2       36       37       70       76 </v>
   <v type="int" >        2       37       43       75       76 </v>
   <v type="int" >        2       37       71       75       76 </v>
   <v type="int" >        2       37       70       71       76 </v>
   <v type="int" >        2       38       43       44       75 </v>
   <v type="int" >        2       37       38       43       75 </v>
   <v type="int" >        2       37       38       71       75 </v>
   <v type="int" >        2       38       44       74       75 </v>
   <v type="int" >        2       38       72       74       75 </v>
   <v type="int" >        2       38       71       72       75 </v>
   <v type="int" >        2       33       39       44       74 </v>
   <v type="int" >        2       33       38       44       74 </v>
   <v type="int" >        2       33       38       72       74 </v>
   <v type="int" >        2       33       39       73       74 </v>
   <v type="int" >        2       33       67       73       74 </v>
   <v type="int" >        2       33       67       72       74 </v>
   <v type="int" >        2       40       45       46       67 </v>
   <v type="int" >        2       39       40       45       67 </v>
   <v type="int" >        2       39       40       67       73 </v>
   <v type="int" >        2       40       46       67       72 </v>
   <v type="int" >        2       40       67       72       74 </v>
   <v type="int" >        2       40       67       73       74 </v>
   <v type="int" >        2       41       46       47       72 </v>
   <v type="int" >        2       40       41       46       72 </v>
   <v type="int" >        2       40       41       72       74 </v>
   <v type="int" >        2       41       47       71       72 </v>
   <v type="int" >        2       41       71       72       75 </v>
   <v type="int" >        2       41       72       74       75 </v>
   <v type="int" >        2       42       47       48       71 </v>
   <v type="int" >        2       41       42       47       71 </v>
   <v type="int" >        2       41       42       71       75 </v>
   <v type="int" >        2       42       48       70       71 </v>
   <v type="int" >        2       42       70       71       76 </v>
   <v type="int" >        2       42       71       75       76 </v>
   <v type="int" >        2       43       48       49       70 </v>
   <v type="int" >        2       42       43       48       70 </v>
   <v type="int" >        2       42       43       70       76 </v>
   <v type="int" >        2       43       49       69       70 </v>
   <v type="int" >        2       43       69       70       75 </v>
   <v type="int" >        2       43       70       75       76 </v>
   <v type="int" >        2       44       49       50       69 </v>
   <v type="int" >        2       43       44       49       69 </v>
   <v type="int" >        2       43       44       69       75 </v>
   <v type="int" >        2       44       50       68       69 </v>
   <v type="int" >        2       44       68       69       74 </v>
   <v type="int" >        2       44       69       74       75 </v>
   <v type="int" >        2       39       45       50       68 </v>
   <v type="int" >        2       39       44       50       68 </v>
   <v type="int" >        2       39       44       68       74 </v>
   <v type="int" >        2       39       45       67       68 </v>
   <v type="int" >        2       39       67       68       73 </v>
   <v type="int" >        2       39       68       73       74 </v>
   <v type="int" >        2       46       51       52       61 </v>
   <v type="int" >        2       45       46       51       61 </v>
   <v type="int" >        2       45       46       61       67 </v>
   <v type="int" >        2       46       52       61       66 </v>
   <v type="int" >        2       46       61       66       72 </v>
   <v type="int" >        2       46       61       67       72 </v>
   <v type="int" >        2       47       52       53       66 </v>
   <v type="int" >        2       46       47       52       66 </v>
   <v type="int" >        2       46       47       66       72 </v>
   <v type="int" >        2       47       53       65       66 </v>
   <v type="int" >        2       47       65       66       71 </v>
   <v type="int" >        2       47       66       71       72 </v>
   <v type="int" >        2       48       53       54       65 </v>
   <v type="int" >        2       47       48       53       65 </v>
   <v type="int" >        2       47       48       65       71 </v>
   <v type="int" >        2       48       54       64       65 </v>
   <v type="int" >        2       48       64       65       70 </v>
   <v type="int" >        2       48       65       70       71 </v>
   <v type="int" >        2       49       54       55       64 </v>
   <v type="int" >        2       48       49       54       64 </v>
   <v type="int" >        2       48       49       64       70 </v>
   <v type="int" >        2       49       55       63       64 </v>
   <v type="int" >        2       49       63       64       69 </v>
   <v type="int" >        2       49       64       69       70 </v>
   <v type="int" >        2       50       55       56       63 </v>
   <v type="int" >        2       49       50       55       63 </v>
   <v type="int" >        2       49       50       63       69 </v>
   <v type="int" >        2       50       56       62       63 </v>
   <v type="int" >        2       50       62       63       68 </v>
   <v type="int" >        2       50       63       68       69 </v>
   <v type="int" >        2       45       51       56       62 </v>
   <v type="int" >        2       45       50       56       62 </v>
   <v type="int" >        2       45       50       62       68 </v>
   <v type="int" >        2       45       51       61       62 </v>
   <v type="int" >        2       45       61       62       67 </v>
   <v type="int" >        2       45       62       67       68 </v>
   <v type="int" >        2       21       22       52       57 </v>
   <v type="int" >        2       21       51       52       57 </v>
   <v type="int" >        2       51       52       57       61 </v>
   <v type="int" >        2       22       52       57       58 </v>
   <v type="int" >        2       52       57       58       66 </v>
   <v type="int" >        2       52       57       61       66 </v>
   <v type="int" >        2       22       23       53       58 </v>
   <v type="int" >        2       22       52       53       58 </v>
   <v type="int" >        2       52       53       58       66 </v>
   <v type="int" >        2       23       53       58       59 </v>
   <v type="int" >        2       53       58       59       65 </v>
   <v type="int" >        2       53       58       65       66 </v>
   <v type="int" >        2       23       24       54       59 </v>
   <v type="int" >        2       23       53       54       59 </v>
   <v type="int" >        2       53       54       59       65 </v>
   <v type="int" >        2       24       54       59       60 </v>
   <v type="int" >        2       54       59       60       64 </v>
   <v type="int" >        2       54       59       64       65 </v>
   <v type="int" >        2       24       25       55       60 </v>
   <v type="int" >        2       24       54       55       60 </v>
   <v type="int" >        2       54       55       60       64 </v>
   <v type="int" >        2       25       55       59       60 </v>
   <v type="int" >        2       55       59       60       63 </v>
   <v type="int" >        2       55       60       63       64 </v>
   <v type="int" >        2       25       26       56       59 </v>
   <v type="int" >        2       25       55       56       59 </v>
   <v type="int" >        2       55       56       59       63 </v>
   <v type="int" >        2       26       56       58       59 </v>
   <v type="int" >        2       56       58       59       62 </v>
   <v type="int" >        2       56       59       62       63 </v>
   <v type="int" >        2       21       26       51       58 </v>
   <v type="int" >        2       26       51       56       58 </v>
   <v type="int" >        2       51       56       58       62 </v>
   <v type="int" >        2       21       51       57       58 </v>
   <v type="int" >        2       51       57       58       61 </v>
   <v type="int" >        2       51       58       61       62 </v>
  </varray>
  <i name="volumeweight">      0.00115741 </i>
 </kpoints>
 <parameters>
  <separator name="general" >
   <i type="string" name="SYSTEM">graphite</i>
   <i type="logical" name="LCOMPAT"> F  </i>
  </separator>
  <separator name="electronic" >
   <i type="string" name="PREC">accura</i>
   <i name="ENMAX">    800.00000000</i>
   <i name="ENAUG">    644.87300000</i>
   <i name="EDIFF">      0.00000001</i>
   <i type="int" name="IALGO">    38</i>
   <i type="int" name="IWAVPR">    10</i>
   <i type="int" name="NBANDS">    84</i>
   <i name="NELECT">    128.00000000</i>
   <i type="int" name="TURBO">     0</i>
   <i type="int" name="IRESTART">     0</i>
   <i type="int" name="NREBOOT">     0</i>
   <i type="int" name="NMIN">     0</i>
   <i name="EREF">      0.00000000</i>
   <separator name="electronic smearing" >
    <i type="int" name="ISMEAR">    -5</i>
    <i name="SIGMA">      0.20000000</i>
    <i name="KSPACING">      0.50000000</i>
    <i type="logical" name="KGAMMA"> T  </i>
   </separator>
   <separator name="electronic projectors" >
    <i type="logical" name="LREAL"> F  </i>
    <v name="ROPT">      0.00000000</v>
    <i type="int" name="LMAXPAW">  -100</i>
    <i type="int" name="LMAXMIX">     2</i>
    <i type="logical" name="NLSPLINE"> F  </i>
   </separator>
   <separator name="electronic startup" >
    <i type="int" name="ISTART">     0</i>
    <i type="int" name="ICHARG">     2</i>
    <i type="int" name="INIWAV">     1</i>
   </separator>
   <separator name="electronic spin" >
    <i type="int" name="ISPIN">     1</i>
    <i type="logical" name="LNONCOLLINEAR"> F  </i>
    <v name="MAGMOM">      1.00000000      1.00000000      1.00000000      1.00000000      1.00000000      1.00000000      1.00000000      1.00000000      1.00000000      1.00000000      1.00000000      1.00000000      1.00000000      1.00000000      1.00000000      1.00000000      1.00000000      1.00000000      1.00000000      1.00000000
      1.00000000      1.00000000      1.00000000      1.00000000      1.00000000      1.00000000      1.00000000      1.00000000      1.00000000      1.00000000      1.00000000      1.00000000</v>
    <i name="NUPDOWN">     -1.00000000</i>
    <i type="logical" name="LSORBIT"> F  </i>
    <v name="SAXIS">      0.00000000      0.00000000      1.00000000</v>
    <i type="logical" name="LSPIRAL"> F  </i>
    <v name="QSPIRAL">      0.00000000      0.00000000      0.00000000</v>
    <i type="logical" name="LZEROZ"> F  </i>
   </separator>
   <separator name="electronic exchange-correlation" >
    <i type="logical" name="LASPH"> F  </i>
    <i type="logical" name="LMETAGGA"> F  </i>
   </separator>
   <separator name="electronic convergence" >
    <i type="int" name="NELM">   200</i>
    <i type="int" name="NELMDL">     0</i>
    <i type="int" name="NELMIN">     2</i>
    <i name="ENINI">    800.00000000</i>
    <separator name="electronic convergence detail" >
     <i type="logical" name="LDIAG"> T  </i>
     <i type="logical" name="LSUBROT"> F  </i>
     <i name="WEIMIN">      0.00000000</i>
     <i name="EBREAK">      0.00000000</i>
     <i name="DEPER">      0.30000000</i>
     <i type="int" name="NRMM">     4</i>
     <i name="TIME">      0.40000000</i>
    </separator>
   </separator>
   <separator name="electronic mixer" >
    <i name="AMIX">      0.40000000</i>
    <i name="BMIX">      1.00000000</i>
    <i name="AMIN">      0.10000000</i>
    <i name="AMIX_MAG">      1.60000000</i>
    <i name="BMIX_MAG">      1.00000000</i>
    <separator name="electronic mixer details" >
     <i type="int" name="IMIX">     4</i>
     <i type="int" name="MAXMIX">   -45</i>
     <i name="WC">    100.00000000</i>
     <i type="int" name="INIMIX">     1</i>
     <i type="int" name="MIXPRE">     1</i>
     <i type="int" name="MREMOVE">     5</i>
    </separator>
   </separator>
   <separator name="electronic dipolcorrection" >
    <i type="logical" name="LDIPOL"> F  </i>
    <i type="logical" name="LMONO"> F  </i>
    <i type="int" name="IDIPOL">     0</i>
    <i name="EPSILON">      1.00000000</i>
    <v name="DIPOL">   -100.00000000   -100.00000000   -100.00000000</v>
    <i name="EFIELD">      0.00000000</i>
   </separator>
  </separator>
  <separator name="grids" >
   <i type="int" name="NGX">    48</i>
   <i type="int" name="NGY">    48</i>
   <i type="int" name="NGZ">   126</i>
   <i type="int" name="NGXF">    96</i>
   <i type="int" name="NGYF">    96</i>
   <i type="int" name="NGZF">   252</i>
   <i type="logical" name="ADDGRID"> F  </i>
  </separator>
  <separator name="ionic" >
   <i type="int" name="NSW">     0</i>
   <i type="int" name="IBRION">    -1</i>
   <i type="int" name="ISIF">     2</i>
   <i name="PSTRESS">      0.00000000</i>
   <i name="EDIFFG">      0.00100000</i>
   <i type="int" name="NFREE">     0</i>
   <i name="POTIM">      0.50000000</i>
   <i name="SMASS">     -3.00000000</i>
   <i name="SCALEE">      1.00000000</i>
  </separator>
  <separator name="ionic md" >
   <i name="TEBEG">      0.00010000</i>
   <i name="TEEND">      0.00010000</i>
   <i type="int" name="NBLOCK">     1</i>
   <i type="int" name="KBLOCK">     1</i>
   <i type="int" name="NPACO">   256</i>
   <i name="APACO">     16.00000000</i>
  </separator>
  <separator name="symmetry" >
   <i type="int" name="ISYM">     2</i>
   <i name="SYMPREC">      0.00001000</i>
  </separator>
  <separator name="dos" >
   <i type="logical" name="LORBIT"> F  </i>
   <v name="RWIGS">     -1.00000000</v>
   <i type="int" name="NEDOS">   301</i>
   <i name="EMIN">     10.00000000</i>
   <i name="EMAX">    -10.00000000</i>
   <i name="EFERMI">      0.00000000</i>
  </separator>
  <separator name="writing" >
   <i type="int" name="NWRITE">     2</i>
   <i type="logical" name="LWAVE"> F  </i>
   <i type="logical" name="LCHARG"> F  </i>
   <i type="logical" name="LPARD"> F  </i>
   <i type="logical" name="LVTOT"> F  </i>
   <i type="logical" name="LVHAR"> F  </i>
   <i type="logical" name="LELF"> F  </i>
   <i type="logical" name="LOPTICS"> F  </i>
   <v name="STM">      0.00000000      0.00000000      0.00000000      0.00000000      0.00000000      0.00000000      0.00000000</v>
  </separator>
  <separator name="performance" >
   <i type="int" name="NPAR">     6</i>
   <i type="int" name="NSIM">     4</i>
   <i type="int" name="NBLK">    -1</i>
   <i type="logical" name="LPLANE"> T  </i>
   <i type="logical" name="LSCALAPACK"> T  </i>
   <i type="logical" name="LSCAAWARE"> F  </i>
   <i type="logical" name="LSCALU"> F  </i>
   <i type="logical" name="LASYNC"> F  </i>
   <i type="logical" name="LORBITALREAL"> F  </i>
  </separator>
  <separator name="miscellaneous" >
   <i type="int" name="IDIOT">     3</i>
   <i type="logical" name="LMUSIC"> F  </i>
   <v name="POMASS">     12.01100000</v>
   <v name="DARWINR">      0.00000000</v>
   <v name="DARWINV">      1.00000000</v>
   <i type="logical" name="LCORR"> T  </i>
  </separator>
  <i type="logical" name="GGA_COMPAT"> T  </i>
  <i type="logical" name="LBERRY"> F  </i>
  <i type="int" name="ICORELEVEL">     0</i>
  <i type="logical" name="LDAU"> F  </i>
  <i type="int" name="I_CONSTRAINED_M">     0</i>
  <separator name="electronic exchange-correlation" >
   <i type="string" name="GGA">PE</i>
   <i type="int" name="VOSKOWN">     0</i>
   <i type="logical" name="LHFCALC"> F  </i>
   <i type="string" name="PRECFOCK"></i>
   <i type="logical" name="LSYMGRAD"> F  </i>
   <i type="logical" name="LHFONE"> F  </i>
   <i type="logical" name="LRHFCALC"> F  </i>
   <i type="logical" name="LTHOMAS"> F  </i>
   <i type="logical" name="LMODELHF"> F  </i>
   <i name="ENCUT4O">     -1.00000000</i>
   <i type="int" name="EXXOEP">     0</i>
   <i type="int" name="FOURORBIT">     0</i>
   <i name="AEXX">      0.00000000</i>
   <i name="HFALPHA">      0.00000000</i>
   <i name="MCALPHA">      0.00000000</i>
   <i name="ALDAX">      1.00000000</i>
   <i name="AGGAX">      1.00000000</i>
   <i name="ALDAC">      1.00000000</i>
   <i name="AGGAC">      1.00000000</i>
   <i type="int" name="NKREDX">     1</i>
   <i type="int" name="NKREDY">     1</i>
   <i type="int" name="NKREDZ">     1</i>
   <i type="logical" name="SHIFTRED"> F  </i>
   <i type="logical" name="ODDONLY"> F  </i>
   <i type="logical" name="EVENONLY"> F  </i>
   <i type="int" name="LMAXFOCK">     0</i>
   <i type="int" name="NMAXFOCKAE">     0</i>
   <i type="logical" name="LFOCKAEDFT"> F  </i>
   <i name="HFSCREEN">      0.00000000</i>
   <i name="HFSCREENC">      0.00000000</i>
   <i type="int" name="NBANDSGWLOW">     0</i>
  </separator>
  <separator name="vdW DFT" >
   <i type="logical" name="LUSE_VDW"> F  </i>
   <i name="Zab_VDW">     -0.84910000</i>
   <i name="PARAM1">      0.12340000</i>
   <i name="PARAM2">      1.00000000</i>
   <i name="PARAM3">      0.00000000</i>
  </separator>
  <separator name="model GW" >
   <i type="int" name="MODEL_GW">     0</i>
   <i name="MODEL_EPS0">      5.18597232</i>
   <i name="MODEL_ALPHA">      1.00000000</i>
  </separator>
  <separator name="linear response parameters" >
   <i type="logical" name="LEPSILON"> F  </i>
   <i type="logical" name="LRPA"> F  </i>
   <i type="logical" name="LNABLA"> F  </i>
   <i type="logical" name="LVEL"> F  </i>
   <i type="int" name="KINTER">     0</i>
   <i name="CSHIFT">      0.10000000</i>
   <i name="OMEGAMAX">     -1.00000000</i>
   <i name="DEG_THRESHOLD">      0.00200000</i>
  </separator>
  <separator name="orbital magnetization" >
   <i type="logical" name="NUCIND"> F  </i>
   <v name="MAGPOS">      0.00000000      0.00000000      0.00000000</v>
   <i type="logical" name="LNICSALL"> T  </i>
   <i type="logical" name="ORBITALMAG"> F  </i>
   <i type="logical" name="LMAGBLOCH"> F  </i>
   <i type="logical" name="LCHIMAG"> F  </i>
   <i type="logical" name="LGAUGE"> T  </i>
   <i type="int" name="MAGATOM">     0</i>
   <v name="MAGDIPOL">      0.00000000      0.00000000      0.00000000</v>
   <v name="AVECCONST">      0.00000000      0.00000000      0.00000000</v>
  </separator>
  <separator name="response functions" >
   <i type="logical" name="LADDER"> F  </i>
   <i type="logical" name="LFXC"> F  </i>
   <i type="logical" name="LHARTREE"> T  </i>
   <i type="int" name="IBSE">     0</i>
   <i type="logical" name="LTCTE"> F  </i>
   <i type="logical" name="LTETE"> F  </i>
   <i type="logical" name="LTRIPLET"> F  </i>
   <i type="logical" name="LFXCEPS"> F  </i>
   <i type="logical" name="LFXHEG"> F  </i>
   <i type="logical" name="L2ORDER"> F  </i>
   <i type="logical" name="LUSEW"> F  </i>
   <i name="ENCUTGW">     -2.00000000</i>
   <i name="ENCUTGWSOFT">     -2.00000000</i>
   <i name="ENCUTLF">     -1.00000000</i>
   <i type="int" name="LMAXMP2">    -1</i>
   <i name="SCISSOR">      0.00000000</i>
   <i type="int" name="NOMEGA">     0</i>
   <i type="int" name="NOMEGAR">     0</i>
   <i type="int" name="NBANDSGW">    -1</i>
   <i type="int" name="NBANDSO">    -1</i>
   <i type="int" name="NBANDSV">    -1</i>
   <i type="int" name="NELM">   200</i>
   <i type="int" name="DIM">     3</i>
   <i type="int" name="ANTIRES">     0</i>
   <i name="OMEGAMAX">    -30.00000000</i>
   <i name="OMEGAMIN">    -30.00000000</i>
   <i name="OMEGATL">   -200.00000000</i>
   <i type="int" name="OMEGAGRID">     0</i>
   <i name="CSHIFT">     -0.10000000</i>
   <i type="logical" name="SELFENERGY"> F  </i>
   <i type="logical" name="LSPECTRAL"> F  </i>
   <i type="logical" name="ODDONLYGW"> F  </i>
   <i type="logical" name="EVENONLYGW"> F  </i>
   <i type="int" name="NKREDLFX">     1</i>
   <i type="int" name="NKREDLFY">     1</i>
   <i type="int" name="NKREDLFZ">     1</i>
   <i type="int" name="MAXMEM">  1800</i>
   <i type="int" name="TELESCOPE">     0</i>
   <i type="int" name="TAUPAR">     1</i>
  </separator>
  <separator name="External order field" >
   <i name="OFIELD_KAPPA">      0.00000000</i>
   <v name="OFIELD_K">      0.00000000      0.00000000      0.00000000</v>
   <i name="OFIELD_Q6_NEAR">      0.00000000</i>
   <i name="OFIELD_Q6_FAR">      0.00000000</i>
   <i name="OFIELD_A">      0.00000000</i>
  </separator>
 </parameters>
 <atominfo>
  <atoms>      32 </atoms>
  <types>       1 </types>
  <array name="atoms" >
   <dimension dim="1">ion</dimension>
   <field type="string">element</field>
   <field type="int">atomtype</field>
   <set>
    <rc><c>C </c><c>   1</c></rc>
    <rc><c>C </c><c>   1</c></rc>
    <rc><c>C </c><c>   1</c></rc>
    <rc><c>C </c><c>   1</c></rc>
    <rc><c>C </c><c>   1</c></rc>
    <rc><c>C </c><c>   1</c></rc>
    <rc><c>C </c><c>   1</c></rc>
    <rc><c>C </c><c>   1</c></rc>
    <rc><c>C </c><c>   1</c></rc>
    <rc><c>C </c><c>   1</c></rc>
    <rc><c>C </c><c>   1</c></rc>
    <rc><c>C </c><c>   1</c></rc>
    <rc><c>C </c><c>   1</c></rc>
    <rc><c>C </c><c>   1</c></rc>
    <rc><c>C </c><c>   1</c></rc>
    <rc><c>C </c><c>   1</c></rc>
    <rc><c>C </c><c>   1</c></rc>
    <rc><c>C </c><c>   1</c></rc>
    <rc><c>C </c><c>   1</c></rc>
    <rc><c>C </c><c>   1</c></rc>
    <rc><c>C </c><c>   1</c></rc>
    <rc><c>C </c><c>   1</c></rc>
    <rc><c>C </c><c>   1</c></rc>
    <rc><c>C </c><c>   1</c></rc>
    <rc><c>C </c><c>   1</c></rc>
    <rc><c>C </c><c>   1</c></rc>
    <rc><c>C </c><c>   1</c></rc>
    <rc><c>C </c><c>   1</c></rc>
    <rc><c>C </c><c>   1</c></rc>
    <rc><c>C </c><c>   1</c></rc>
    <rc><c>C </c><c>   1</c></rc>
    <rc><c>C </c><c>   1</c></rc>
   </set>
  </array>
  <array name="atomtypes" >
   <dimension dim="1">type</dimension>
   <field type="int">atomspertype</field>
   <field type="string">element</field>
   <field>mass</field>
   <field>valence</field>
   <field type="string">pseudopotential</field>
   <set>
    <rc><c>  32</c><c>C </c><c>     12.01100000</c><c>      4.00000000</c><c> PAW_PBE C 08Apr2002                    </c></rc>
   </set>
  </array>
 </atominfo>
 <structure name="initialpos" >
  <crystal>
   <varray name="basis" >
    <v>       4.93287450      -0.00191929       0.00000000 </v>
    <v>      -2.46809940       4.27103499       0.00000000 </v>
    <v>       0.00000000       0.00000000      13.13086644 </v>
   </varray>
   <i name="volume">    276.58519049 </i>
   <varray name="rec_basis" >
    <v>       0.20276715       0.11717288       0.00000000 </v>
    <v>       0.00009112       0.23418794       0.00000000 </v>
    <v>       0.00000000       0.00000000       0.07615644 </v>
   </varray>
  </crystal>
  <varray name="positions" >
   <v>       0.50038622       0.00032672       0.12571292 </v>
   <v>       0.99967330       0.00032672       0.12500000 </v>
   <v>       0.49967330       0.50032672       0.12500000 </v>
   <v>       0.99967330       0.50032672       0.12500000 </v>
   <v>       0.49967330       0.00032672       0.62500000 </v>
   <v>       0.99967330       0.00032672       0.62500000 </v>
   <v>       0.49967330       0.50032672       0.62500000 </v>
   <v>       0.99967330       0.50032672       0.62500000 </v>
   <v>       0.00032672       0.49967330       0.37500000 </v>
   <v>       0.50032672       0.49967330       0.37500000 </v>
   <v>       0.00032672       0.99967330       0.37500000 </v>
   <v>       0.50032672       0.99967330       0.37500000 </v>
   <v>       0.00032672       0.49967330       0.87500000 </v>
   <v>       0.50032672       0.49967330       0.87500000 </v>
   <v>       0.00032672       0.99967330       0.87500000 </v>
   <v>       0.50032672       0.99967330       0.87500000 </v>
   <v>       0.16629246       0.33370753       0.12500000 </v>
   <v>       0.66629246       0.33370753       0.12500000 </v>
   <v>       0.16629246       0.83370753       0.12500000 </v>
   <v>       0.66629246       0.83370753       0.12500000 </v>
   <v>       0.16629246       0.33370753       0.62500000 </v>
   <v>       0.66629246       0.33370753       0.62500000 </v>
   <v>       0.16629246       0.83370753       0.62500000 </v>
   <v>       0.66629246       0.83370753       0.62500000 </v>
   <v>       0.33370753       0.16629246       0.37500000 </v>
   <v>       0.83370753       0.16629246       0.37500000 </v>
   <v>       0.33370753       0.66629246       0.37500000 </v>
   <v>       0.83370753       0.66629246       0.37500000 </v>
   <v>       0.33370753       0.16629246       0.87500000 </v>
   <v>       0.83370753       0.16629246       0.87500000 </v>
   <v>       0.33370753       0.66629246       0.87500000 </v>
   <v>       0.83370753       0.66629246       0.87500000 </v>
  </varray>
 </structure>
 <calculation>
  <scstep>
   <time name="dav">  447.56  448.42</time>
   <time name="total">  449.50  450.37</time>
   <energy>
    <i name="alphaZ">    301.66361325 </i>
    <i name="ewald">  -3791.66676483 </i>
    <i name="hartreedc">  -1120.42011172 </i>
    <i name="XCdc">    443.42008827 </i>
    <i name="pawpsdc">   1210.60617908 </i>
    <i name="pawaedc">  -1247.42152856 </i>
    <i name="eentropy">      0.00000000 </i>
    <i name="bandstr">    192.68144301 </i>
    <i name="atom">   4708.94155045 </i>
    <i name="e_fr_energy">    697.80446896 </i>
    <i name="e_wo_entrp">    697.80446896 </i>
    <i name="e_0_energy">    697.80446896 </i>
   </energy>
  </scstep>
  <scstep>
   <time name="dav">  507.35  507.62</time>
   <time name="total">  507.51  507.77</time>
   <energy>
    <i name="e_fr_energy">   -255.35174913 </i>
    <i name="e_wo_entrp">   -255.35174913 </i>
    <i name="e_0_energy">   -255.35174913 </i>
   </energy>
  </scstep>
  <scstep>
   <time name="dav">  512.40  512.66</time>
   <time name="total">  512.58  512.84</time>
   <energy>
    <i name="e_fr_energy">   -312.32330561 </i>
    <i name="e_wo_entrp">   -312.32330561 </i>
    <i name="e_0_energy">   -312.32330561 </i>
   </energy>
  </scstep>
  <scstep>
   <time name="dav">  510.86  511.16</time>
   <time name="total">  510.99  511.28</time>
   <energy>
    <i name="e_fr_energy">   -313.44172665 </i>
    <i name="e_wo_entrp">   -313.44172665 </i>
    <i name="e_0_energy">   -313.44172665 </i>
   </energy>
  </scstep>
  <scstep>
   <time name="dav">  522.87  523.23</time>
   <time name="total">  534.82  535.18</time>
   <energy>
    <i name="e_fr_energy">   -313.47377312 </i>
    <i name="e_wo_entrp">   -313.47377312 </i>
    <i name="e_0_energy">   -313.47377312 </i>
   </energy>
  </scstep>
  <scstep>
   <time name="dav">  487.67  487.97</time>
   <time name="total">  501.68  501.99</time>
   <energy>
    <i name="e_fr_energy">   -299.14773508 </i>
    <i name="e_wo_entrp">   -299.14773508 </i>
    <i name="e_0_energy">   -299.14773508 </i>
   </energy>
  </scstep>
  <scstep>
   <time name="dav">  484.13  484.46</time>
   <time name="total">  498.06  498.40</time>
   <energy>
    <i name="e_fr_energy">   -294.62897133 </i>
    <i name="e_wo_entrp">   -294.62897133 </i>
    <i name="e_0_energy">   -294.62897133 </i>
   </energy>
  </scstep>
  <scstep>
   <time name="dav">  485.15  485.49</time>
   <time name="total">  498.98  499.34</time>
   <energy>
    <i name="e_fr_energy">   -294.69191041 </i>
    <i name="e_wo_entrp">   -294.69191041 </i>
    <i name="e_0_energy">   -294.69191041 </i>
   </energy>
  </scstep>
  <scstep>
   <time name="dav">  498.10  498.43</time>
   <time name="total">  511.85  512.20</time>
   <energy>
    <i name="e_fr_energy">   -294.69102858 </i>
    <i name="e_wo_entrp">   -294.69102858 </i>
    <i name="e_0_energy">   -294.69102858 </i>
   </energy>
  </scstep>
  <scstep>
   <time name="dav">  497.04  497.34</time>
   <time name="total">  510.75  511.06</time>
   <energy>
    <i name="e_fr_energy">   -294.68805390 </i>
    <i name="e_wo_entrp">   -294.68805390 </i>
    <i name="e_0_energy">   -294.68805390 </i>
   </energy>
  </scstep>
  <scstep>
   <time name="dav">  525.63  525.94</time>
   <time name="total">  539.68  540.01</time>
   <energy>
    <i name="e_fr_energy">   -294.68738340 </i>
    <i name="e_wo_entrp">   -294.68738340 </i>
    <i name="e_0_energy">   -294.68738340 </i>
   </energy>
  </scstep>
  <scstep>
   <time name="dav">  543.07  543.38</time>
   <time name="total">  557.03  557.35</time>
   <energy>
    <i name="e_fr_energy">   -294.68764755 </i>
    <i name="e_wo_entrp">   -294.68764755 </i>
    <i name="e_0_energy">   -294.68764755 </i>
   </energy>
  </scstep>
  <scstep>
   <time name="dav">  496.56  496.85</time>
   <time name="total">  510.15  510.46</time>
   <energy>
    <i name="e_fr_energy">   -294.68785463 </i>
    <i name="e_wo_entrp">   -294.68785463 </i>
    <i name="e_0_energy">   -294.68785463 </i>
   </energy>
  </scstep>
  <scstep>
   <time name="dav">  503.86  504.14</time>
   <time name="total">  518.10  518.38</time>
   <energy>
    <i name="e_fr_energy">   -294.68806711 </i>
    <i name="e_wo_entrp">   -294.68806711 </i>
    <i name="e_0_energy">   -294.68806711 </i>
   </energy>
  </scstep>
  <scstep>
   <time name="dav">  548.58  548.88</time>
   <time name="total">  562.23  562.55</time>
   <energy>
    <i name="e_fr_energy">   -294.68779359 </i>
    <i name="e_wo_entrp">   -294.68779359 </i>
    <i name="e_0_energy">   -294.68779359 </i>
   </energy>
  </scstep>
  <scstep>
   <time name="dav">  488.37  488.66</time>
   <time name="total">  502.16  502.46</time>
   <energy>
    <i name="e_fr_energy">   -294.68779941 </i>
    <i name="e_wo_entrp">   -294.68779941 </i>
    <i name="e_0_energy">   -294.68779941 </i>
   </energy>
  </scstep>
  <scstep>
   <time name="dav">  490.58  490.86</time>
   <time name="total">  504.43  504.82</time>
   <energy>
    <i name="e_fr_energy">   -294.68775300 </i>
    <i name="e_wo_entrp">   -294.68775300 </i>
    <i name="e_0_energy">   -294.68775300 </i>
   </energy>
  </scstep>
  <scstep>
   <time name="dav">  489.70  490.01</time>
   <time name="total">  503.71  504.04</time>
   <energy>
    <i name="e_fr_energy">   -294.68774868 </i>
    <i name="e_wo_entrp">   -294.68774868 </i>
    <i name="e_0_energy">   -294.68774868 </i>
   </energy>
  </scstep>
  <scstep>
   <time name="dav">  490.80  491.09</time>
   <time name="total">  504.62  504.92</time>
   <energy>
    <i name="e_fr_energy">   -294.68774796 </i>
    <i name="e_wo_entrp">   -294.68774796 </i>
    <i name="e_0_energy">   -294.68774796 </i>
   </energy>
  </scstep>
  <scstep>
   <time name="dav">  498.21  498.52</time>
   <time name="total">  512.28  512.59</time>
   <energy>
    <i name="e_fr_energy">   -294.68774708 </i>
    <i name="e_wo_entrp">   -294.68774708 </i>
    <i name="e_0_energy">   -294.68774708 </i>
   </energy>
  </scstep>
  <scstep>
   <time name="dav">  488.15  488.43</time>
   <time name="total">  501.92  502.21</time>
   <energy>
    <i name="e_fr_energy">   -294.68774698 </i>
    <i name="e_wo_entrp">   -294.68774698 </i>
    <i name="e_0_energy">   -294.68774698 </i>
   </energy>
  </scstep>
  <scstep>
   <time name="dav">  457.56  457.85</time>
   <time name="total">  471.94  472.24</time>
   <energy>
    <i name="e_fr_energy">   -294.68774694 </i>
    <i name="e_wo_entrp">   -294.68774694 </i>
    <i name="e_0_energy">   -294.68774694 </i>
   </energy>
  </scstep>
  <scstep>
   <time name="dav">  363.11  363.31</time>
   <time name="total">  376.98  377.19</time>
   <energy>
    <i name="e_fr_energy">   -294.68774691 </i>
    <i name="e_wo_entrp">   -294.68774691 </i>
    <i name="e_0_energy">   -294.68774691 </i>
   </energy>
  </scstep>
  <scstep>
   <time name="dav">  364.21  364.45</time>
   <time name="total">  378.37  378.62</time>
   <energy>
    <i name="e_fr_energy">   -294.68774690 </i>
    <i name="e_wo_entrp">   -294.68774690 </i>
    <i name="e_0_energy">   -294.68774690 </i>
   </energy>
  </scstep>
  <scstep>
   <time name="dav">  360.34  360.53</time>
   <time name="total">  362.13  362.32</time>
   <energy>
    <i name="alphaZ">    301.66361325 </i>
    <i name="ewald">  -3791.66676483 </i>
    <i name="hartreedc">  -1391.95170351 </i>
    <i name="XCdc">    461.33622395 </i>
    <i name="pawpsdc">   2223.18970257 </i>
    <i name="pawaedc">  -2264.41008926 </i>
    <i name="eentropy">      0.00000000 </i>
    <i name="bandstr">   -541.79027951 </i>
    <i name="atom">   4708.94155045 </i>
    <i name="e_fr_energy">   -294.68774689 </i>
    <i name="e_wo_entrp">   -294.68774689 </i>
    <i name="e_0_energy">   -294.68774689 </i>
   </energy>
  </scstep>
  <structure>
   <crystal>
    <varray name="basis" >
     <v>       4.93287450      -0.00191929       0.00000000 </v>
     <v>      -2.46809940       4.27103499       0.00000000 </v>
     <v>       0.00000000       0.00000000      13.13086644 </v>
    </varray>
    <i name="volume">    276.58519049 </i>
    <varray name="rec_basis" >
     <v>       0.20276715       0.11717288       0.00000000 </v>
     <v>       0.00009112       0.23418794       0.00000000 </v>
     <v>       0.00000000       0.00000000       0.07615644 </v>
    </varray>
   </crystal>
   <varray name="positions" >
    <v>       0.50038622       0.00032672       0.12571292 </v>
    <v>       0.99967330       0.00032672       0.12500000 </v>
    <v>       0.49967330       0.50032672       0.12500000 </v>
    <v>       0.99967330       0.50032672       0.12500000 </v>
    <v>       0.49967330       0.00032672       0.62500000 </v>
    <v>       0.99967330       0.00032672       0.62500000 </v>
    <v>       0.49967330       0.50032672       0.62500000 </v>
    <v>       0.99967330       0.50032672       0.62500000 </v>
    <v>       0.00032672       0.49967330       0.37500000 </v>
    <v>       0.50032672       0.49967330       0.37500000 </v>
    <v>       0.00032672       0.99967330       0.37500000 </v>
    <v>       0.50032672       0.99967330       0.37500000 </v>
    <v>       0.00032672       0.49967330       0.87500000 </v>
    <v>       0.50032672       0.49967330       0.87500000 </v>
    <v>       0.00032672       0.99967330       0.87500000 </v>
    <v>       0.50032672       0.99967330       0.87500000 </v>
    <v>       0.16629246       0.33370753       0.12500000 </v>
    <v>       0.66629246       0.33370753       0.12500000 </v>
    <v>       0.16629246       0.83370753       0.12500000 </v>
    <v>       0.66629246       0.83370753       0.12500000 </v>
    <v>       0.16629246       0.33370753       0.62500000 </v>
    <v>       0.66629246       0.33370753       0.62500000 </v>
    <v>       0.16629246       0.83370753       0.62500000 </v>
    <v>       0.66629246       0.83370753       0.62500000 </v>
    <v>       0.33370753       0.16629246       0.37500000 </v>
    <v>       0.83370753       0.16629246       0.37500000 </v>
    <v>       0.33370753       0.66629246       0.37500000 </v>
    <v>       0.83370753       0.66629246       0.37500000 </v>
    <v>       0.33370753       0.16629246       0.87500000 </v>
    <v>       0.83370753       0.16629246       0.87500000 </v>
    <v>       0.33370753       0.66629246       0.87500000 </v>
    <v>       0.83370753       0.66629246       0.87500000 </v>
   </varray>
  </structure>
  <varray name="forces" >
   <v>      -0.22709410       0.00829911      -0.13139839 </v>
   <v>       0.02928328       0.00727965      -0.00155009 </v>
   <v>      -0.00816619      -0.01435875      -0.00147948 </v>
   <v>      -0.00828025       0.02904559      -0.00170688 </v>
   <v>      -0.01358536       0.00706648       0.00525663 </v>
   <v>      -0.01354580       0.00706790       0.00530172 </v>
   <v>      -0.01356276       0.00705710       0.00530163 </v>
   <v>      -0.01356135       0.00707583       0.00530200 </v>
   <v>       0.01244104      -0.00786366      -0.00535925 </v>
   <v>       0.01218204      -0.00796247      -0.00545273 </v>
   <v>       0.01239561      -0.00768407      -0.00540341 </v>
   <v>       0.01220748      -0.00785095      -0.00466100 </v>
   <v>       0.01275946      -0.00633800      -0.00550930 </v>
   <v>       0.01298263      -0.00641781      -0.00542316 </v>
   <v>       0.01293661      -0.00658148      -0.00546818 </v>
   <v>       0.01275423      -0.00645862      -0.00452408 </v>
   <v>       0.00711220      -0.00595464       0.01178137 </v>
   <v>       0.03501763      -0.00666363       0.04627077 </v>
   <v>       0.08129126       0.02064588       0.04668970 </v>
   <v>       0.08152889      -0.03284703       0.04577368 </v>
   <v>       0.01126734      -0.00580449      -0.00078700 </v>
   <v>       0.01126828      -0.00580417      -0.00076339 </v>
   <v>       0.01126943      -0.00580405      -0.00076422 </v>
   <v>       0.01126901      -0.00580522      -0.00075964 </v>
   <v>      -0.01072116       0.00671736       0.00137830 </v>
   <v>      -0.00994249       0.00684136       0.00142383 </v>
   <v>      -0.01043996       0.00612019       0.00140921 </v>
   <v>      -0.01023657       0.00655382       0.00049931 </v>
   <v>      -0.00988750       0.00486019       0.00141728 </v>
   <v>      -0.01050399       0.00499345       0.00134571 </v>
   <v>      -0.01031448       0.00546654       0.00135807 </v>
   <v>      -0.01012446       0.00510860       0.00050098 </v>
  </varray>
  <varray name="stress" >
   <v>      -4.03691716       2.71371192      -0.04833451 </v>
   <v>       2.71371192      -0.75724889       0.03992192 </v>
   <v>      -0.04833454       0.03992191       7.50999837 </v>
  </varray>
  <energy>
   <i name="e_fr_energy">   -299.82119187 </i>
   <i name="e_wo_entrp">   -299.82119187 </i>
   <i name="e_0_energy">      0.00000000 </i>
  </energy>
  <time name="totalsc">12540.2212548.50</time>
  <eigenvalues>
   <array>
    <dimension dim="1">band</dimension>
    <dimension dim="2">kpoint</dimension>
    <dimension dim="3">spin</dimension>
    <field>eigene</field>
    <field>occ</field>
    <set>
     <set comment="spin 1">
      <set comment="kpoint 1">
       <r>  -14.7857    1.0000 </r>
       <r>  -14.6156    1.0000 </r>
       <r>  -14.6151    1.0000 </r>
       <r>  -14.4313    1.0000 </r>
       <r>   -9.4490    1.0000 </r>
       <r>   -9.4409    1.0000 </r>
       <r>   -9.4383    1.0000 </r>
       <r>   -9.3761    1.0000 </r>
       <r>   -9.3758    1.0000 </r>
       <r>   -9.3681    1.0000 </r>
       <r>   -9.3644    1.0000 </r>
       <r>   -9.3643    1.0000 </r>
       <r>   -9.3623    1.0000 </r>
       <r>   -9.3175    1.0000 </r>
       <r>   -9.3066    1.0000 </r>
       <r>   -9.3033    1.0000 </r>
       <r>   -8.3652    1.0000 </r>
       <r>   -8.3618    1.0000 </r>
       <r>   -8.3597    1.0000 </r>
       <r>   -8.3309    1.0000 </r>
       <r>   -8.3272    1.0000 </r>
       <r>   -8.3252    1.0000 </r>
       <r>   -8.3246    1.0000 </r>
       <r>   -8.3245    1.0000 </r>
       <r>   -8.3209    1.0000 </r>
       <r>   -8.2659    1.0000 </r>
       <r>   -8.2610    1.0000 </r>
       <r>   -8.2590    1.0000 </r>
       <r>   -3.7273    1.0000 </r>
       <r>   -2.7445    1.0000 </r>
       <r>   -2.7428    1.0000 </r>
       <r>   -1.5396    1.0000 </r>
       <r>   -1.5368    1.0000 </r>
       <r>   -1.5361    1.0000 </r>
       <r>   -1.5176    1.0000 </r>
       <r>   -1.5074    1.0000 </r>
       <r>   -1.5033    1.0000 </r>
       <r>   -1.5033    1.0000 </r>
       <r>   -1.5025    1.0000 </r>
       <r>   -1.4846    1.0000 </r>
       <r>   -1.4824    1.0000 </r>
       <r>   -1.4708    1.0000 </r>
       <r>   -1.4684    1.0000 </r>
       <r>   -1.4490    1.0000 </r>
       <r>    1.8558    1.0000 </r>
       <r>    1.8683    1.0000 </r>
       <r>    1.8737    1.0000 </r>
       <r>    1.8800    1.0000 </r>
       <r>    1.8835    1.0000 </r>
       <r>    1.8898    1.0000 </r>
       <r>    1.8944    1.0000 </r>
       <r>    1.9065    1.0000 </r>
       <r>    2.0472    1.0000 </r>
       <r>    2.0486    1.0000 </r>
       <r>    2.0498    1.0000 </r>
       <r>    2.5097    1.0000 </r>
       <r>    2.5120    1.0000 </r>
       <r>    2.5139    1.0000 </r>
       <r>    2.5179    1.0000 </r>
       <r>    2.5182    1.0000 </r>
       <r>    2.5199    1.0000 </r>
       <r>    2.8050    1.0000 </r>
       <r>    2.8201    1.0000 </r>
       <r>    2.8229    1.0000 </r>
       <r>    6.3946    0.0000 </r>
       <r>    6.3978    0.0000 </r>
       <r>    6.3994    0.0000 </r>
       <r>    6.5137    0.0000 </r>
       <r>    6.5193    0.0000 </r>
       <r>    6.5238    0.0000 </r>
       <r>    6.5248    0.0000 </r>
       <r>    6.5251    0.0000 </r>
       <r>    6.5304    0.0000 </r>
       <r>    7.1099    0.0000 </r>
       <r>    7.1235    0.0000 </r>
       <r>    7.1259    0.0000 </r>
       <r>    9.3664    0.0000 </r>
       <r>   12.0348    0.0000 </r>
       <r>   12.0387    0.0000 </r>
       <r>   12.0720    0.0000 </r>
       <r>   12.1768    0.0000 </r>
       <r>   12.1814    0.0000 </r>
       <r>   12.2598    0.0000 </r>
       <r>   12.2647    0.0000 </r>
      </set>
      <set comment="kpoint 2">
       <r>  -14.6198    1.0000 </r>
       <r>  -14.4513    1.0000 </r>
       <r>  -14.4508    1.0000 </r>
       <r>  -14.2688    1.0000 </r>
       <r>  -10.7592    1.0000 </r>
       <r>  -10.6290    1.0000 </r>
       <r>  -10.6285    1.0000 </r>
       <r>  -10.4909    1.0000 </r>
       <r>   -9.8845    1.0000 </r>
       <r>   -9.8776    1.0000 </r>
       <r>   -9.7696    1.0000 </r>
       <r>   -9.7690    1.0000 </r>
       <r>   -9.7620    1.0000 </r>
       <r>   -9.7616    1.0000 </r>
       <r>   -9.6497    1.0000 </r>
       <r>   -9.6421    1.0000 </r>
       <r>   -7.7588    1.0000 </r>
       <r>   -7.7508    1.0000 </r>
       <r>   -7.6682    1.0000 </r>
       <r>   -7.6655    1.0000 </r>
       <r>   -7.6587    1.0000 </r>
       <r>   -7.6584    1.0000 </r>
       <r>   -7.5670    1.0000 </r>
       <r>   -7.5587    1.0000 </r>
       <r>   -6.9118    1.0000 </r>
       <r>   -6.8176    1.0000 </r>
       <r>   -6.8160    1.0000 </r>
       <r>   -6.7170    1.0000 </r>
       <r>   -3.5259    1.0000 </r>
       <r>   -2.5491    1.0000 </r>
       <r>   -2.5473    1.0000 </r>
       <r>   -2.0310    1.0000 </r>
       <r>   -2.0119    1.0000 </r>
       <r>   -1.9896    1.0000 </r>
       <r>   -1.9891    1.0000 </r>
       <r>   -1.9713    1.0000 </r>
       <r>   -1.9690    1.0000 </r>
       <r>   -1.9467    1.0000 </r>
       <r>   -1.9275    1.0000 </r>
       <r>   -1.3760    1.0000 </r>
       <r>   -1.3490    1.0000 </r>
       <r>   -1.3439    1.0000 </r>
       <r>   -1.3410    1.0000 </r>
       <r>   -1.3085    1.0000 </r>
       <r>    0.9398    1.0000 </r>
       <r>    1.2148    1.0000 </r>
       <r>    1.2339    1.0000 </r>
       <r>    1.2381    1.0000 </r>
       <r>    1.2577    1.0000 </r>
       <r>    1.5176    1.0000 </r>
       <r>    1.5340    1.0000 </r>
       <r>    1.5390    1.0000 </r>
       <r>    1.5546    1.0000 </r>
       <r>    1.6685    1.0000 </r>
       <r>    1.6709    1.0000 </r>
       <r>    1.8133    1.0000 </r>
       <r>    1.8158    1.0000 </r>
       <r>    2.4022    1.0000 </r>
       <r>    2.4040    1.0000 </r>
       <r>    2.4082    1.0000 </r>
       <r>    2.4106    1.0000 </r>
       <r>    2.4566    1.0000 </r>
       <r>    2.9232    1.0000 </r>
       <r>    2.9352    1.0000 </r>
       <r>    6.5470    0.0000 </r>
       <r>    6.5495    0.0000 </r>
       <r>    6.7951    0.0000 </r>
       <r>    6.8004    0.0000 </r>
       <r>    6.8052    0.0000 </r>
       <r>    6.8070    0.0000 </r>
       <r>    7.2000    0.0000 </r>
       <r>    7.3896    0.0000 </r>
       <r>    7.3993    0.0000 </r>
       <r>    7.6264    0.0000 </r>
       <r>    7.6298    0.0000 </r>
       <r>    8.2994    0.0000 </r>
       <r>    9.5641    0.0000 </r>
       <r>   12.1286    0.0000 </r>
       <r>   12.3373    0.0000 </r>
       <r>   12.3417    0.0000 </r>
       <r>   12.3460    0.0000 </r>
       <r>   12.3477    0.0000 </r>
       <r>   12.5672    0.0000 </r>
       <r>   12.7708    0.0000 </r>
      </set>
      <set comment="kpoint 3">
       <r>  -14.1239    1.0000 </r>
       <r>  -13.9601    1.0000 </r>
       <r>  -13.9596    1.0000 </r>
       <r>  -13.7832    1.0000 </r>
       <r>  -12.1722    1.0000 </r>
       <r>  -12.0271    1.0000 </r>
       <r>  -12.0266    1.0000 </r>
       <r>  -11.8719    1.0000 </r>
       <r>  -10.3092    1.0000 </r>
       <r>  -10.3056    1.0000 </r>
       <r>  -10.1844    1.0000 </r>
       <r>  -10.1832    1.0000 </r>
       <r>  -10.1801    1.0000 </r>
       <r>  -10.1795    1.0000 </r>
       <r>  -10.0514    1.0000 </r>
       <r>  -10.0476    1.0000 </r>
       <r>   -6.5843    1.0000 </r>
       <r>   -6.5736    1.0000 </r>
       <r>   -6.4993    1.0000 </r>
       <r>   -6.4965    1.0000 </r>
       <r>   -6.4875    1.0000 </r>
       <r>   -6.4869    1.0000 </r>
       <r>   -6.4076    1.0000 </r>
       <r>   -6.3971    1.0000 </r>
       <r>   -4.7927    1.0000 </r>
       <r>   -4.7145    1.0000 </r>
       <r>   -4.7127    1.0000 </r>
       <r>   -4.6317    1.0000 </r>
       <r>   -3.1901    1.0000 </r>
       <r>   -3.1742    1.0000 </r>
       <r>   -3.1364    1.0000 </r>
       <r>   -3.1362    1.0000 </r>
       <r>   -3.1213    1.0000 </r>
       <r>   -3.1189    1.0000 </r>
       <r>   -3.0801    1.0000 </r>
       <r>   -3.0639    1.0000 </r>
       <r>   -2.9260    1.0000 </r>
       <r>   -1.9678    1.0000 </r>
       <r>   -1.9661    1.0000 </r>
       <r>   -0.9020    1.0000 </r>
       <r>   -0.8713    1.0000 </r>
       <r>   -0.8680    1.0000 </r>
       <r>   -0.8371    1.0000 </r>
       <r>   -0.7945    1.0000 </r>
       <r>   -0.6151    1.0000 </r>
       <r>   -0.4439    1.0000 </r>
       <r>   -0.4063    1.0000 </r>
       <r>   -0.4028    1.0000 </r>
       <r>   -0.3649    1.0000 </r>
       <r>    0.2466    1.0000 </r>
       <r>    0.2485    1.0000 </r>
       <r>    0.7180    1.0000 </r>
       <r>    0.7413    1.0000 </r>
       <r>    0.7457    1.0000 </r>
       <r>    0.7689    1.0000 </r>
       <r>    1.2706    1.0000 </r>
       <r>    1.4987    1.0000 </r>
       <r>    1.5012    1.0000 </r>
       <r>    2.2132    1.0000 </r>
       <r>    2.2143    1.0000 </r>
       <r>    2.2169    1.0000 </r>
       <r>    2.2196    1.0000 </r>
       <r>    2.9903    1.0000 </r>
       <r>    2.9962    1.0000 </r>
       <r>    7.0151    0.0000 </r>
       <r>    7.0202    0.0000 </r>
       <r>    7.3726    0.0000 </r>
       <r>    7.3776    0.0000 </r>
       <r>    7.3810    0.0000 </r>
       <r>    7.3827    0.0000 </r>
       <r>    7.8494    0.0000 </r>
       <r>    7.8538    0.0000 </r>
       <r>    9.3297    0.0000 </r>
       <r>    9.7662    0.0000 </r>
       <r>    9.7688    0.0000 </r>
       <r>   10.1590    0.0000 </r>
       <r>   10.3413    0.0000 </r>
       <r>   12.3037    0.0000 </r>
       <r>   12.5271    0.0000 </r>
       <r>   12.5804    0.0000 </r>
       <r>   12.5826    0.0000 </r>
       <r>   12.7602    0.0000 </r>
       <r>   12.7626    0.0000 </r>
       <r>   12.9457    0.0000 </r>
      </set>
      <set comment="kpoint 4">
       <r>  -13.3054    1.0000 </r>
       <r>  -13.3026    1.0000 </r>
       <r>  -13.1508    1.0000 </r>
       <r>  -13.1476    1.0000 </r>
       <r>  -13.1476    1.0000 </r>
       <r>  -13.1450    1.0000 </r>
       <r>  -12.9816    1.0000 </r>
       <r>  -12.9787    1.0000 </r>
       <r>  -10.4583    1.0000 </r>
       <r>  -10.4565    1.0000 </r>
       <r>  -10.3316    1.0000 </r>
       <r>  -10.3294    1.0000 </r>
       <r>  -10.3294    1.0000 </r>
       <r>  -10.3280    1.0000 </r>
       <r>  -10.1955    1.0000 </r>
       <r>  -10.1937    1.0000 </r>
       <r>   -5.6661    1.0000 </r>
       <r>   -5.6637    1.0000 </r>
       <r>   -5.6204    1.0000 </r>
       <r>   -5.6162    1.0000 </r>
       <r>   -5.6154    1.0000 </r>
       <r>   -5.6154    1.0000 </r>
       <r>   -5.5729    1.0000 </r>
       <r>   -5.5710    1.0000 </r>
       <r>   -4.0674    1.0000 </r>
       <r>   -4.0662    1.0000 </r>
       <r>   -4.0382    1.0000 </r>
       <r>   -4.0382    1.0000 </r>
       <r>   -4.0372    1.0000 </r>
       <r>   -4.0343    1.0000 </r>
       <r>   -3.9990    1.0000 </r>
       <r>   -3.9973    1.0000 </r>
       <r>   -2.5677    1.0000 </r>
       <r>   -2.5649    1.0000 </r>
       <r>   -2.5089    1.0000 </r>
       <r>   -2.5082    1.0000 </r>
       <r>   -2.5081    1.0000 </r>
       <r>   -2.5027    1.0000 </r>
       <r>   -2.4475    1.0000 </r>
       <r>   -2.4440    1.0000 </r>
       <r>   -1.9439    1.0000 </r>
       <r>   -1.9416    1.0000 </r>
       <r>   -1.0214    1.0000 </r>
       <r>   -1.0179    1.0000 </r>
       <r>   -1.0178    1.0000 </r>
       <r>   -1.0155    1.0000 </r>
       <r>   -0.1703    1.0000 </r>
       <r>   -0.1636    1.0000 </r>
       <r>   -0.1426    1.0000 </r>
       <r>   -0.1345    1.0000 </r>
       <r>   -0.1345    1.0000 </r>
       <r>   -0.1333    1.0000 </r>
       <r>   -0.1080    1.0000 </r>
       <r>   -0.1041    1.0000 </r>
       <r>    0.1007    1.0000 </r>
       <r>    0.1033    1.0000 </r>
       <r>    1.3759    1.0000 </r>
       <r>    1.3777    1.0000 </r>
       <r>    2.1288    1.0000 </r>
       <r>    2.1302    1.0000 </r>
       <r>    2.1307    1.0000 </r>
       <r>    2.1344    1.0000 </r>
       <r>    2.9888    1.0000 </r>
       <r>    2.9913    1.0000 </r>
       <r>    7.3364    0.0000 </r>
       <r>    7.3390    0.0000 </r>
       <r>    7.6785    0.0000 </r>
       <r>    7.6838    0.0000 </r>
       <r>    7.6844    0.0000 </r>
       <r>    7.6854    0.0000 </r>
       <r>    8.0278    0.0000 </r>
       <r>    8.0307    0.0000 </r>
[...]
       <r>   -4.0179    1.0000 </r>
       <r>   -4.0155    1.0000 </r>
       <r>   -4.0142    1.0000 </r>
       <r>   -4.0142    1.0000 </r>
       <r>   -2.5693    1.0000 </r>
       <r>   -2.5631    1.0000 </r>
       <r>   -2.5631    1.0000 </r>
       <r>   -2.5628    1.0000 </r>
       <r>   -2.4833    1.0000 </r>
       <r>   -2.4780    1.0000 </r>
       <r>   -2.4779    1.0000 </r>
       <r>   -2.4775    1.0000 </r>
       <r>   -1.6902    1.0000 </r>
       <r>   -1.6880    1.0000 </r>
       <r>   -1.6879    1.0000 </r>
       <r>   -1.6849    1.0000 </r>
       <r>   -0.2598    1.0000 </r>
       <r>   -0.2574    1.0000 </r>
       <r>   -0.2573    1.0000 </r>
       <r>   -0.2539    1.0000 </r>
       <r>   -0.1409    1.0000 </r>
       <r>   -0.1393    1.0000 </r>
       <r>   -0.1393    1.0000 </r>
       <r>   -0.1324    1.0000 </r>
       <r>   -0.0989    1.0000 </r>
       <r>   -0.0974    1.0000 </r>
       <r>   -0.0974    1.0000 </r>
       <r>   -0.0874    1.0000 </r>
       <r>    1.5908    1.0000 </r>
       <r>    1.5941    1.0000 </r>
       <r>    1.5943    1.0000 </r>
       <r>    1.5956    1.0000 </r>
       <r>    2.7253    1.0000 </r>
       <r>    2.7293    1.0000 </r>
       <r>    2.7295    1.0000 </r>
       <r>    2.7308    1.0000 </r>
       <r>    7.4435    0.0000 </r>
       <r>    7.4446    0.0000 </r>
       <r>    7.4448    0.0000 </r>
       <r>    7.4491    0.0000 </r>
       <r>    7.9188    0.0000 </r>
       <r>    7.9198    0.0000 </r>
       <r>    7.9201    0.0000 </r>
       <r>    7.9254    0.0000 </r>
       <r>   11.6610    0.0000 </r>
       <r>   11.6723    0.0000 </r>
       <r>   11.6744    0.0000 </r>
       <r>   11.6834    0.0000 </r>
       <r>   12.0264    0.0000 </r>
       <r>   12.0393    0.0000 </r>
       <r>   12.0411    0.0000 </r>
       <r>   12.0523    0.0000 </r>
       <r>   12.3433    0.0000 </r>
       <r>   12.3475    0.0000 </r>
       <r>   12.3479    0.0000 </r>
       <r>   12.3501    0.0000 </r>
      </set>
     </set>
    </set>
   </array>
  </eigenvalues>
  <separator name="orbital magnetization" >
   <v name="MAGDIPOLOUT">      0.00000000      0.00000000      0.00000000</v>
  </separator>
  <dos>
   <i name="efermi">      4.86078608 </i>
   <total>
    <array>
     <dimension dim="1">gridpoints</dimension>
     <dimension dim="2">spin</dimension>
     <field>energy</field>
     <field>total</field>
     <field>integrated</field>
     <set>
      <set comment="spin 1">
       <r>   -16.7857     0.0000     0.0000 </r>
       <r>   -16.6761     0.0000     0.0000 </r>
       <r>   -16.5664     0.0000     0.0000 </r>
       <r>   -16.4567     0.0000     0.0000 </r>
       <r>   -16.3470     0.0000     0.0000 </r>
       <r>   -16.2373     0.0000     0.0000 </r>
       <r>   -16.1277     0.0000     0.0000 </r>
       <r>   -16.0180     0.0000     0.0000 </r>
       <r>   -15.9083     0.0000     0.0000 </r>
       <r>   -15.7986     0.0000     0.0000 </r>
       <r>   -15.6889     0.0000     0.0000 </r>
       <r>   -15.5792     0.0000     0.0000 </r>
       <r>   -15.4696     0.0000     0.0000 </r>
       <r>   -15.3599     0.0000     0.0000 </r>
       <r>   -15.2502     0.0000     0.0000 </r>
       <r>   -15.1405     0.0000     0.0000 </r>
       <r>   -15.0308     0.0000     0.0000 </r>
       <r>   -14.9212     0.0000     0.0000 </r>
       <r>   -14.8115     0.0000     0.0000 </r>
       <r>   -14.7018     0.8646     0.0281 </r>
       <r>   -14.5921     2.3620     0.2278 </r>
       <r>   -14.4824     3.2009     0.5270 </r>
       <r>   -14.3728     4.7454     0.9590 </r>
       <r>   -14.2631     4.8077     1.5157 </r>
       <r>   -14.1534     4.9424     2.0528 </r>
       <r>   -14.0437     4.9627     2.5953 </r>
       <r>   -13.9340     4.9391     3.1401 </r>
       <r>   -13.8244     4.8922     3.6773 </r>
       <r>   -13.7147     5.1276     4.2249 </r>
       <r>   -13.6050     6.2929     4.8182 </r>
       <r>   -13.4953     7.2372     5.5723 </r>
       <r>   -13.3856     7.0457     6.3584 </r>
       <r>   -13.2760     6.1530     7.1375 </r>
       <r>   -13.1663     2.3584     7.5456 </r>
       <r>   -13.0566     1.8399     7.7692 </r>
       <r>   -12.9469     2.0151     7.9741 </r>
       <r>   -12.8372     2.4443     8.2186 </r>
       <r>   -12.7275     3.9344     8.5331 </r>
       <r>   -12.6179     7.1881     9.4102 </r>
       <r>   -12.5082     7.6673    10.2031 </r>
       <r>   -12.3985     6.7421    11.0269 </r>
       <r>   -12.2888     4.0652    11.5575 </r>
       <r>   -12.1791     4.1829    12.0098 </r>
       <r>   -12.0695     4.3350    12.4765 </r>
       <r>   -11.9598     4.5045    12.9612 </r>
       <r>   -11.8501     4.6588    13.4641 </r>
       <r>   -11.7404     4.7929    13.9825 </r>
       <r>   -11.6307     5.1670    14.5271 </r>
       <r>   -11.5211     5.4878    15.1127 </r>
       <r>   -11.4114     6.2565    15.7405 </r>
       <r>   -11.3017     5.9515    16.4154 </r>
       <r>   -11.1920     5.6448    17.0501 </r>
       <r>   -11.0823     5.5746    17.6614 </r>
       <r>   -10.9727     5.7444    18.2822 </r>
       <r>   -10.8630     5.9144    18.9215 </r>
       <r>   -10.7533     5.9713    19.5790 </r>
       <r>   -10.6436     5.7378    20.2166 </r>
       <r>   -10.5339     5.6360    20.8400 </r>
       <r>   -10.4243     5.4589    21.4504 </r>
       <r>   -10.3146     4.2998    21.9943 </r>
       <r>   -10.2049     3.8190    22.4220 </r>
       <r>   -10.0952     4.6680    22.8895 </r>
       <r>    -9.9855     4.9847    23.4233 </r>
       <r>    -9.8758     5.3464    23.9811 </r>
       <r>    -9.7662     7.0708    24.6805 </r>
       <r>    -9.6565    10.2514    25.6099 </r>
       <r>    -9.5468     9.4826    26.7680 </r>
       <r>    -9.4371     7.1072    27.6778 </r>
       <r>    -9.3274     5.1115    28.3392 </r>
       <r>    -9.2178     4.4968    28.8609 </r>
       <r>    -9.1081     3.9940    29.3265 </r>
       <r>    -8.9984     7.6308    29.8469 </r>
       <r>    -8.8887     5.0107    30.4452 </r>
       <r>    -8.7790     2.0317    30.9231 </r>
       <r>    -8.6694     1.8211    31.1344 </r>
       <r>    -8.5597     1.6106    31.3226 </r>
       <r>    -8.4500     1.4000    31.4877 </r>
       <r>    -8.3403     1.2480    31.6302 </r>
       <r>    -8.2306     1.6617    31.7871 </r>
       <r>    -8.1210     2.1638    31.9969 </r>
       <r>    -8.0113     2.6658    32.2618 </r>
       <r>    -7.9016     4.3109    32.6081 </r>
       <r>    -7.7919     9.7246    33.3625 </r>
       <r>    -7.6822     5.8590    34.3416 </r>
       <r>    -7.5726     5.0975    34.9057 </r>
       <r>    -7.4629     6.0161    35.5015 </r>
       <r>    -7.3532     7.2175    36.2273 </r>
       <r>    -7.2435     8.4189    37.0848 </r>
       <r>    -7.1338     9.6203    38.0740 </r>
       <r>    -7.0241     7.5825    39.0238 </r>
       <r>    -6.9145     5.5951    39.7161 </r>
       <r>    -6.8048     5.5661    40.3289 </r>
       <r>    -6.6951     5.5635    40.9393 </r>
       <r>    -6.5854     5.4057    41.5409 </r>
       <r>    -6.4757     5.2213    42.1241 </r>
       <r>    -6.3661     5.0704    42.6877 </r>
       <r>    -6.2564     4.9516    43.2373 </r>
       <r>    -6.1467     4.8328    43.7739 </r>
       <r>    -6.0370     4.7141    44.2974 </r>
       <r>    -5.9273     4.5954    44.8080 </r>
       <r>    -5.8177     4.4767    45.3055 </r>
       <r>    -5.7080     4.3549    45.7898 </r>
       <r>    -5.5983     4.6489    46.2727 </r>
       <r>    -5.4886     5.2755    46.8179 </r>
       <r>    -5.3789     5.8793    47.4297 </r>
       <r>    -5.2693     6.4830    48.1076 </r>
       <r>    -5.1596     7.0868    48.8518 </r>
       <r>    -5.0499     7.6906    49.6622 </r>
       <r>    -4.9402     8.2945    50.5388 </r>
       <r>    -4.8305     8.8983    51.4817 </r>
       <r>    -4.7209     5.6337    52.2946 </r>
       <r>    -4.6112     5.4495    52.8059 </r>
       <r>    -4.5015     7.2122    53.5145 </r>
       <r>    -4.3918     5.7001    54.2226 </r>
       <r>    -4.2821     4.1877    54.7648 </r>
       <r>    -4.1725     2.6751    55.1412 </r>
       <r>    -4.0628     1.1811    55.3517 </r>
       <r>    -3.9531     1.9524    55.4981 </r>
       <r>    -3.8434     3.5189    55.7981 </r>
       <r>    -3.7337     5.0852    56.2700 </r>
       <r>    -3.6240     8.3149    56.9571 </r>
       <r>    -3.5144    12.5543    58.0880 </r>
       <r>    -3.4047    13.0298    59.4921 </r>
       <r>    -3.2950    12.2313    60.9012 </r>
       <r>    -3.1853     6.0553    61.9430 </r>
       <r>    -3.0756     5.1505    62.4775 </r>
       <r>    -2.9660     6.0974    63.0986 </r>
       <r>    -2.8563     7.0113    63.8151 </r>
       <r>    -2.7466    11.5311    64.7842 </r>
       <r>    -2.6369    17.3997    66.3693 </r>
       <r>    -2.5272    17.8902    68.6174 </r>
       <r>    -2.4176     7.1778    69.5587 </r>
       <r>    -2.3079     7.4329    70.3647 </r>
       <r>    -2.1982     7.6234    71.1854 </r>
       <r>    -2.0885     8.1511    72.0484 </r>
       <r>    -1.9788    10.3992    73.0480 </r>
       <r>    -1.8692    14.4866    74.6624 </r>
       <r>    -1.7595    11.4119    76.0692 </r>
       <r>    -1.6498     9.8673    77.2105 </r>
       <r>    -1.5401    32.0615    79.0415 </r>
       <r>    -1.4304    18.2647    81.8259 </r>
       <r>    -1.3208    17.6965    83.9694 </r>
       <r>    -1.2111    14.9595    85.5840 </r>
       <r>    -1.1014    16.8737    87.3332 </r>
       <r>    -0.9917    11.7783    89.0322 </r>
       <r>    -0.8820     7.3712    90.0518 </r>
       <r>    -0.7723     6.6125    90.7729 </r>
       <r>    -0.6627     7.5735    91.5510 </r>
       <r>    -0.5530     8.5130    92.4297 </r>
       <r>    -0.4433     9.8747    93.4361 </r>
       <r>    -0.3336    11.0497    94.5902 </r>
       <r>    -0.2239    11.5711    95.8422 </r>
       <r>    -0.1143    28.1715    97.5013 </r>
       <r>    -0.0046    12.8993    98.9175 </r>
       <r>     0.1051    12.2045   100.3343 </r>
       <r>     0.2148    10.2305   101.5923 </r>
       <r>     0.3245     9.0269   102.6156 </r>
       <r>     0.4341     9.8261   103.6384 </r>
       <r>     0.5438     9.0356   104.6482 </r>
       <r>     0.6535     9.7768   105.6694 </r>
       <r>     0.7632     9.8538   106.7674 </r>
       <r>     0.8729     9.6839   107.8306 </r>
       <r>     0.9825     9.4795   108.8800 </r>
       <r>     1.0922     9.3808   109.9139 </r>
       <r>     1.2019     9.4617   110.9424 </r>
       <r>     1.3116     9.9130   112.0236 </r>
       <r>     1.4213     9.6491   113.1001 </r>
       <r>     1.5309     9.5762   114.1261 </r>
       <r>     1.6406    10.1391   115.2417 </r>
       <r>     1.7503     9.7359   116.3317 </r>
       <r>     1.8600     7.6855   117.3025 </r>
       <r>     1.9697     6.6451   118.0720 </r>
       <r>     2.0794     5.2990   118.7389 </r>
       <r>     2.1890     3.7973   119.2348 </r>
       <r>     2.2987     2.8836   119.5873 </r>
       <r>     2.4084     3.4831   119.9050 </r>
       <r>     2.5181     4.1613   120.3092 </r>
       <r>     2.6278     6.2182   120.8575 </r>
       <r>     2.7374     8.1889   121.6460 </r>
       <r>     2.8471     8.4629   122.5458 </r>
       <r>     2.9568     8.3493   123.4839 </r>
       <r>     3.0665     6.8268   124.3429 </r>
       <r>     3.1762     5.2166   124.9960 </r>
       <r>     3.2858     4.1227   125.5045 </r>
       <r>     3.3955     3.4403   125.9160 </r>
       <r>     3.5052     3.0542   126.2721 </r>
       <r>     3.6149     2.6559   126.5853 </r>
       <r>     3.7246     2.2894   126.8561 </r>
       <r>     3.8342     1.9880   127.0903 </r>
       <r>     3.9439     1.7125   127.2929 </r>
       <r>     4.0536     1.4524   127.4665 </r>
       <r>     4.1633     1.2013   127.6119 </r>
       <r>     4.2730     0.9747   127.7310 </r>
       <r>     4.3826     0.7674   127.8264 </r>
       <r>     4.4923     0.5723   127.8998 </r>
       <r>     4.6020     0.3877   127.9523 </r>
       <r>     4.7117     0.2125   127.9852 </r>
       <r>     4.8214     0.0460   127.9993 </r>
       <r>     4.9311     0.0621   128.0018 </r>
       <r>     5.0407     0.1871   128.0154 </r>
       <r>     5.1504     0.3219   128.0432 </r>
       <r>     5.2601     0.4680   128.0864 </r>
       <r>     5.3698     0.6272   128.1464 </r>
       <r>     5.4795     0.8007   128.2245 </r>
       <r>     5.5891     0.9970   128.3229 </r>
       <r>     5.6988     1.2328   128.4445 </r>
       <r>     5.8085     1.4958   128.5942 </r>
       <r>     5.9182     1.7596   128.7727 </r>
       <r>     6.0279     2.7618   129.0323 </r>
       <r>     6.1375     3.3379   129.3678 </r>
       <r>     6.2472     3.7436   129.7588 </r>
       <r>     6.3569     4.9850   130.2177 </r>
       <r>     6.4666    10.0203   130.9902 </r>
       <r>     6.5763    10.9125   132.3817 </r>
       <r>     6.6859     8.7270   133.4640 </r>
       <r>     6.7956     6.8390   134.3299 </r>
       <r>     6.9053     5.9538   135.0271 </r>
       <r>     7.0150     5.2855   135.6412 </r>
       <r>     7.1247     5.0273   136.2027 </r>
       <r>     7.2343     4.5246   136.7400 </r>
       <r>     7.3440     3.9417   137.2149 </r>
       <r>     7.4537     3.5702   137.6185 </r>
       <r>     7.5634     3.6722   138.0137 </r>
       <r>     7.6731     4.0026   138.4322 </r>
       <r>     7.7827     4.4236   138.8954 </r>
       <r>     7.8924     4.7588   139.3992 </r>
       <r>     8.0021     4.9183   139.9326 </r>
       <r>     8.1118     4.7101   140.4615 </r>
       <r>     8.2215     4.5217   140.9671 </r>
       <r>     8.3312     4.4046   141.4571 </r>
       <r>     8.4408     4.2778   141.9328 </r>
       <r>     8.5505     4.1806   142.3965 </r>
       <r>     8.6602     4.1026   142.8506 </r>
       <r>     8.7699     4.0303   143.2966 </r>
       <r>     8.8796     3.9666   143.7350 </r>
       <r>     8.9892     3.6986   144.1618 </r>
       <r>     9.0989     3.4499   144.5519 </r>
       <r>     9.2086     3.3353   144.9227 </r>
       <r>     9.3183     3.2648   145.2850 </r>
       <r>     9.4280     3.2050   145.6384 </r>
       <r>     9.5376     3.4040   145.9985 </r>
       <r>     9.6473     3.5674   146.3846 </r>
       <r>     9.7570     3.5448   146.7754 </r>
       <r>     9.8667     3.5761   147.1650 </r>
       <r>     9.9764     3.6318   147.5603 </r>
       <r>    10.0860     3.6691   147.9610 </r>
       <r>    10.1957     3.6715   148.3639 </r>
       <r>    10.3054     3.6231   148.7644 </r>
       <r>    10.4151     3.5885   149.1588 </r>
       <r>    10.5248     4.6533   149.6184 </r>
       <r>    10.6344     4.9973   150.1487 </r>
       <r>    10.7441     5.2625   150.7129 </r>
       <r>    10.8538     5.2865   151.2825 </r>
       <r>    10.9635     5.4699   151.8726 </r>
       <r>    11.0732     5.6678   152.4866 </r>
       <r>    11.1829     4.3302   153.0403 </r>
       <r>    11.2925     4.0801   153.6466 </r>
       <r>    11.4022     3.0310   154.0186 </r>
       <r>    11.5119     2.4301   154.3414 </r>
       <r>    11.6216     2.4453   154.6090 </r>
       <r>    11.7313     2.4846   154.8786 </r>
       <r>    11.8409     2.7751   155.1617 </r>
       <r>    11.9506     3.7932   155.5168 </r>
       <r>    12.0603     3.2881   155.9126 </r>
       <r>    12.1700     5.1875   156.3547 </r>
       <r>    12.2797     6.7924   156.9948 </r>
       <r>    12.3893     8.6595   157.8501 </r>
       <r>    12.4990    10.7006   158.8984 </r>
       <r>    12.6087    13.4953   160.2303 </r>
       <r>    12.7184    14.0944   161.7673 </r>
       <r>    12.8281    13.8723   163.3101 </r>
       <r>    12.9377    11.1908   164.7391 </r>
       <r>    13.0474     9.1843   165.8198 </r>
       <r>    13.1571    10.0087   166.8228 </r>
       <r>    13.2668     4.0546   167.8248 </r>
       <r>    13.3765     0.2978   167.9263 </r>
       <r>    13.4861     0.2163   167.9544 </r>
       <r>    13.5958     0.1478   167.9743 </r>
       <r>    13.7055     0.0923   167.9873 </r>
       <r>    13.8152     0.0498   167.9950 </r>
       <r>    13.9249     0.0203   167.9987 </r>
       <r>    14.0346     0.0038   167.9999 </r>
       <r>    14.1442     0.0000   168.0000 </r>
       <r>    14.2539     0.0000   168.0000 </r>
       <r>    14.3636     0.0000   168.0000 </r>
       <r>    14.4733     0.0000   168.0000 </r>
       <r>    14.5830     0.0000   168.0000 </r>
       <r>    14.6926     0.0000   168.0000 </r>
       <r>    14.8023     0.0000   168.0000 </r>
       <r>    14.9120     0.0000   168.0000 </r>
       <r>    15.0217     0.0000   168.0000 </r>
       <r>    15.1314     0.0000   168.0000 </r>
       <r>    15.2410     0.0000   168.0000 </r>
       <r>    15.3507     0.0000   168.0000 </r>
       <r>    15.4604     0.0000   168.0000 </r>
       <r>    15.5701     0.0000   168.0000 </r>
       <r>    15.6798     0.0000   168.0000 </r>
       <r>    15.7894     0.0000   168.0000 </r>
       <r>    15.8991     0.0000   168.0000 </r>
       <r>    16.0088     0.0000   168.0000 </r>
       <r>    16.1185     0.0000   168.0000 </r>
      </set>
     </set>
    </array>
   </total>
  </dos>
 </calculation>
 <structure name="finalpos" >
  <crystal>
   <varray name="basis" >
    <v>       4.93287450      -0.00191929       0.00000000 </v>
    <v>      -2.46809940       4.27103499       0.00000000 </v>
    <v>       0.00000000       0.00000000      13.13086644 </v>
   </varray>
   <i name="volume">    276.58519049 </i>
   <varray name="rec_basis" >
    <v>       0.20276715       0.11717288       0.00000000 </v>
    <v>       0.00009112       0.23418794       0.00000000 </v>
    <v>       0.00000000       0.00000000       0.07615644 </v>
   </varray>
  </crystal>
  <varray name="positions" >
   <v>       0.50038622       0.00032672       0.12571292 </v>
   <v>       0.99967330       0.00032672       0.12500000 </v>
   <v>       0.49967330       0.50032672       0.12500000 </v>
   <v>       0.99967330       0.50032672       0.12500000 </v>
   <v>       0.49967330       0.00032672       0.62500000 </v>
   <v>       0.99967330       0.00032672       0.62500000 </v>
   <v>       0.49967330       0.50032672       0.62500000 </v>
   <v>       0.99967330       0.50032672       0.62500000 </v>
   <v>       0.00032672       0.49967330       0.37500000 </v>
   <v>       0.50032672       0.49967330       0.37500000 </v>
   <v>       0.00032672       0.99967330       0.37500000 </v>
   <v>       0.50032672       0.99967330       0.37500000 </v>
   <v>       0.00032672       0.49967330       0.87500000 </v>
   <v>       0.50032672       0.49967330       0.87500000 </v>
   <v>       0.00032672       0.99967330       0.87500000 </v>
   <v>       0.50032672       0.99967330       0.87500000 </v>
   <v>       0.16629246       0.33370753       0.12500000 </v>
   <v>       0.66629246       0.33370753       0.12500000 </v>
   <v>       0.16629246       0.83370753       0.12500000 </v>
   <v>       0.66629246       0.83370753       0.12500000 </v>
   <v>       0.16629246       0.33370753       0.62500000 </v>
   <v>       0.66629246       0.33370753       0.62500000 </v>
   <v>       0.16629246       0.83370753       0.62500000 </v>
   <v>       0.66629246       0.83370753       0.62500000 </v>
   <v>       0.33370753       0.16629246       0.37500000 </v>
   <v>       0.83370753       0.16629246       0.37500000 </v>
   <v>       0.33370753       0.66629246       0.37500000 </v>
   <v>       0.83370753       0.66629246       0.37500000 </v>
   <v>       0.33370753       0.16629246       0.87500000 </v>
   <v>       0.83370753       0.16629246       0.87500000 </v>
   <v>       0.33370753       0.66629246       0.87500000 </v>
   <v>       0.83370753       0.66629246       0.87500000 </v>
  </varray>
 </structure>
</modeling>
