  32  32   0   0
  0.9341735E+01  0.4932875E-09  0.4932875E-09  0.1419195E-08  0.5000000E-15
  1.000000000000000E-004
  CAR 
 graphite                                
     14.51955829    -17.38716595  301      4.19738964      1.00000000
    -17.387  0.0000E+00  0.0000E+00
    -17.281  0.0000E+00  0.0000E+00
    -17.174  0.0000E+00  0.0000E+00
    -17.068  0.0000E+00  0.0000E+00
    -16.962  0.0000E+00  0.0000E+00
    -16.855  0.0000E+00  0.0000E+00
    -16.749  0.0000E+00  0.0000E+00
    -16.643  0.0000E+00  0.0000E+00
    -16.536  0.0000E+00  0.0000E+00
    -16.430  0.0000E+00  0.0000E+00
    -16.324  0.0000E+00  0.0000E+00
    -16.217  0.0000E+00  0.0000E+00
    -16.111  0.0000E+00  0.0000E+00
    -16.005  0.0000E+00  0.0000E+00
    -15.898  0.0000E+00  0.0000E+00
    -15.792  0.0000E+00  0.0000E+00
    -15.685  0.0000E+00  0.0000E+00
    -15.579  0.0000E+00  0.0000E+00
    -15.473  0.0000E+00  0.0000E+00
    -15.366  0.1349E+00  0.1059E-02
    -15.260  0.2364E+01  0.1160E+00
    -15.154  0.4347E+01  0.4883E+00
    -15.047  0.5028E+01  0.1012E+01
    -14.941  0.4852E+01  0.1510E+01
    -14.835  0.5165E+01  0.2047E+01
    -14.728  0.5047E+01  0.2593E+01
    -14.622  0.4781E+01  0.3114E+01
    -14.516  0.4831E+01  0.3621E+01
    -14.409  0.5044E+01  0.4146E+01
    -14.303  0.5257E+01  0.4694E+01
    -14.196  0.6987E+01  0.5307E+01
    -14.090  0.8183E+01  0.6121E+01
    -13.984  0.6423E+01  0.6982E+01
    -13.877  0.2671E+01  0.7451E+01
    -13.771  0.1892E+01  0.7677E+01
    -13.665  0.2158E+01  0.7888E+01
    -13.558  0.2509E+01  0.8137E+01
    -13.452  0.2861E+01  0.8422E+01
    -13.346  0.5605E+01  0.8794E+01
    -13.239  0.1048E+02  0.9876E+01
    -13.133  0.7536E+01  0.1087E+02
    -13.027  0.3973E+01  0.1136E+02
    -12.920  0.4070E+01  0.1179E+02
    -12.814  0.4166E+01  0.1223E+02
    -12.708  0.4281E+01  0.1268E+02
    -12.601  0.4409E+01  0.1314E+02
    -12.495  0.4531E+01  0.1362E+02
    -12.388  0.4653E+01  0.1410E+02
    -12.282  0.5253E+01  0.1462E+02
    -12.176  0.6227E+01  0.1522E+02
    -12.069  0.6269E+01  0.1591E+02
    -11.963  0.5702E+01  0.1655E+02
    -11.857  0.5363E+01  0.1713E+02
    -11.750  0.5515E+01  0.1771E+02
    -11.644  0.5677E+01  0.1831E+02
    -11.538  0.5838E+01  0.1892E+02
    -11.431  0.6000E+01  0.1955E+02
    -11.325  0.5674E+01  0.2018E+02
    -11.219  0.5280E+01  0.2076E+02
    -11.112  0.5329E+01  0.2132E+02
    -11.006  0.4731E+01  0.2188E+02
    -10.899  0.4263E+01  0.2234E+02
    -10.793  0.4980E+01  0.2283E+02
    -10.687  0.5156E+01  0.2337E+02
    -10.580  0.5330E+01  0.2393E+02
    -10.474  0.6869E+01  0.2453E+02
    -10.368  0.1189E+02  0.2550E+02
    -10.261  0.9631E+01  0.2664E+02
    -10.155  0.7370E+01  0.2755E+02
    -10.049  0.5179E+01  0.2821E+02
     -9.942  0.4469E+01  0.2872E+02
     -9.836  0.4027E+01  0.2917E+02
     -9.730  0.3585E+01  0.2957E+02
     -9.623  0.7764E+01  0.3015E+02
     -9.517  0.2104E+01  0.3081E+02
     -9.410  0.1905E+01  0.3103E+02
     -9.304  0.1707E+01  0.3122E+02
     -9.198  0.1508E+01  0.3139E+02
     -9.091  0.1310E+01  0.3154E+02
     -8.985  0.1304E+01  0.3167E+02
     -8.879  0.1797E+01  0.3184E+02
     -8.772  0.2292E+01  0.3205E+02
     -8.666  0.2787E+01  0.3232E+02
     -8.560  0.5020E+01  0.3269E+02
     -8.453  0.9452E+01  0.3346E+02
     -8.347  0.5277E+01  0.3446E+02
     -8.241  0.5048E+01  0.3498E+02
     -8.134  0.6167E+01  0.3558E+02
     -8.028  0.7286E+01  0.3630E+02
     -7.922  0.8405E+01  0.3713E+02
     -7.815  0.9524E+01  0.3808E+02
     -7.709  0.7379E+01  0.3905E+02
     -7.602  0.5559E+01  0.3968E+02
     -7.496  0.5592E+01  0.4027E+02
     -7.390  0.5597E+01  0.4087E+02
     -7.283  0.5450E+01  0.4145E+02
     -7.177  0.5289E+01  0.4203E+02
     -7.071  0.5147E+01  0.4258E+02
     -6.964  0.5029E+01  0.4312E+02
     -6.858  0.4910E+01  0.4365E+02
     -6.752  0.4792E+01  0.4417E+02
     -6.645  0.4674E+01  0.4467E+02
     -6.539  0.4555E+01  0.4516E+02
     -6.433  0.4437E+01  0.4564E+02
     -6.326  0.4421E+01  0.4611E+02
     -6.220  0.5028E+01  0.4661E+02
     -6.113  0.5601E+01  0.4717E+02
     -6.007  0.6173E+01  0.4780E+02
     -5.901  0.6745E+01  0.4849E+02
     -5.794  0.7318E+01  0.4924E+02
     -5.688  0.7890E+01  0.5004E+02
     -5.582  0.8463E+01  0.5091E+02
     -5.475  0.9035E+01  0.5184E+02
     -5.369  0.3840E+01  0.5247E+02
     -5.263  0.6359E+01  0.5298E+02
     -5.156  0.6660E+01  0.5373E+02
     -5.050  0.5255E+01  0.5436E+02
     -4.944  0.3850E+01  0.5485E+02
     -4.837  0.2444E+01  0.5518E+02
     -4.731  0.1088E+01  0.5537E+02
     -4.624  0.2215E+01  0.5553E+02
     -4.518  0.3629E+01  0.5584E+02
     -4.412  0.5042E+01  0.5630E+02
     -4.305  0.7432E+01  0.5692E+02
     -4.199  0.1142E+02  0.5802E+02
     -4.093  0.1055E+02  0.5918E+02
     -3.986  0.1083E+02  0.6029E+02
     -3.880  0.1086E+02  0.6147E+02
     -3.774  0.5401E+01  0.6223E+02
     -3.667  0.5633E+01  0.6280E+02
     -3.561  0.6465E+01  0.6344E+02
     -3.455  0.1014E+02  0.6428E+02
     -3.348  0.1532E+02  0.6563E+02
     -3.242  0.2859E+02  0.6769E+02
     -3.135  0.6538E+01  0.6900E+02
     -3.029  0.6673E+01  0.6970E+02
     -2.923  0.6997E+01  0.7043E+02
     -2.816  0.7560E+01  0.7120E+02
     -2.710  0.9282E+01  0.7208E+02
     -2.604  0.1689E+02  0.7367E+02
     -2.497  0.1448E+02  0.7533E+02
     -2.391  0.1185E+02  0.7678E+02
     -2.285  0.1556E+02  0.7804E+02
     -2.178  0.1582E+02  0.8126E+02
     -2.072  0.2048E+02  0.8306E+02
     -1.966  0.1247E+02  0.8494E+02
     -1.859  0.1390E+02  0.8634E+02
     -1.753  0.1498E+02  0.8790E+02
     -1.647  0.9266E+01  0.8924E+02
     -1.540  0.6462E+01  0.9006E+02
     -1.434  0.8233E+01  0.9083E+02
     -1.327  0.8371E+01  0.9173E+02
     -1.221  0.9240E+01  0.9267E+02
     -1.115  0.9842E+01  0.9369E+02
     -1.008  0.9535E+01  0.9472E+02
     -0.902  0.1099E+02  0.9580E+02
     -0.796  0.1189E+02  0.9761E+02
     -0.689  0.1118E+02  0.9885E+02
     -0.583  0.1154E+02  0.1001E+03
     -0.477  0.1177E+02  0.1013E+03
     -0.370  0.1036E+02  0.1025E+03
     -0.264  0.1008E+02  0.1036E+03
     -0.158  0.9824E+01  0.1046E+03
     -0.051  0.9590E+01  0.1057E+03
      0.055  0.9501E+01  0.1067E+03
      0.162  0.9546E+01  0.1077E+03
      0.268  0.9156E+01  0.1087E+03
      0.374  0.8993E+01  0.1096E+03
      0.481  0.9019E+01  0.1106E+03
      0.587  0.9785E+01  0.1116E+03
      0.693  0.9842E+01  0.1126E+03
      0.800  0.1020E+02  0.1137E+03
      0.906  0.1065E+02  0.1148E+03
      1.012  0.9624E+01  0.1159E+03
      1.119  0.8182E+01  0.1169E+03
      1.225  0.6675E+01  0.1177E+03
      1.331  0.5620E+01  0.1183E+03
      1.438  0.5027E+01  0.1189E+03
      1.544  0.4021E+01  0.1194E+03
      1.651  0.2957E+01  0.1197E+03
      1.757  0.3434E+01  0.1201E+03
      1.863  0.5281E+01  0.1205E+03
      1.970  0.7837E+01  0.1212E+03
      2.076  0.1516E+02  0.1223E+03
      2.182  0.7551E+01  0.1233E+03
      2.289  0.6442E+01  0.1240E+03
      2.395  0.5714E+01  0.1246E+03
      2.501  0.4722E+01  0.1252E+03
      2.608  0.3778E+01  0.1257E+03
      2.714  0.3295E+01  0.1260E+03
      2.820  0.2953E+01  0.1264E+03
      2.927  0.2597E+01  0.1267E+03
      3.033  0.2259E+01  0.1269E+03
      3.139  0.1935E+01  0.1271E+03
      3.246  0.1566E+01  0.1273E+03
      3.352  0.1366E+01  0.1275E+03
      3.459  0.1165E+01  0.1276E+03
      3.565  0.9637E+00  0.1277E+03
      3.671  0.7626E+00  0.1278E+03
      3.778  0.5647E+00  0.1279E+03
      3.884  0.3970E+00  0.1279E+03
      3.990  0.2481E+00  0.1280E+03
      4.097  0.1136E+00  0.1280E+03
      4.203  0.8104E-03  0.1280E+03
      4.309  0.1059E+00  0.1280E+03
      4.416  0.2274E+00  0.1280E+03
      4.522  0.3654E+00  0.1281E+03
      4.628  0.5239E+00  0.1281E+03
      4.735  0.7205E+00  0.1282E+03
      4.841  0.9366E+00  0.1283E+03
      4.948  0.1153E+01  0.1284E+03
      5.054  0.1369E+01  0.1285E+03
      5.160  0.1586E+01  0.1287E+03
      5.267  0.1802E+01  0.1288E+03
      5.373  0.2917E+01  0.1291E+03
      5.479  0.3823E+01  0.1294E+03
      5.586  0.4000E+01  0.1299E+03
      5.692  0.5339E+01  0.1303E+03
      5.798  0.7945E+01  0.1311E+03
      5.905  0.1239E+02  0.1321E+03
      6.011  0.9299E+01  0.1333E+03
      6.117  0.7281E+01  0.1341E+03
      6.224  0.6398E+01  0.1349E+03
      6.330  0.5993E+01  0.1355E+03
      6.437  0.5503E+01  0.1361E+03
      6.543  0.4678E+01  0.1367E+03
      6.649  0.4518E+01  0.1372E+03
      6.756  0.4050E+01  0.1376E+03
      6.862  0.3792E+01  0.1380E+03
      6.968  0.3976E+01  0.1384E+03
      7.075  0.4447E+01  0.1389E+03
      7.181  0.4778E+01  0.1394E+03
      7.287  0.4751E+01  0.1399E+03
      7.394  0.4660E+01  0.1404E+03
      7.500  0.4489E+01  0.1409E+03
      7.606  0.4317E+01  0.1413E+03
      7.713  0.4182E+01  0.1418E+03
      7.819  0.4095E+01  0.1422E+03
      7.926  0.4041E+01  0.1427E+03
      8.032  0.4005E+01  0.1431E+03
      8.138  0.4011E+01  0.1435E+03
      8.245  0.4275E+01  0.1440E+03
      8.351  0.4566E+01  0.1444E+03
      8.457  0.4293E+01  0.1449E+03
      8.564  0.4133E+01  0.1454E+03
      8.670  0.4061E+01  0.1458E+03
      8.776  0.3987E+01  0.1462E+03
      8.883  0.3866E+01  0.1466E+03
      8.989  0.3909E+01  0.1471E+03
      9.095  0.3964E+01  0.1475E+03
      9.202  0.4014E+01  0.1479E+03
      9.308  0.4065E+01  0.1483E+03
      9.414  0.4100E+01  0.1488E+03
      9.521  0.4133E+01  0.1492E+03
      9.627  0.4559E+01  0.1497E+03
      9.734  0.4753E+01  0.1502E+03
      9.840  0.4763E+01  0.1507E+03
      9.946  0.6468E+01  0.1513E+03
     10.053  0.5262E+01  0.1519E+03
     10.159  0.6061E+01  0.1525E+03
     10.265  0.5823E+01  0.1531E+03
     10.372  0.5673E+01  0.1537E+03
     10.478  0.5239E+01  0.1544E+03
     10.584  0.3480E+01  0.1548E+03
     10.691  0.3859E+01  0.1552E+03
     10.797  0.3257E+01  0.1556E+03
     10.903  0.2947E+01  0.1560E+03
     11.010  0.3040E+01  0.1563E+03
     11.116  0.3216E+01  0.1566E+03
     11.223  0.3335E+01  0.1570E+03
     11.329  0.3950E+01  0.1573E+03
     11.435  0.4615E+01  0.1578E+03
     11.542  0.8512E+01  0.1584E+03
     11.648  0.8514E+01  0.1593E+03
     11.754  0.9673E+01  0.1603E+03
     11.861  0.1167E+02  0.1614E+03
     11.967  0.1274E+02  0.1627E+03
     12.073  0.1274E+02  0.1640E+03
     12.180  0.1306E+02  0.1654E+03
     12.286  0.1162E+02  0.1668E+03
     12.392  0.5765E+01  0.1677E+03
     12.499  0.1113E+00  0.1680E+03
     12.605  0.0000E+00  0.1680E+03
     12.712  0.0000E+00  0.1680E+03
     12.818  0.0000E+00  0.1680E+03
     12.924  0.0000E+00  0.1680E+03
     13.031  0.0000E+00  0.1680E+03
     13.137  0.0000E+00  0.1680E+03
     13.243  0.0000E+00  0.1680E+03
     13.350  0.0000E+00  0.1680E+03
     13.456  0.0000E+00  0.1680E+03
     13.562  0.0000E+00  0.1680E+03
     13.669  0.0000E+00  0.1680E+03
     13.775  0.0000E+00  0.1680E+03
     13.881  0.0000E+00  0.1680E+03
     13.988  0.0000E+00  0.1680E+03
     14.094  0.0000E+00  0.1680E+03
     14.200  0.0000E+00  0.1680E+03
     14.307  0.0000E+00  0.1680E+03
     14.413  0.0000E+00  0.1680E+03
     14.520  0.0000E+00  0.1680E+03
