  32  32   0   0
  0.5760957E+01  0.4934311E-09  0.4934311E-09  0.8743465E-09  0.5000000E-15
  1.000000000000000E-004
  CAR 
 graphite                                
     21.15944902    -14.07622221  301      9.72221327      1.00000000
    -14.076  0.0000E+00  0.0000E+00
    -13.959  0.0000E+00  0.0000E+00
    -13.841  0.0000E+00  0.0000E+00
    -13.724  0.0000E+00  0.0000E+00
    -13.606  0.0000E+00  0.0000E+00
    -13.489  0.0000E+00  0.0000E+00
    -13.372  0.0000E+00  0.0000E+00
    -13.254  0.0000E+00  0.0000E+00
    -13.137  0.0000E+00  0.0000E+00
    -13.019  0.0000E+00  0.0000E+00
    -12.902  0.0000E+00  0.0000E+00
    -12.784  0.0000E+00  0.0000E+00
    -12.667  0.0000E+00  0.0000E+00
    -12.549  0.0000E+00  0.0000E+00
    -12.432  0.0000E+00  0.0000E+00
    -12.314  0.0000E+00  0.0000E+00
    -12.197  0.0000E+00  0.0000E+00
    -12.080  0.0000E+00  0.0000E+00
    -11.962  0.5842E+00  0.2892E-01
    -11.845  0.8489E+00  0.1115E+00
    -11.727  0.1080E+01  0.2268E+00
    -11.610  0.1269E+01  0.3650E+00
    -11.492  0.1443E+01  0.5253E+00
    -11.375  0.1575E+01  0.7020E+00
    -11.257  0.1738E+01  0.8963E+00
    -11.140  0.1876E+01  0.1109E+01
    -11.022  0.1976E+01  0.1335E+01
    -10.905  0.2093E+01  0.1574E+01
    -10.788  0.2314E+01  0.1830E+01
    -10.670  0.2448E+01  0.2112E+01
    -10.553  0.2797E+01  0.2413E+01
    -10.435  0.2590E+01  0.2736E+01
    -10.318  0.2846E+01  0.3049E+01
    -10.200  0.2873E+01  0.3395E+01
    -10.083  0.2269E+01  0.3702E+01
     -9.965  0.2596E+01  0.3971E+01
     -9.848  0.2907E+01  0.4344E+01
     -9.730  0.3050E+01  0.4683E+01
     -9.613  0.3359E+01  0.5070E+01
     -9.496  0.3433E+01  0.5462E+01
     -9.378  0.3464E+01  0.5874E+01
     -9.261  0.3294E+01  0.6271E+01
     -9.143  0.4329E+01  0.6791E+01
     -9.026  0.3439E+01  0.7237E+01
     -8.908  0.3350E+01  0.7630E+01
     -8.791  0.3627E+01  0.8039E+01
     -8.673  0.3524E+01  0.8467E+01
     -8.556  0.4221E+01  0.8912E+01
     -8.439  0.4794E+01  0.9446E+01
     -8.321  0.5103E+01  0.1002E+02
     -8.204  0.5087E+01  0.1062E+02
     -8.086  0.4871E+01  0.1121E+02
     -7.969  0.4113E+01  0.1173E+02
     -7.851  0.5086E+01  0.1229E+02
     -7.734  0.4973E+01  0.1289E+02
     -7.616  0.4391E+01  0.1343E+02
     -7.499  0.5279E+01  0.1400E+02
     -7.381  0.5732E+01  0.1466E+02
     -7.264  0.5228E+01  0.1531E+02
     -7.147  0.6173E+01  0.1601E+02
     -7.029  0.4601E+01  0.1664E+02
     -6.912  0.4502E+01  0.1717E+02
     -6.794  0.4367E+01  0.1769E+02
     -6.677  0.4661E+01  0.1821E+02
     -6.559  0.6279E+01  0.1883E+02
     -6.442  0.6664E+01  0.1959E+02
     -6.324  0.6698E+01  0.2038E+02
     -6.207  0.6635E+01  0.2116E+02
     -6.089  0.5439E+01  0.2186E+02
     -5.972  0.4229E+01  0.2243E+02
     -5.855  0.3002E+01  0.2285E+02
     -5.737  0.3528E+01  0.2321E+02
     -5.620  0.4643E+01  0.2368E+02
     -5.502  0.6639E+01  0.2437E+02
     -5.385  0.6777E+01  0.2521E+02
     -5.267  0.5478E+01  0.2592E+02
     -5.150  0.5806E+01  0.2656E+02
     -5.032  0.6507E+01  0.2728E+02
     -4.915  0.3387E+01  0.2787E+02
     -4.797  0.3336E+01  0.2824E+02
     -4.680  0.7302E+01  0.2889E+02
     -4.563  0.5914E+01  0.2971E+02
     -4.445  0.3613E+01  0.3022E+02
     -4.328  0.2805E+01  0.3060E+02
     -4.210  0.2435E+01  0.3090E+02
     -4.093  0.3271E+01  0.3125E+02
     -3.975  0.4050E+01  0.3167E+02
     -3.858  0.5164E+01  0.3221E+02
     -3.740  0.5253E+01  0.3287E+02
     -3.623  0.4349E+01  0.3340E+02
     -3.506  0.3875E+01  0.3390E+02
     -3.388  0.4510E+01  0.3438E+02
     -3.271  0.6894E+01  0.3502E+02
     -3.153  0.8032E+01  0.3591E+02
     -3.036  0.7208E+01  0.3685E+02
     -2.918  0.5252E+01  0.3752E+02
     -2.801  0.5206E+01  0.3814E+02
     -2.683  0.5635E+01  0.3876E+02
     -2.566  0.6009E+01  0.3945E+02
     -2.448  0.5715E+01  0.4014E+02
     -2.331  0.5649E+01  0.4082E+02
     -2.214  0.5309E+01  0.4146E+02
     -2.096  0.5840E+01  0.4210E+02
     -1.979  0.6650E+01  0.4284E+02
     -1.861  0.4715E+01  0.4359E+02
     -1.744  0.4092E+01  0.4409E+02
     -1.626  0.4483E+01  0.4458E+02
     -1.509  0.4620E+01  0.4509E+02
     -1.391  0.5319E+01  0.4568E+02
     -1.274  0.6079E+01  0.4634E+02
     -1.156  0.7796E+01  0.4715E+02
     -1.039  0.7341E+01  0.4805E+02
     -0.922  0.6264E+01  0.4882E+02
     -0.804  0.5903E+01  0.4953E+02
     -0.687  0.6144E+01  0.5022E+02
     -0.569  0.6705E+01  0.5109E+02
     -0.452  0.7433E+01  0.5194E+02
     -0.334  0.6642E+01  0.5274E+02
     -0.217  0.6289E+01  0.5350E+02
     -0.099  0.6317E+01  0.5424E+02
      0.018  0.7518E+01  0.5503E+02
      0.135  0.8329E+01  0.5600E+02
      0.253  0.6252E+01  0.5691E+02
      0.370  0.6769E+01  0.5767E+02
      0.488  0.7539E+01  0.5861E+02
      0.605  0.6026E+01  0.5934E+02
      0.723  0.1052E+02  0.6026E+02
      0.840  0.8738E+01  0.6138E+02
      0.958  0.7689E+01  0.6235E+02
      1.075  0.7170E+01  0.6317E+02
      1.193  0.8117E+01  0.6409E+02
      1.310  0.8395E+01  0.6508E+02
      1.427  0.8925E+01  0.6607E+02
      1.545  0.9658E+01  0.6719E+02
      1.662  0.8650E+01  0.6818E+02
      1.780  0.9256E+01  0.6924E+02
      1.897  0.1004E+02  0.7039E+02
      2.015  0.1144E+02  0.7167E+02
      2.132  0.1087E+02  0.7310E+02
      2.250  0.9773E+01  0.7426E+02
      2.367  0.9640E+01  0.7539E+02
      2.485  0.1150E+02  0.7670E+02
      2.602  0.9769E+01  0.7794E+02
      2.719  0.1123E+02  0.7905E+02
      2.837  0.1214E+02  0.8031E+02
      2.954  0.1404E+02  0.8186E+02
      3.072  0.1284E+02  0.8351E+02
      3.189  0.1156E+02  0.8496E+02
      3.307  0.9933E+01  0.8619E+02
      3.424  0.9935E+01  0.8732E+02
      3.542  0.1326E+02  0.8865E+02
      3.659  0.1113E+02  0.9005E+02
      3.777  0.1203E+02  0.9148E+02
      3.894  0.1086E+02  0.9283E+02
      4.011  0.1004E+02  0.9405E+02
      4.129  0.8457E+01  0.9514E+02
      4.246  0.8626E+01  0.9613E+02
      4.364  0.8658E+01  0.9716E+02
      4.481  0.1122E+02  0.9833E+02
      4.599  0.9512E+01  0.9954E+02
      4.716  0.7939E+01  0.1006E+03
      4.834  0.7475E+01  0.1015E+03
      4.951  0.7094E+01  0.1023E+03
      5.068  0.6889E+01  0.1032E+03
      5.186  0.7263E+01  0.1040E+03
      5.303  0.7698E+01  0.1049E+03
      5.421  0.7537E+01  0.1058E+03
      5.538  0.7245E+01  0.1066E+03
      5.656  0.7254E+01  0.1075E+03
      5.773  0.7520E+01  0.1083E+03
      5.891  0.6826E+01  0.1092E+03
      6.008  0.5572E+01  0.1099E+03
      6.126  0.4818E+01  0.1105E+03
      6.243  0.4630E+01  0.1111E+03
      6.360  0.4442E+01  0.1116E+03
      6.478  0.3999E+01  0.1121E+03
      6.595  0.3571E+01  0.1125E+03
      6.713  0.3805E+01  0.1130E+03
      6.830  0.3658E+01  0.1134E+03
      6.948  0.3592E+01  0.1139E+03
      7.065  0.3858E+01  0.1143E+03
      7.183  0.4111E+01  0.1148E+03
      7.300  0.3996E+01  0.1153E+03
      7.418  0.3727E+01  0.1157E+03
      7.535  0.3179E+01  0.1161E+03
      7.652  0.3665E+01  0.1165E+03
      7.770  0.4553E+01  0.1170E+03
      7.887  0.5205E+01  0.1176E+03
      8.005  0.6358E+01  0.1183E+03
      8.122  0.7335E+01  0.1191E+03
      8.240  0.6552E+01  0.1199E+03
      8.357  0.7589E+01  0.1207E+03
      8.475  0.5746E+01  0.1214E+03
      8.592  0.5154E+01  0.1221E+03
      8.710  0.5137E+01  0.1227E+03
      8.827  0.6560E+01  0.1233E+03
      8.944  0.5906E+01  0.1240E+03
      9.062  0.5499E+01  0.1247E+03
      9.179  0.5132E+01  0.1253E+03
      9.297  0.5039E+01  0.1259E+03
      9.414  0.6581E+01  0.1265E+03
      9.532  0.5593E+01  0.1273E+03
      9.649  0.3760E+01  0.1278E+03
      9.767  0.1737E+01  0.1281E+03
      9.884  0.1210E+01  0.1282E+03
     10.001  0.1218E+01  0.1284E+03
     10.119  0.1256E+01  0.1285E+03
     10.236  0.1446E+01  0.1287E+03
     10.354  0.1712E+01  0.1289E+03
     10.471  0.2015E+01  0.1291E+03
     10.589  0.2251E+01  0.1294E+03
     10.706  0.2154E+01  0.1296E+03
     10.824  0.1990E+01  0.1299E+03
     10.941  0.2035E+01  0.1301E+03
     11.059  0.2128E+01  0.1303E+03
     11.176  0.2342E+01  0.1306E+03
     11.293  0.5972E+01  0.1311E+03
     11.411  0.6393E+01  0.1318E+03
     11.528  0.5814E+01  0.1325E+03
     11.646  0.5728E+01  0.1332E+03
     11.763  0.6351E+01  0.1339E+03
     11.881  0.4473E+01  0.1346E+03
     11.998  0.4388E+01  0.1351E+03
     12.116  0.5473E+01  0.1357E+03
     12.233  0.6175E+01  0.1364E+03
     12.351  0.5054E+01  0.1370E+03
     12.468  0.4282E+01  0.1376E+03
     12.585  0.4506E+01  0.1381E+03
     12.703  0.3803E+01  0.1386E+03
     12.820  0.4285E+01  0.1390E+03
     12.938  0.4892E+01  0.1396E+03
     13.055  0.5795E+01  0.1402E+03
     13.173  0.5198E+01  0.1408E+03
     13.290  0.4976E+01  0.1414E+03
     13.408  0.4282E+01  0.1420E+03
     13.525  0.3399E+01  0.1424E+03
     13.643  0.3303E+01  0.1428E+03
     13.760  0.3265E+01  0.1432E+03
     13.877  0.3391E+01  0.1436E+03
     13.995  0.3541E+01  0.1440E+03
     14.112  0.4079E+01  0.1444E+03
     14.230  0.4654E+01  0.1450E+03
     14.347  0.4612E+01  0.1455E+03
     14.465  0.4868E+01  0.1461E+03
     14.582  0.5449E+01  0.1467E+03
     14.700  0.6098E+01  0.1473E+03
     14.817  0.6408E+01  0.1481E+03
     14.934  0.5461E+01  0.1488E+03
     15.052  0.4987E+01  0.1494E+03
     15.169  0.5189E+01  0.1500E+03
     15.287  0.5905E+01  0.1506E+03
     15.404  0.5835E+01  0.1513E+03
     15.522  0.4930E+01  0.1519E+03
     15.639  0.4682E+01  0.1525E+03
     15.757  0.5561E+01  0.1531E+03
     15.874  0.6067E+01  0.1538E+03
     15.992  0.6858E+01  0.1545E+03
     16.109  0.7494E+01  0.1554E+03
     16.226  0.6297E+01  0.1563E+03
     16.344  0.5891E+01  0.1570E+03
     16.461  0.4980E+01  0.1576E+03
     16.579  0.6321E+01  0.1583E+03
     16.696  0.8176E+01  0.1592E+03
     16.814  0.6641E+01  0.1601E+03
     16.931  0.5788E+01  0.1607E+03
     17.049  0.6297E+01  0.1615E+03
     17.166  0.1001E+02  0.1624E+03
     17.284  0.4626E+01  0.1633E+03
     17.401  0.4287E+01  0.1638E+03
     17.518  0.4069E+01  0.1643E+03
     17.636  0.3854E+01  0.1647E+03
     17.753  0.4018E+01  0.1652E+03
     17.871  0.4424E+01  0.1657E+03
     17.988  0.5365E+01  0.1663E+03
     18.106  0.4327E+01  0.1668E+03
     18.223  0.3140E+01  0.1673E+03
     18.341  0.2104E+01  0.1676E+03
     18.458  0.1168E+01  0.1678E+03
     18.575  0.6022E+00  0.1679E+03
     18.693  0.3731E+00  0.1679E+03
     18.810  0.2424E+00  0.1680E+03
     18.928  0.1241E+00  0.1680E+03
     19.045  0.2752E-01  0.1680E+03
     19.163  0.0000E+00  0.1680E+03
     19.280  0.0000E+00  0.1680E+03
     19.398  0.0000E+00  0.1680E+03
     19.515  0.0000E+00  0.1680E+03
     19.633  0.0000E+00  0.1680E+03
     19.750  0.0000E+00  0.1680E+03
     19.867  0.0000E+00  0.1680E+03
     19.985  0.0000E+00  0.1680E+03
     20.102  0.0000E+00  0.1680E+03
     20.220  0.0000E+00  0.1680E+03
     20.337  0.0000E+00  0.1680E+03
     20.455  0.0000E+00  0.1680E+03
     20.572  0.0000E+00  0.1680E+03
     20.690  0.0000E+00  0.1680E+03
     20.807  0.0000E+00  0.1680E+03
     20.925  0.0000E+00  0.1680E+03
     21.042  0.0000E+00  0.1680E+03
     21.159  0.0000E+00  0.1680E+03
