  32  32   0   0
  0.5317807E+01  0.4934311E-09  0.4934311E-09  0.8070891E-09  0.5000000E-15
  1.000000000000000E-004
  CAR 
 graphite                                
     22.28743398    -13.76488094  301     11.68487460      1.00000000
    -13.765  0.0000E+00  0.0000E+00
    -13.645  0.0000E+00  0.0000E+00
    -13.525  0.0000E+00  0.0000E+00
    -13.404  0.0000E+00  0.0000E+00
    -13.284  0.0000E+00  0.0000E+00
    -13.164  0.0000E+00  0.0000E+00
    -13.044  0.0000E+00  0.0000E+00
    -12.924  0.0000E+00  0.0000E+00
    -12.803  0.0000E+00  0.0000E+00
    -12.683  0.0000E+00  0.0000E+00
    -12.563  0.0000E+00  0.0000E+00
    -12.443  0.0000E+00  0.0000E+00
    -12.323  0.0000E+00  0.0000E+00
    -12.203  0.0000E+00  0.0000E+00
    -12.082  0.0000E+00  0.0000E+00
    -11.962  0.0000E+00  0.0000E+00
    -11.842  0.0000E+00  0.0000E+00
    -11.722  0.9872E-01  0.1414E-02
    -11.602  0.6272E+00  0.5085E-01
    -11.482  0.8549E+00  0.1382E+00
    -11.361  0.1020E+01  0.2507E+00
    -11.241  0.1206E+01  0.3859E+00
    -11.121  0.1329E+01  0.5394E+00
    -11.001  0.1441E+01  0.7053E+00
    -10.881  0.1584E+01  0.8870E+00
    -10.761  0.1717E+01  0.1086E+01
    -10.640  0.1801E+01  0.1297E+01
    -10.520  0.1897E+01  0.1519E+01
    -10.400  0.2126E+01  0.1763E+01
    -10.280  0.2206E+01  0.2021E+01
    -10.160  0.2422E+01  0.2308E+01
    -10.039  0.2313E+01  0.2583E+01
     -9.919  0.2642E+01  0.2881E+01
     -9.799  0.2831E+01  0.3216E+01
     -9.679  0.2139E+01  0.3515E+01
     -9.559  0.2697E+01  0.3809E+01
     -9.439  0.1944E+01  0.4074E+01
     -9.318  0.2220E+01  0.4320E+01
     -9.198  0.3249E+01  0.4653E+01
     -9.078  0.3023E+01  0.5021E+01
     -8.958  0.3105E+01  0.5388E+01
     -8.838  0.3214E+01  0.5769E+01
     -8.718  0.3487E+01  0.6174E+01
     -8.597  0.4122E+01  0.6622E+01
     -8.477  0.3465E+01  0.7076E+01
     -8.357  0.2890E+01  0.7464E+01
     -8.237  0.2625E+01  0.7782E+01
     -8.117  0.2743E+01  0.8103E+01
     -7.997  0.3458E+01  0.8471E+01
     -7.876  0.4106E+01  0.8926E+01
     -7.756  0.3970E+01  0.9403E+01
     -7.636  0.3807E+01  0.9872E+01
     -7.516  0.3754E+01  0.1032E+02
     -7.396  0.3809E+01  0.1078E+02
     -7.275  0.3722E+01  0.1123E+02
     -7.155  0.4010E+01  0.1169E+02
     -7.035  0.4999E+01  0.1223E+02
     -6.915  0.5565E+01  0.1288E+02
     -6.795  0.5286E+01  0.1354E+02
     -6.675  0.4716E+01  0.1415E+02
     -6.554  0.4173E+01  0.1468E+02
     -6.434  0.4175E+01  0.1517E+02
     -6.314  0.4154E+01  0.1568E+02
     -6.194  0.4775E+01  0.1621E+02
     -6.074  0.4597E+01  0.1676E+02
     -5.954  0.5511E+01  0.1736E+02
     -5.833  0.6323E+01  0.1809E+02
     -5.713  0.5618E+01  0.1881E+02
     -5.593  0.5361E+01  0.1947E+02
     -5.473  0.4950E+01  0.2009E+02
     -5.353  0.4885E+01  0.2069E+02
     -5.232  0.5040E+01  0.2128E+02
     -5.112  0.4268E+01  0.2185E+02
     -4.992  0.3686E+01  0.2235E+02
     -4.872  0.3805E+01  0.2281E+02
     -4.752  0.4595E+01  0.2330E+02
     -4.632  0.5915E+01  0.2393E+02
     -4.511  0.6228E+01  0.2467E+02
     -4.391  0.5712E+01  0.2540E+02
     -4.271  0.5488E+01  0.2605E+02
     -4.151  0.5514E+01  0.2673E+02
     -4.031  0.5352E+01  0.2738E+02
     -3.911  0.4660E+01  0.2800E+02
     -3.790  0.4213E+01  0.2852E+02
     -3.670  0.3922E+01  0.2902E+02
     -3.550  0.4569E+01  0.2951E+02
     -3.430  0.5107E+01  0.3007E+02
     -3.310  0.5032E+01  0.3069E+02
     -3.190  0.4966E+01  0.3129E+02
     -3.069  0.4610E+01  0.3189E+02
     -2.949  0.4046E+01  0.3241E+02
     -2.829  0.3497E+01  0.3284E+02
     -2.709  0.3923E+01  0.3328E+02
     -2.589  0.4553E+01  0.3379E+02
     -2.468  0.5897E+01  0.3440E+02
     -2.348  0.7344E+01  0.3524E+02
     -2.228  0.6806E+01  0.3609E+02
     -2.108  0.5788E+01  0.3686E+02
     -1.988  0.5356E+01  0.3752E+02
     -1.868  0.5431E+01  0.3816E+02
     -1.747  0.5030E+01  0.3880E+02
     -1.627  0.5470E+01  0.3943E+02
     -1.507  0.5600E+01  0.4010E+02
     -1.387  0.5635E+01  0.4078E+02
     -1.267  0.5875E+01  0.4146E+02
     -1.147  0.5963E+01  0.4220E+02
     -1.026  0.5113E+01  0.4284E+02
     -0.906  0.4878E+01  0.4343E+02
     -0.786  0.5126E+01  0.4404E+02
     -0.666  0.6689E+01  0.4476E+02
     -0.546  0.6385E+01  0.4555E+02
     -0.426  0.6027E+01  0.4629E+02
     -0.305  0.6118E+01  0.4703E+02
     -0.185  0.6462E+01  0.4779E+02
     -0.065  0.6797E+01  0.4859E+02
      0.055  0.6840E+01  0.4941E+02
      0.175  0.5729E+01  0.5015E+02
      0.296  0.6205E+01  0.5085E+02
      0.416  0.6136E+01  0.5164E+02
      0.536  0.6062E+01  0.5236E+02
      0.656  0.6505E+01  0.5316E+02
      0.776  0.6546E+01  0.5399E+02
      0.896  0.7485E+01  0.5481E+02
      1.017  0.7818E+01  0.5578E+02
      1.137  0.6377E+01  0.5661E+02
      1.257  0.7140E+01  0.5739E+02
      1.377  0.8372E+01  0.5828E+02
      1.497  0.9695E+01  0.5946E+02
      1.617  0.7119E+01  0.6050E+02
      1.738  0.6843E+01  0.6132E+02
      1.858  0.7156E+01  0.6224E+02
      1.978  0.6307E+01  0.6302E+02
      2.098  0.7413E+01  0.6384E+02
      2.218  0.8107E+01  0.6477E+02
      2.338  0.1190E+02  0.6593E+02
      2.459  0.8032E+01  0.6718E+02
      2.579  0.7745E+01  0.6812E+02
      2.699  0.8802E+01  0.6911E+02
      2.819  0.9536E+01  0.7018E+02
      2.939  0.1139E+02  0.7140E+02
      3.060  0.1010E+02  0.7269E+02
      3.180  0.1049E+02  0.7388E+02
      3.300  0.1082E+02  0.7526E+02
      3.420  0.8946E+01  0.7639E+02
      3.540  0.1069E+02  0.7759E+02
      3.660  0.1105E+02  0.7897E+02
      3.781  0.1025E+02  0.8019E+02
      3.901  0.1153E+02  0.8149E+02
      4.021  0.1027E+02  0.8278E+02
      4.141  0.1053E+02  0.8403E+02
      4.261  0.8899E+01  0.8522E+02
      4.381  0.8718E+01  0.8624E+02
      4.502  0.1158E+02  0.8748E+02
      4.622  0.1089E+02  0.8887E+02
      4.742  0.1039E+02  0.9010E+02
      4.862  0.1043E+02  0.9137E+02
      4.982  0.1138E+02  0.9268E+02
      5.102  0.1057E+02  0.9401E+02
      5.223  0.8547E+01  0.9517E+02
      5.343  0.7953E+01  0.9615E+02
      5.463  0.9072E+01  0.9716E+02
      5.583  0.8515E+01  0.9820E+02
      5.703  0.7732E+01  0.9919E+02
      5.824  0.6747E+01  0.1001E+03
      5.944  0.7721E+01  0.1009E+03
      6.064  0.8221E+01  0.1019E+03
      6.184  0.7581E+01  0.1028E+03
      6.304  0.6984E+01  0.1037E+03
      6.424  0.6824E+01  0.1046E+03
      6.545  0.6262E+01  0.1053E+03
      6.665  0.5939E+01  0.1061E+03
      6.785  0.5542E+01  0.1068E+03
      6.905  0.5179E+01  0.1074E+03
      7.025  0.4925E+01  0.1080E+03
      7.145  0.4694E+01  0.1086E+03
      7.266  0.4664E+01  0.1092E+03
      7.386  0.4208E+01  0.1097E+03
      7.506  0.5318E+01  0.1102E+03
      7.626  0.4425E+01  0.1108E+03
      7.746  0.2986E+01  0.1113E+03
      7.867  0.3340E+01  0.1117E+03
      7.987  0.3123E+01  0.1121E+03
      8.107  0.3037E+01  0.1124E+03
      8.227  0.3117E+01  0.1128E+03
      8.347  0.3402E+01  0.1132E+03
      8.467  0.3637E+01  0.1136E+03
      8.588  0.3549E+01  0.1141E+03
      8.708  0.3457E+01  0.1145E+03
      8.828  0.3393E+01  0.1149E+03
      8.948  0.3681E+01  0.1153E+03
      9.068  0.3823E+01  0.1158E+03
      9.188  0.3916E+01  0.1162E+03
      9.309  0.3825E+01  0.1167E+03
      9.429  0.4895E+01  0.1172E+03
      9.549  0.5585E+01  0.1178E+03
      9.669  0.6080E+01  0.1185E+03
      9.789  0.6699E+01  0.1193E+03
      9.909  0.6319E+01  0.1201E+03
     10.030  0.6071E+01  0.1208E+03
     10.150  0.5406E+01  0.1215E+03
     10.270  0.4566E+01  0.1221E+03
     10.390  0.4105E+01  0.1226E+03
     10.510  0.3886E+01  0.1231E+03
     10.631  0.4031E+01  0.1236E+03
     10.751  0.5634E+01  0.1242E+03
     10.871  0.4919E+01  0.1249E+03
     10.991  0.2603E+01  0.1253E+03
     11.111  0.2922E+01  0.1256E+03
     11.231  0.3326E+01  0.1260E+03
     11.352  0.3517E+01  0.1264E+03
     11.472  0.4725E+01  0.1269E+03
     11.592  0.5327E+01  0.1275E+03
     11.712  0.5048E+01  0.1281E+03
     11.832  0.4681E+01  0.1288E+03
     11.952  0.3933E+01  0.1293E+03
     12.073  0.2894E+01  0.1297E+03
     12.193  0.2226E+01  0.1300E+03
     12.313  0.2473E+01  0.1303E+03
     12.433  0.2930E+01  0.1306E+03
     12.553  0.6120E+01  0.1311E+03
     12.673  0.6888E+01  0.1319E+03
     12.794  0.5840E+01  0.1327E+03
     12.914  0.5637E+01  0.1334E+03
     13.034  0.4858E+01  0.1340E+03
     13.154  0.4571E+01  0.1346E+03
     13.274  0.5259E+01  0.1352E+03
     13.395  0.5814E+01  0.1358E+03
     13.515  0.6095E+01  0.1365E+03
     13.635  0.6025E+01  0.1373E+03
     13.755  0.4098E+01  0.1379E+03
     13.875  0.4992E+01  0.1384E+03
     13.995  0.4539E+01  0.1390E+03
     14.116  0.4229E+01  0.1396E+03
     14.236  0.4586E+01  0.1401E+03
     14.356  0.4543E+01  0.1406E+03
     14.476  0.5240E+01  0.1412E+03
     14.596  0.4717E+01  0.1418E+03
     14.716  0.3839E+01  0.1424E+03
     14.837  0.4132E+01  0.1428E+03
     14.957  0.5043E+01  0.1434E+03
     15.077  0.5754E+01  0.1440E+03
     15.197  0.5287E+01  0.1447E+03
     15.317  0.4864E+01  0.1453E+03
     15.437  0.4862E+01  0.1459E+03
     15.558  0.5543E+01  0.1465E+03
     15.678  0.6395E+01  0.1472E+03
     15.798  0.4602E+01  0.1479E+03
     15.918  0.4310E+01  0.1484E+03
     16.038  0.4348E+01  0.1489E+03
     16.159  0.4729E+01  0.1495E+03
     16.279  0.4997E+01  0.1500E+03
     16.399  0.4666E+01  0.1506E+03
     16.519  0.4995E+01  0.1512E+03
     16.639  0.4887E+01  0.1518E+03
     16.759  0.4825E+01  0.1524E+03
     16.880  0.5001E+01  0.1530E+03
     17.000  0.5681E+01  0.1536E+03
     17.120  0.7791E+01  0.1544E+03
     17.240  0.6558E+01  0.1553E+03
     17.360  0.5758E+01  0.1561E+03
     17.480  0.7045E+01  0.1568E+03
     17.601  0.8541E+01  0.1578E+03
     17.721  0.8472E+01  0.1588E+03
     17.841  0.8133E+01  0.1598E+03
     17.961  0.7925E+01  0.1608E+03
     18.081  0.6193E+01  0.1617E+03
     18.202  0.5099E+01  0.1623E+03
     18.322  0.4253E+01  0.1629E+03
     18.442  0.3944E+01  0.1634E+03
     18.562  0.3862E+01  0.1638E+03
     18.682  0.3821E+01  0.1643E+03
     18.802  0.4181E+01  0.1648E+03
     18.923  0.4830E+01  0.1653E+03
     19.043  0.4878E+01  0.1659E+03
     19.163  0.3896E+01  0.1664E+03
     19.283  0.3126E+01  0.1668E+03
     19.403  0.2411E+01  0.1672E+03
     19.523  0.2069E+01  0.1674E+03
     19.644  0.1513E+01  0.1676E+03
     19.764  0.1083E+01  0.1678E+03
     19.884  0.7165E+00  0.1679E+03
     20.004  0.2909E+00  0.1680E+03
     20.124  0.1601E+00  0.1680E+03
     20.244  0.4517E-01  0.1680E+03
     20.365  0.0000E+00  0.1680E+03
     20.485  0.0000E+00  0.1680E+03
     20.605  0.0000E+00  0.1680E+03
     20.725  0.0000E+00  0.1680E+03
     20.845  0.0000E+00  0.1680E+03
     20.966  0.0000E+00  0.1680E+03
     21.086  0.0000E+00  0.1680E+03
     21.206  0.0000E+00  0.1680E+03
     21.326  0.0000E+00  0.1680E+03
     21.446  0.0000E+00  0.1680E+03
     21.566  0.0000E+00  0.1680E+03
     21.687  0.0000E+00  0.1680E+03
     21.807  0.0000E+00  0.1680E+03
     21.927  0.0000E+00  0.1680E+03
     22.047  0.0000E+00  0.1680E+03
     22.167  0.0000E+00  0.1680E+03
     22.287  0.0000E+00  0.1680E+03
