   32   32    1    1
  0.5317807E+01  0.4934311E-09  0.4934311E-09  0.8070891E-09  0.5000000E-15
  1.000000000000000E-004
  CAR 
 graphite                                
    128    163     84
 
  0.0000000E+00  0.0000000E+00  0.0000000E+00  0.3086420E-02
    1      -11.764881
    2       -9.981928
    3       -9.976182
    4       -6.258546
    5       -6.070083
    6       -6.067038
    7       -6.063494
    8       -5.093980
    9       -5.090502
   10       -5.087539
   11       -4.500557
   12       -4.495543
   13       -4.493799
   14       -4.492436
   15       -4.491103
   16       -4.485968
   17       -3.410905
   18       -3.403526
   19       -3.402713
   20       -3.402160
   21       -3.401708
   22       -3.394371
   23       -1.840752
   24       -1.145342
   25       -1.142016
   26       -1.138154
   27       -0.990424
   28       -0.986686
   29       -0.983297
   30        2.874494
   31        2.877465
   32        2.882200
   33        3.906462
   34        3.913533
   35        3.914792
   36        3.915203
   37        3.916866
   38        3.921410
   39        3.957119
   40        3.960684
   41        3.963128
   42        4.940942
   43        4.946761
   44        5.173777
   45        5.177277
   46        5.182522
   47        6.825278
   48        6.839934
   49        7.236479
   50        7.241067
   51        7.244297
   52        7.358784
   53        7.368337
   54        7.373037
   55        7.382485
   56        7.870950
   57        7.883731
   58        9.411743
   59        9.415197
   60        9.417180
   61        9.417589
   62        9.419637
   63        9.423144
   64       11.631645
   65       12.318158
   66       12.328258
   67       12.328854
   68       12.330099
   69       12.330858
   70       12.340609
   71       14.830686
   72       14.835130
   73       14.841232
   74       14.908720
   75       14.910036
   76       14.911759
   77       17.812497
   78       17.813683
   79       17.815139
   80       18.026548
   81       18.039843
   82       18.050900
   83       18.052679
   84       18.055880
 
  0.1111111E+00 -0.1387779E-16  0.0000000E+00  0.6172840E-02
    1      -11.686737
    2       -9.905474
    3       -9.899736
    4       -6.923833
    5       -6.333246
    6       -6.329755
    7       -6.192928
    8       -5.284874
    9       -5.279664
   10       -4.729697
   11       -4.726030
   12       -4.723549
   13       -4.720107
   14       -4.697893
   15       -4.694585
   16       -4.136574
   17       -3.050813
   18       -3.044951
   19       -3.043626
   20       -3.040935
   21       -2.501539
   22       -2.496329
   23       -2.067558
   24       -1.750011
   25       -1.553760
   26       -1.550611
   27       -0.482509
   28       -0.479047
   29        0.062755
   30        2.604671
   31        2.609908
   32        2.952111
   33        3.409927
   34        3.653508
   35        3.656221
   36        3.658253
   37        3.664059
   38        3.859516
   39        3.863378
   40        3.983467
   41        3.988199
   42        4.997923
   43        5.003860
   44        5.007713
   45        5.013452
   46        5.242202
   47        6.425501
   48        6.593601
   49        7.063442
   50        7.071015
   51        7.199346
   52        7.207309
   53        7.484649
   54        7.489849
   55        7.690163
   56        7.809563
   57        7.909132
   58        9.061583
   59        9.065820
   60        9.372190
   61        9.374601
   62        9.376602
   63        9.380930
   64       11.676386
   65       12.475549
   66       12.484593
   67       12.486508
   68       12.489692
   69       12.711183
   70       12.718109
   71       14.592485
   72       14.593999
   73       14.781576
   74       14.899091
   75       15.248514
   76       15.256270
   77       17.871797
   78       17.873656
   79       17.932655
   80       18.002579
   81       18.166706
   82       18.169987
   83       18.193774
   84       18.201072
 
  0.2222222E+00 -0.4163336E-16  0.0000000E+00  0.6172840E-02
    1      -11.452577
    2       -9.676544
    3       -9.670826
    4       -8.011290
    5       -6.710361
    6       -6.707499
    7       -6.329046
    8       -6.323681
    9       -5.996752
   10       -5.080027
   11       -5.077160
   12       -5.074282
   13       -5.071267
   14       -3.940564
   15       -3.937531
   16       -3.300182
   17       -2.379012
   18       -2.324902
   19       -2.320032
   20       -2.318330
   21       -2.315344
   22       -1.910778
   23       -1.907903
   24       -1.478506
   25       -1.122096
   26       -1.117002
   27        0.126738
   28        0.130156
   29        1.265373
   30        1.939452
   31        1.943663
   32        2.374522
   33        2.971418
   34        2.974137
   35        2.975916
   36        2.981512
   37        3.180499
   38        3.647246
   39        3.650593
   40        4.200428
   41        4.205567
   42        4.506876
   43        4.512739
   44        5.176395
   45        5.182040
   46        5.365929
   47        5.441952
   48        6.035522
   49        6.250586
   50        6.257112
   51        6.770479
   52        6.777951
   53        7.098680
   54        7.568943
   55        8.138966
   56        8.143799
   57        8.328430
   58        8.331919
   59        9.273178
   60        9.278510
   61        9.280254
   62        9.283166
   63        9.288676
   64       11.802604
   65       12.838836
   66       12.847082
   67       12.848726
   68       12.851812
   69       13.529753
   70       13.533809
   71       13.782972
   72       13.784213
   73       14.494945
   74       15.094309
   75       16.381283
   76       16.389007
   77       17.554771
   78       17.643324
   79       17.650007
   80       17.974506
   81       17.976261
   82       18.211644
   83       18.494986
   84       18.500143
 
  0.3333333E+00  0.2775558E-16  0.0000000E+00  0.6172840E-02
    1      -11.063450
    2       -9.296282
    3       -9.290592
    4       -8.988313
    5       -7.275375
    6       -7.269914
    7       -6.987429
    8       -6.984778
    9       -5.671316
   10       -5.343402
   11       -5.340776
   12       -5.337730
   13       -5.334931
   14       -3.959352
   15       -3.098437
   16       -3.096192
   17       -2.103048
   18       -2.100163
   19       -1.472971
   20       -1.468200
   21       -1.466450
   22       -1.463668
   23       -1.028689
   24       -0.962556
   25        0.320857
   26        0.324226
   27        0.365434
   28        0.370477
   29        1.324974
   30        1.532881
   31        1.534978
   32        2.067882
   33        2.070437
   34        2.071976
   35        2.077344
   36        2.522247
   37        3.447880
   38        3.451304
   39        3.553989
   40        3.806002
   41        3.811153
   42        3.934385
   43        4.553514
   44        4.558902
   45        4.786355
   46        4.791845
   47        5.353919
   48        5.762723
   49        5.767971
   50        5.772194
   51        6.173981
   52        6.196968
   53        6.203293
   54        7.159279
   55        7.537282
   56        7.541207
   57        9.045600
   58        9.050130
   59        9.186595
   60        9.187972
   61        9.191810
   62        9.196846
   63       10.749276
   64       11.978349
   65       12.716280
   66       12.718086
   67       13.213104
   68       13.220380
   69       13.221657
   70       13.224096
   71       14.271509
   72       14.444302
   73       14.447315
   74       15.415377
   75       16.947259
   76       16.953354
   77       16.985744
   78       16.989797
   79       18.006338
   80       18.013893
   81       18.043233
   82       18.044765
   83       19.018498
   84       19.026939
 
  0.4444444E+00 -0.8326673E-16  0.0000000E+00  0.6172840E-02
    1      -10.520809
    2       -9.827526
    3       -8.766834
    4       -8.761207
    5       -8.091244
    6       -8.085690
    7       -7.130154
    8       -7.127607
    9       -5.480089
   10       -5.477533
   11       -5.474417
   12       -5.471722
   13       -5.218493
   14       -4.643364
   15       -2.586776
   16       -2.584612
   17       -1.874117
   18       -1.870260
   19       -0.681147
   20       -0.676027
   21       -0.674102
   22       -0.672322
   23       -0.404325
   24       -0.367303
   25       -0.364091
   26        0.385733
   27        0.665318
   28        1.223209
   29        1.224780
   30        1.226726
   31        1.231201
   32        1.900255
   33        1.905256
   34        2.063111
   35        2.067114
   36        2.325986
   37        3.036755
   38        3.041133
   39        3.334831
   40        3.337981
   41        3.418599
   42        3.424024
   43        3.797556
   44        4.058592
   45        4.671782
   46        5.025565
   47        5.031431
   48        5.039730
   49        5.589356
   50        5.595397
   51        6.184115
   52        6.192441
   53        6.197118
   54        6.669237
   55        6.807961
   56        6.812343
   57        9.132359
   58        9.133709
   59        9.137971
   60        9.143130
   61       10.022802
   62       10.027763
   63       11.640562
   64       11.643327
   65       11.833332
   66       12.102752
   67       13.442863
   68       13.449569
   69       13.450484
   70       13.451981
   71       14.523486
   72       15.334613
   73       15.338255
   74       15.603345
   75       15.853496
   76       16.171077
   77       16.175870
   78       16.390110
   79       18.071093
   80       18.072450
   81       19.632747
   82       19.636943
   83       19.930416
   84       19.960233
 
  0.0000000E+00  0.1111111E+00  0.0000000E+00  0.6172840E-02
    1      -11.686739
    2       -9.905476
    3       -9.899737
    4       -6.923743
    5       -6.333465
    6       -6.329887
    7       -6.192904
    8       -5.284685
    9       -5.279498
   10       -4.729822
   11       -4.726060
   12       -4.723793
   13       -4.720615
   14       -4.698353
   15       -4.693340
   16       -4.137109
   17       -3.050617
   18       -3.044733
   19       -3.043664
   20       -3.037991
   21       -2.502506
   22       -2.497957
   23       -2.068641
   24       -1.750004
   25       -1.554386
   26       -1.549146
   27       -0.483125
   28       -0.477080
   29        0.061579
   30        2.603131
   31        2.609566
   32        2.953889
   33        3.411125
   34        3.651000
   35        3.656128
   36        3.658181
   37        3.662995
   38        3.858639
   39        3.862623
   40        3.986148
   41        3.989340
   42        4.996340
   43        5.003543
   44        5.007633
   45        5.013390
   46        5.244336
   47        6.421391
   48        6.597749
   49        7.062260
   50        7.063780
   51        7.206916
   52        7.208271
   53        7.485098
   54        7.491246
   55        7.686265
   56        7.813556
   57        7.907849
   58        9.063579
   59        9.065995
   60        9.370664
   61        9.374139
   62        9.376590
   63        9.380084
   64       11.676418
   65       12.476913
   66       12.484680
   67       12.485964
   68       12.493424
   69       12.710087
   70       12.715350
   71       14.592946
   72       14.594576
   73       14.780181
   74       14.900007
   75       15.248485
   76       15.255323
   77       17.872047
   78       17.873341
   79       17.936796
   80       18.002842
   81       18.165610
   82       18.169465
   83       18.198276
   84       18.202392
 
  0.1111111E+00  0.1111111E+00  0.0000000E+00  0.6172840E-02
    1      -11.530562
    2       -9.752772
    3       -9.747047
    4       -7.424780
    5       -7.420504
    6       -6.062154
    7       -5.862327
    8       -5.764997
    9       -5.760037
   10       -5.758732
   11       -5.753212
   12       -4.878727
   13       -4.299038
   14       -4.294233
   15       -3.473856
   16       -3.470670
   17       -3.210024
   18       -3.204342
   19       -2.414150
   20       -2.411040
   21       -1.791260
   22       -1.786943
   23       -1.786268
   24       -1.779601
   25       -1.568774
   26       -0.977876
   27       -0.893177
   28        0.666602
   29        0.671600
   30        1.836305
   31        2.765668
   32        2.769420
   33        2.899064
   34        2.903472
   35        2.969831
   36        2.973918
   37        3.796621
   38        3.802574
   39        3.803837
   40        3.805495
   41        4.189235
   42        4.444517
   43        5.128493
   44        5.130236
   45        5.133664
   46        5.135495
   47        5.769054
   48        6.104244
   49        6.531218
   50        6.538559
   51        6.870400
   52        6.878435
   53        7.374913
   54        7.483359
   55        7.593834
   56        8.607441
   57        8.610506
   58        8.768240
   59        8.773019
   60        8.774906
   61        8.776585
   62        9.636449
   63        9.641760
   64       11.762213
   65       12.448400
   66       12.457933
   67       13.149593
   68       13.150713
   69       13.152217
   70       13.158491
   71       13.829289
   72       14.409223
   73       14.411818
   74       15.375995
   75       15.381919
   76       16.323966
   77       17.869585
   78       17.878894
   79       17.888032
   80       17.911456
   81       18.169992
   82       18.172018
   83       18.481407
   84       18.543216
 
  0.2222222E+00  0.1111111E+00  0.0000000E+00  0.6172840E-02
    1      -11.218854
    2       -9.448140
    3       -9.442442
    4       -8.459939
    5       -7.789228
    6       -6.763086
    7       -6.757674
    8       -6.114756
    9       -6.109414
   10       -5.914097
   11       -5.801184
   12       -4.327596
   13       -4.322574
   14       -4.285168
   15       -3.549860
   16       -3.119190
   17       -2.675751
   18       -2.670184
   19       -2.209866
   20       -1.689839
   21       -1.294510
   22       -1.208121
   23       -0.969654
   24       -0.965293
   25       -0.384827
   26       -0.352481
   27       -0.347496
   28        0.999498
   29        1.173925
   30        1.865727
   31        1.900779
   32        1.904205
   33        1.910506
   34        2.306127
   35        2.623614
   36        3.101720
   37        3.200311
   38        3.203735
   39        3.673853
   40        4.088268
   41        4.093460
   42        4.311332
   43        4.611317
   44        4.707224
   45        5.155740
   46        5.161334
   47        5.366572
   48        5.393095
   49        5.803613
   50        5.808235
   51        6.308495
   52        6.316699
   53        6.705862
   54        7.204768
   55        7.964190
   56        7.987121
   57        7.990225
   58        8.546468
   59        8.549190
   60        9.495787
   61        9.806248
   62        9.811190
   63       10.079504
   64       11.917002
   65       12.538544
   66       12.547453
   67       12.714926
   68       13.668211
   69       13.680918
   70       13.684893
   71       14.052849
   72       14.056009
   73       14.171550
   74       15.635221
   75       16.572701
   76       17.344155
   77       17.351251
   78       17.464167
   79       17.603458
   80       17.887824
   81       17.973125
   82       18.246637
   83       18.702624
   84       18.993079
 
  0.3333333E+00  0.1111111E+00  0.0000000E+00  0.6172840E-02
    1      -10.752998
    2       -9.368716
    3       -8.993241
    4       -8.987598
    5       -8.012025
    6       -7.644863
    7       -7.639345
    8       -6.329835
    9       -6.324464
   10       -6.072769
   11       -5.412053
   12       -4.468526
   13       -4.463463
   14       -4.266335
   15       -3.363503
   16       -3.188758
   17       -1.851941
   18       -1.846485
   19       -1.660684
   20       -1.403511
   21       -0.670872
   22       -0.585915
   23       -0.130469
   24       -0.126407
   25       -0.122409
   26        0.831016
   27        0.874491
   28        0.879010
   29        0.903982
   30        1.051159
   31        1.152047
   32        1.156924
   33        2.403717
   34        2.413775
   35        2.417354
   36        2.512965
   37        2.806487
   38        3.007152
   39        3.128374
   40        3.668291
   41        4.078462
   42        4.100803
   43        4.107189
   44        4.309845
   45        4.510177
   46        4.515378
   47        4.614957
   48        5.648899
   49        5.656364
   50        5.728902
   51        5.767698
   52        6.014413
   53        6.018625
   54        6.728809
   55        7.219391
   56        7.223441
   57        8.405246
   58        8.408254
   59        8.794823
   60        9.888304
   61        9.892158
   62       10.495604
   63       11.439131
   64       11.508527
   65       12.088335
   66       12.654873
   67       12.661710
   68       12.718889
   69       14.106755
   70       14.110698
   71       14.141772
   72       14.976655
   73       14.979396
   74       16.012015
   75       16.152975
   76       16.649515
   77       16.655152
   78       17.049388
   79       18.044933
   80       18.245941
   81       18.252066
   82       19.413539
   83       19.507627
   84       19.516037
 
  0.4444444E+00  0.1111111E+00  0.0000000E+00  0.6172840E-02
    1      -10.137223
    2      -10.132998
    3       -8.394025
    4       -8.388414
    5       -8.387378
    6       -8.382281
    7       -8.086643
    8       -6.402067
    9       -6.396685
   10       -6.134251
   11       -4.900013
   12       -4.895841
   13       -4.524893
   14       -4.519802
   15       -3.234222
   16       -2.549922
   17       -2.206503
   18       -1.311067
   19       -1.306481
   20       -0.899105
   21       -0.791891
   22        0.034729
   23        0.038911
   24        0.263111
   25        0.267424
   26        0.271679
   27        0.369701
   28        0.374736
   29        1.508672
   30        1.512816
   31        1.619201
   32        1.920171
   33        1.925310
   34        2.122274
   35        2.328990
   36        2.664974
   37        2.665324
   38        2.666811
   39        2.674802
   40        3.011946
   41        3.548919
   42        3.872054
   43        3.878991
   44        4.296287
   45        4.619265
   46        4.625899
   47        5.037441
   48        5.048982
   49        5.049498
   50        5.051231
   51        6.224383
   52        6.231289
   53        6.539510
   54        6.544791
   55        6.548672
   56        6.552851
   57        8.357291
   58        8.360486
   59        9.464144
   60        9.910974
   61        9.913580
   62       10.716291
   63       11.328376
   64       11.895636
   65       12.095361
   66       12.097687
   67       12.707946
   68       12.712500
   69       14.268141
   70       14.272528
   71       14.839782
   72       14.844312
   73       15.847199
   74       15.850899
   75       15.853823
   76       15.858100
   77       16.491480
   78       16.496116
   79       18.071001
   80       18.237084
   81       20.029628
   82       20.032243
   83       20.036438
   84       20.038614
 
 -0.4444444E+00  0.1111111E+00  0.0000000E+00  0.6172840E-02
    1      -10.753089
    2       -9.368546
    3       -8.993351
    4       -8.987709
    5       -8.012221
    6       -7.644703
    7       -7.639193
    8       -6.330049
    9       -6.324674
   10       -6.072651
   11       -5.412150
   12       -4.468513
   13       -4.463454
   14       -4.266133
   15       -3.361400
   16       -3.188781
   17       -1.848468
   18       -1.844296
   19       -1.659541
   20       -1.407139
   21       -0.670895
   22       -0.588590
   23       -0.131790
   24       -0.128083
   25       -0.125168
   26        0.834266
   27        0.871790
   28        0.875392
   29        0.903952
   30        1.053450
   31        1.151999
   32        1.157271
   33        2.403923
   34        2.416485
   35        2.421770
   36        2.510060
   37        2.802661
   38        3.010408
   39        3.127766
   40        3.664700
   41        4.082224
   42        4.100343
   43        4.105524
   44        4.309153
   45        4.509607
   46        4.515425
   47        4.612349
   48        5.652705
   49        5.657160
   50        5.732199
   51        5.767686
   52        6.013617
   53        6.017811
   54        6.729299
   55        7.219493
   56        7.223621
   57        8.405284
   58        8.408629
   59        8.797857
   60        9.888400
   61        9.890475
   62       10.493906
   63       11.438959
   64       11.506858
   65       12.088669
   66       12.657533
   67       12.662367
   68       12.719144
   69       14.105315
   70       14.110464
   71       14.142306
   72       14.975652
   73       14.979289
   74       16.011323
   75       16.151725
   76       16.652070
   77       16.656367
   78       17.050673
   79       18.044856
   80       18.246722
   81       18.257743
   82       19.413494
   83       19.506206
   84       19.510243
 
 -0.3333333E+00  0.1111111E+00  0.0000000E+00  0.6172840E-02
    1      -11.218933
    2       -9.448218
    3       -9.442521
    4       -8.459740
    5       -7.789649
    6       -6.762894
    7       -6.757486
    8       -6.115177
    9       -6.109826
   10       -5.913972
   11       -5.801284
   12       -4.327620
   13       -4.322741
   14       -4.282708
   15       -3.549689
   16       -3.119138
   17       -2.671687
   18       -2.667529
   19       -2.213811
   20       -1.689963
   21       -1.292667
   22       -1.208142
   23       -0.973162
   24       -0.967931
   25       -0.384314
   26       -0.352592
   27       -0.347427
   28        0.997264
   29        1.173190
   30        1.866751
   31        1.897945
   32        1.902161
   33        1.907429
   34        2.308113
   35        2.623999
   36        3.100512
   37        3.203950
   38        3.209014
   39        3.669505
   40        4.088087
   41        4.093567
   42        4.309947
   43        4.609161
   44        4.712241
   45        5.154841
   46        5.159235
   47        5.365904
   48        5.393259
   49        5.802444
   50        5.805821
   51        6.313850
   52        6.318040
   53        6.707605
   54        7.206252
   55        7.968240
   56        7.986902
   57        7.990484
   58        8.546517
   59        8.549999
   60        9.493513
   61        9.806076
   62        9.808570
   63       10.079560
   64       11.917225
   65       12.542551
   66       12.549078
   67       12.713591
   68       13.666942
   69       13.679652
   70       13.684383
   71       14.052191
   72       14.056103
   73       14.171642
   74       15.634746
   75       16.578430
   76       17.348858
   77       17.353289
   78       17.462889
   79       17.605553
   80       17.881664
   81       17.973052
   82       18.247437
   83       18.703038
   84       18.974013
 
 -0.2222222E+00  0.1111111E+00  0.0000000E+00  0.6172840E-02
    1      -11.530609
    2       -9.752819
    3       -9.747094
    4       -7.423241
    5       -7.422426
    6       -6.062188
    7       -5.862441
    8       -5.763559
    9       -5.760557
   10       -5.758420
   11       -5.755124
   12       -4.875867
   13       -4.299272
   14       -4.294825
   15       -3.473531
   16       -3.472442
   17       -3.205244
   18       -3.201669
   19       -2.416029
   20       -2.411663
   21       -1.792760
   22       -1.787645
   23       -1.787500
   24       -1.782397
   25       -1.568785
   26       -0.976792
   27       -0.890136
   28        0.665795
   29        0.670039
   30        1.832057
   31        2.766125
   32        2.772995
   33        2.895052
   34        2.898612
   35        2.971339
   36        2.973073
   37        3.798515
   38        3.803716
   39        3.805624
   40        3.810486
   41        4.187424
   42        4.439786
   43        5.128860
   44        5.131143
   45        5.134771
   46        5.138241
   47        5.762842
   48        6.108865
   49        6.527372
   50        6.528438
   51        6.881121
   52        6.882087
   53        7.371403
   54        7.487694
   55        7.599419
   56        8.605552
   57        8.609484
   58        8.769826
   59        8.773409
   60        8.773629
   61        8.777536
   62        9.636056
   63        9.638907
   64       11.762343
   65       12.452708
   66       12.460017
   67       13.146546
   68       13.151045
   69       13.152635
   70       13.156959
   71       13.828703
   72       14.409192
   73       14.411088
   74       15.378146
   75       15.385015
   76       16.317972
   77       17.878672
   78       17.882627
   79       17.887990
   80       17.916989
   81       18.171280
   82       18.171794
   83       18.480223
   84       18.490117
 
 -0.1111111E+00  0.1111111E+00  0.0000000E+00  0.6172840E-02
    1      -11.686755
    2       -9.905492
    3       -9.899753
    4       -6.924431
    5       -6.333021
    6       -6.329568
    7       -6.192954
    8       -5.285264
    9       -5.280079
   10       -4.729770
   11       -4.725941
   12       -4.723441
   13       -4.720299
   14       -4.696154
   15       -4.693376
   16       -4.139064
   17       -3.046446
   18       -3.044443
   19       -3.042714
   20       -3.037532
   21       -2.505805
   22       -2.500446
   23       -2.070670
   24       -1.750008
   25       -1.552029
   26       -1.549359
   27       -0.480260
   28       -0.477580
   29        0.058989
   30        2.602422
   31        2.605432
   32        2.958741
   33        3.412236
   34        3.649564
   35        3.655029
   36        3.656395
   37        3.657737
   38        3.858282
   39        3.861385
   40        3.990153
   41        3.995281
   42        4.995484
   43        4.999358
   44        5.007669
   45        5.013398
   46        5.249522
   47        6.413950
   48        6.605239
   49        7.051826
   50        7.060054
   51        7.210672
   52        7.218823
   53        7.488477
   54        7.491977
   55        7.679491
   56        7.820508
   57        7.904377
   58        9.063789
   59        9.067895
   60        9.369871
   61        9.374119
   62        9.376105
   63        9.378561
   64       11.676461
   65       12.481062
   66       12.484351
   67       12.486291
   68       12.494964
   69       12.706953
   70       12.713921
   71       14.592886
   72       14.594714
   73       14.779536
   74       14.905546
   75       15.246195
   76       15.251793
   77       17.871902
   78       17.873660
   79       17.943477
   80       18.003108
   81       18.170104
   82       18.187792
   83       18.202739
   84       18.224106
 
 -0.1694066E-20  0.2222222E+00  0.0000000E+00  0.6172840E-02
    1      -11.452584
    2       -9.676550
    3       -9.670832
    4       -8.011329
    5       -6.711045
    6       -6.706904
    7       -6.329039
    8       -6.323678
    9       -5.996788
   10       -5.080925
   11       -5.076723
   12       -5.074719
   13       -5.070674
   14       -3.941280
   15       -3.936271
   16       -3.299585
   17       -2.381032
   18       -2.325420
   19       -2.319510
   20       -2.318297
   21       -2.312486
   22       -1.911401
   23       -1.906277
   24       -1.478477
   25       -1.123001
   26       -1.118553
   27        0.126512
   28        0.132440
   29        1.264020
   30        1.937572
   31        1.942985
   32        2.375188
   33        2.968698
   34        2.973881
   35        2.975836
   36        2.980746
   37        3.182362
   38        3.645997
   39        3.650421
   40        4.203424
   41        4.206554
   42        4.505144
   43        4.512491
   44        5.176372
   45        5.182001
   46        5.362569
   47        5.444264
   48        6.038866
   49        6.249539
   50        6.251518
   51        6.776896
   52        6.778726
   53        7.095268
   54        7.572650
   55        8.139440
   56        8.145212
   57        8.329257
   58        8.332162
   59        9.272345
   60        9.277509
   61        9.280129
   62        9.283377
   63        9.287473
   64       11.802751
   65       12.839959
   66       12.847015
   67       12.848442
   68       12.855260
   69       13.529168
   70       13.532062
   71       13.782740
   72       13.784832
   73       14.493269
   74       15.095319
   75       16.380716
   76       16.388360
   77       17.557941
   78       17.646644
   79       17.651419
   80       17.974627
   81       17.976348
   82       18.210981
   83       18.494800
   84       18.500103
 
  0.1111111E+00  0.2222222E+00  0.0000000E+00  0.6172840E-02
    1      -11.218859
    2       -9.448143
    3       -9.442446
    4       -8.460000
    5       -7.789185
    6       -6.763137
    7       -6.757713
    8       -6.114747
    9       -6.109418
   10       -5.914063
   11       -5.801177
   12       -4.327599
   13       -4.322581
   14       -4.285136
   15       -3.549678
   16       -3.119806
   17       -2.675623
   18       -2.670146
   19       -2.207651
   20       -1.691558
   21       -1.294896
   22       -1.208100
   23       -0.968566
   24       -0.963655
   25       -0.383971
   26       -0.353360
   27       -0.349045
   28        0.998717
   29        1.175627
   30        1.863982
   31        1.901028
   32        1.904223
   33        1.910460
   34        2.303971
   35        2.622889
   36        3.104033
   37        3.197615
   38        3.202483
   39        3.673823
   40        4.091378
   41        4.094537
   42        4.311133
   43        4.609284
   44        4.705128
   45        5.155660
   46        5.160307
   47        5.369307
   48        5.395060
   49        5.803044