32   
4    

1    
  0.0035481211059154  -0.0000013805052279   0.0093493761669944
  -0.2294696100    0.0081391100   -0.1312471600
   0.0291966500    0.0070989900   -0.0011463000
  -0.0086445500   -0.0147636400   -0.0010754200
  -0.0087606000    0.0290938300   -0.0013030500
  -0.0131202200    0.0069236100    0.0055834200
  -0.0130769700    0.0069255700    0.0056367000
  -0.0130961800    0.0069133800    0.0056365800
  -0.0130940000    0.0069343000    0.0056370900
   0.0121717500   -0.0076012100   -0.0056993200
   0.0118845400   -0.0077050400   -0.0058048600
   0.0121162400   -0.0073997400   -0.0057494600
   0.0119157400   -0.0075839900   -0.0049124700
   0.0125146500   -0.0063195700   -0.0058462300
   0.0127646400   -0.0064010500   -0.0057488400
   0.0127065700   -0.0065880700   -0.0057997900
   0.0125142800   -0.0064502200   -0.0047523700
   0.0074891600   -0.0057279500    0.0117700300
   0.0356575600   -0.0064384900    0.0460146000
   0.0822921100    0.0210788500    0.0464394900
   0.0825602400   -0.0328486200    0.0455104300
   0.0107022300   -0.0055985900   -0.0008307300
   0.0107028000   -0.0055983900   -0.0008035700
   0.0107040500   -0.0055983600   -0.0008042400
   0.0107033900   -0.0055994000   -0.0008000800
  -0.0103612500    0.0064095600    0.0014825700
  -0.0094919900    0.0065459800    0.0015362800
  -0.0100459500    0.0057422500    0.0015176300
  -0.0098248500    0.0062271600    0.0005231100
  -0.0095393600    0.0047703000    0.0015476100
  -0.0102382500    0.0049159200    0.0014651700
  -0.0100182400    0.0054545900    0.0014807200
  -0.0098145900    0.0050489400    0.0005424300

1    
 -0.0035481211059154   0.0000013805052279  -0.0093493761669944
   0.2051012400    0.0079819000    0.1313346200
  -0.0535687900    0.0069401800    0.0012475700
  -0.0156180700    0.0288751500    0.0013168200
  -0.0157248800   -0.0149809800    0.0012646800
  -0.0118184400    0.0072325600   -0.0054932700
  -0.0118608400    0.0072321600   -0.0055488900
  -0.0118429800    0.0072417700   -0.0055489600
  -0.0118427000    0.0072210000   -0.0055491100
   0.0119397800   -0.0078264500    0.0056643500
   0.0121994900   -0.0077299600    0.0057628700
   0.0119894900   -0.0080054900    0.0057109200
   0.0121827700   -0.0078353000    0.0046654300
   0.0127597000   -0.0067782600    0.0056938400
   0.0124855400   -0.0066944400    0.0055890600
   0.0125516400   -0.0064839800    0.0056449800
   0.0127305700   -0.0066317300    0.0047986500
   0.0121087300   -0.0056304200   -0.0117793700
  -0.0160682000   -0.0061240500   -0.0460265000
  -0.0631527700   -0.0327927800   -0.0455884900
  -0.0625097600    0.0211265900   -0.0463816900
   0.0094392600   -0.0058023400    0.0008308900
   0.0094376900   -0.0058025700    0.0008038300
   0.0094375000   -0.0058022900    0.0008032300
   0.0094377200   -0.0058021500    0.0008012200
  -0.0096577700    0.0063442300   -0.0014542800
  -0.0103702200    0.0062098100   -0.0015097300
  -0.0098944300    0.0068756300   -0.0014949200
  -0.0101081500    0.0064827400   -0.0005230000
  -0.0103753400    0.0055603500   -0.0015677100
  -0.0095255200    0.0054174900   -0.0014619700
  -0.0098257700    0.0047432900   -0.0014800200
  -0.0100365100    0.0052383300   -0.0005250500

17   
  0.0035481211059154  -0.0000013805052279   0.0093493761669944
  -0.0150004200    0.0071018700    0.0071330600
   0.0131753600    0.0076165300    0.0413819700
   0.0602490500    0.0342419100    0.0409414100
   0.0596324000   -0.0196649500    0.0417349200
  -0.0120363800    0.0072889500   -0.0054825900
  -0.0120349700    0.0072898600   -0.0054554100
  -0.0120353300    0.0072892900   -0.0054586600
  -0.0120342300    0.0072883900   -0.0054490100
   0.0124086700   -0.0079736700    0.0060237400
   0.0126178000   -0.0078783200    0.0062931300
   0.0124373000   -0.0080400600    0.0061531500
   0.0126008600   -0.0079583400    0.0051792300
   0.0125151700   -0.0066965700    0.0063020300
   0.0123266600   -0.0064963400    0.0059700400
   0.0122540800   -0.0064998700    0.0061215000
   0.0125148500   -0.0065749900    0.0051659600
  -0.2069828500   -0.0065722900   -0.1357692600
   0.0513946100   -0.0055472500   -0.0065539100
   0.0143131600   -0.0269784600   -0.0066192100
   0.0144216300    0.0159003200   -0.0065917600
   0.0094883700   -0.0058507600    0.0009712100
   0.0094777100   -0.0058503200    0.0007215700
   0.0094821800   -0.0058483700    0.0007215900
   0.0094822500   -0.0058541200    0.0007233500
  -0.0106666100    0.0066296600   -0.0004272100
  -0.0102855900    0.0065930000   -0.0003456500
  -0.0104392000    0.0062949800   -0.0004206200
  -0.0105117500    0.0064882000   -0.0008619300
  -0.0094846900    0.0049734000   -0.0002899200
  -0.0098723600    0.0049273900   -0.0004984700
  -0.0096334000    0.0052799800   -0.0004329100
  -0.0097743400    0.0050809500   -0.0008813500

17   
 -0.0035481211059154   0.0000013805052279  -0.0093493761669944
  -0.0097116700    0.0072302700   -0.0070116300
  -0.0378853400    0.0079377000   -0.0412561500
  -0.0845269000   -0.0195686300   -0.0416836200
  -0.0847688900    0.0343394600   -0.0407530200
  -0.0132723300    0.0070873900    0.0055947300
  -0.0132738700    0.0070885500    0.0055676900
  -0.0132747600    0.0070867100    0.0055643700
  -0.0132737600    0.0070877300    0.0055678900
   0.0125610800   -0.0077468900   -0.0061196200
   0.0123621800   -0.0078276300   -0.0064005800
   0.0125259000   -0.0076693400   -0.0062486700
   0.0123620700   -0.0077528400   -0.0052956700
   0.0122281800   -0.0062123100   -0.0064241700
   0.0124170900   -0.0064343500   -0.0061285300
   0.0125091900   -0.0064254400   -0.0062678500
   0.0122506700   -0.0063493100   -0.0052900000
   0.2269214300   -0.0069584500    0.1357381400
  -0.0314389000   -0.0059066000    0.0065411200
   0.0055325200    0.0154551700    0.0064742100
   0.0056450200   -0.0274191800    0.0067138400
   0.0110244700   -0.0057673000   -0.0009731600
   0.0110344800   -0.0057668500   -0.0007225000
   0.0110301200   -0.0057699800   -0.0007225900
   0.0110299200   -0.0057644000   -0.0007239500
  -0.0102083700    0.0063440100    0.0004494000
  -0.0105860700    0.0064009100    0.0003698500
  -0.0104511300    0.0066945500    0.0004352500
  -0.0103669500    0.0064964800    0.0008680100
  -0.0098180000    0.0051314700    0.0002939200
  -0.0094266600    0.0051401200    0.0005081800
  -0.0096343200    0.0048104200    0.0004354000
  -0.0095163900    0.0050085500    0.0008997000
