# Thermal properties / unit cell (natom)

unit:
  temperature:   K
  free_energy:   kJ/mol
  entropy:       J/K/mol
  heat_capacity: J/K/mol

natom:     4
num_modes: 3888
num_integrated_modes: 3874

zero_point_energy:      66.0013507
high_T_entropy:        229.2649686

thermal_properties:
- temperature:         0.0000000
  free_energy:        66.0013507
  entropy:             0.0000000
  heat_capacity:       0.0000000
  energy:             66.0013507

- temperature:        10.0000000
  free_energy:        66.0013428
  entropy:             0.0045567
  heat_capacity:       0.0184326
  energy:             66.0013884

- temperature:        20.0000000
  free_energy:        66.0011484
  entropy:             0.0391705
  heat_capacity:       0.0957061
  energy:             66.0019318

- temperature:        30.0000000
  free_energy:        66.0004784
  entropy:             0.0989834
  heat_capacity:       0.2192237
  energy:             66.0034479

- temperature:        40.0000000
  free_energy:        65.9990671
  entropy:             0.1894117
  heat_capacity:       0.4395722
  energy:             66.0066436

- temperature:        50.0000000
  free_energy:        65.9965485
  entropy:             0.3221639
  heat_capacity:       0.7843362
  energy:             66.0126567

- temperature:        60.0000000
  free_energy:        65.9924565
  entropy:             0.5050282
  heat_capacity:       1.2575321
  energy:             66.0227582

- temperature:        70.0000000
  free_energy:        65.9862655
  entropy:             0.7425711
  heat_capacity:       1.8622258
  energy:             66.0382455

- temperature:        80.0000000
  free_energy:        65.9774119
  entropy:             1.0380333
  heat_capacity:       2.6023559
  energy:             66.0604546

- temperature:        90.0000000
  free_energy:        65.9653037
  entropy:             1.3938085
  heat_capacity:       3.4784567
  energy:             66.0907465

- temperature:       100.0000000
  free_energy:        65.9493298
  entropy:             1.8113184
  heat_capacity:       4.4857777
  energy:             66.1304617

- temperature:       110.0000000
  free_energy:        65.9288704
  entropy:             2.2908832
  heat_capacity:       5.6146232
  energy:             66.1808675

- temperature:       120.0000000
  free_energy:        65.9033078
  entropy:             2.8317250
  heat_capacity:       6.8515956
  energy:             66.2431148

- temperature:       130.0000000
  free_energy:        65.8720374
  entropy:             3.4320802
  heat_capacity:       8.1810554
  energy:             66.3182078

- temperature:       140.0000000
  free_energy:        65.8344763
  entropy:             4.0893776
  heat_capacity:       9.5865089
  energy:             66.4069892

- temperature:       150.0000000
  free_energy:        65.7900706
  entropy:             4.8004444
  heat_capacity:      11.0517744
  energy:             66.5101372

- temperature:       160.0000000
  free_energy:        65.7383001
  entropy:             5.5617110
  heat_capacity:      12.5618477
  energy:             66.6281738

- temperature:       170.0000000
  free_energy:        65.6786816
  entropy:             6.3693967
  heat_capacity:      14.1034483
  energy:             66.7614790

- temperature:       180.0000000
  free_energy:        65.6107702
  entropy:             7.2196655
  heat_capacity:      15.6652747
  energy:             66.9103100

- temperature:       190.0000000
  free_energy:        65.5341589
  entropy:             8.1087464
  heat_capacity:      17.2380296
  energy:             67.0748208

- temperature:       200.0000000
  free_energy:        65.4484780
  entropy:             9.0330204
  heat_capacity:      18.8142833
  energy:             67.2550821

- temperature:       210.0000000
  free_energy:        65.3533926
  entropy:             9.9890762
  heat_capacity:      20.3882426
  energy:             67.4510986

- temperature:       220.0000000
  free_energy:        65.2486011
  entropy:            10.9737421
  heat_capacity:      21.9554783
  energy:             67.6628244

- temperature:       230.0000000
  free_energy:        65.1338322
  entropy:            11.9840973
  heat_capacity:      23.5126500
  energy:             67.8901746

- temperature:       240.0000000
  free_energy:        65.0088425
  entropy:            13.0174706
  heat_capacity:      25.0572530
  energy:             68.1330354

- temperature:       250.0000000
  free_energy:        64.8734142
  entropy:            14.0714288
  heat_capacity:      26.5874008
  energy:             68.3912714

- temperature:       260.0000000
  free_energy:        64.7273527
  entropy:            15.1437604
  heat_capacity:      28.1016473
  energy:             68.6647304

- temperature:       270.0000000
  free_energy:        64.5704844
  entropy:            16.2324558
  heat_capacity:      29.5988498
  energy:             68.9532475

- temperature:       280.0000000
  free_energy:        64.4026551
  entropy:            17.3356868
  heat_capacity:      31.0780659
  energy:             69.2566474

- temperature:       290.0000000
  free_energy:        64.2237278
  entropy:            18.4517873
  heat_capacity:      32.5384824
  energy:             69.5747461

- temperature:       300.0000000
  free_energy:        64.0335816
  entropy:            19.5792346
  heat_capacity:      33.9793670
  energy:             69.9073519

- temperature:       310.0000000
  free_energy:        63.8321100
  entropy:            20.7166327
  heat_capacity:      35.4000394
  energy:             70.2542661

- temperature:       320.0000000
  free_energy:        63.6192200
  entropy:            21.8626974
  heat_capacity:      36.7998556
  energy:             70.6152832

- temperature:       330.0000000
  free_energy:        63.3948311
  entropy:            23.0162441
  heat_capacity:      38.1782018
  energy:             70.9901916

- temperature:       340.0000000
  free_energy:        63.1588739
  entropy:            24.1761761
  heat_capacity:      39.5344949
  energy:             71.3787737

- temperature:       350.0000000
  free_energy:        62.9112897
  entropy:            25.3414757
  heat_capacity:      40.8681856
  energy:             71.7808062

- temperature:       360.0000000
  free_energy:        62.6520296
  entropy:            26.5111966
  heat_capacity:      42.1787646
  energy:             72.1960604

- temperature:       370.0000000
  free_energy:        62.3810540
  entropy:            27.6844566
  heat_capacity:      43.4657682
  energy:             72.6243029

- temperature:       380.0000000
  free_energy:        62.0983315
  entropy:            28.8604325
  heat_capacity:      44.7287841
  energy:             73.0652958

- temperature:       390.0000000
  free_energy:        61.8038388
  entropy:            30.0383554
  heat_capacity:      45.9674562
  energy:             73.5187974

- temperature:       400.0000000
  free_energy:        61.4975603
  entropy:            31.2175063
  heat_capacity:      47.1814880
  energy:             73.9845628

- temperature:       410.0000000
  free_energy:        61.1794869
  entropy:            32.3972132
  heat_capacity:      48.3706450
  energy:             74.4623443

- temperature:       420.0000000
  free_energy:        60.8496162
  entropy:            33.5768475
  heat_capacity:      49.5347557
  energy:             74.9518922

- temperature:       430.0000000
  free_energy:        60.5079521
  entropy:            34.7558219
  heat_capacity:      50.6737112
  energy:             75.4529555

- temperature:       440.0000000
  free_energy:        60.1545038
  entropy:            35.9335876
  heat_capacity:      51.7874644
  energy:             75.9652824

- temperature:       450.0000000
  free_energy:        59.7892861
  entropy:            37.1096327
  heat_capacity:      52.8760277
  energy:             76.4886208

- temperature:       460.0000000
  free_energy:        59.4123185
  entropy:            38.2834798
  heat_capacity:      53.9394701
  energy:             77.0227192

- temperature:       470.0000000
  free_energy:        59.0236253
  entropy:            39.4546842
  heat_capacity:      54.9779144
  energy:             77.5673269

- temperature:       480.0000000
  free_energy:        58.6232350
  entropy:            40.6228328
  heat_capacity:      55.9915329
  energy:             78.1221947

- temperature:       490.0000000
  free_energy:        58.2111801
  entropy:            41.7875416
  heat_capacity:      56.9805439
  energy:             78.6870755

- temperature:       500.0000000
  free_energy:        57.7874968
  entropy:            42.9484552
  heat_capacity:      57.9452076
  energy:             79.2617245

- temperature:       510.0000000
  free_energy:        57.3522248
  entropy:            44.1052446
  heat_capacity:      58.8858216
  energy:             79.8458995

- temperature:       520.0000000
  free_energy:        56.9054067
  entropy:            45.2576060
  heat_capacity:      59.8027174
  energy:             80.4393618

- temperature:       530.0000000
  free_energy:        56.4470883
  entropy:            46.4052597
  heat_capacity:      60.6962559
  energy:             81.0418760

- temperature:       540.0000000
  free_energy:        55.9773181
  entropy:            47.5479487
  heat_capacity:      61.5668236
  energy:             81.6532104

- temperature:       550.0000000
  free_energy:        55.4961467
  entropy:            48.6854374
  heat_capacity:      62.4148294
  energy:             82.2731373

- temperature:       560.0000000
  free_energy:        55.0036274
  entropy:            49.8175104
  heat_capacity:      63.2407006
  energy:             82.9014332

- temperature:       570.0000000
  free_energy:        54.4998152
  entropy:            50.9439715
  heat_capacity:      64.0448799
  energy:             83.5378790

- temperature:       580.0000000
  free_energy:        53.9847672
  entropy:            52.0646427
  heat_capacity:      64.8278224
  energy:             84.1822600

- temperature:       590.0000000
  free_energy:        53.4585422
  entropy:            53.1793627
  heat_capacity:      65.5899928
  energy:             84.8343662

- temperature:       600.0000000
  free_energy:        52.9212003
  entropy:            54.2879864
  heat_capacity:      66.3318629
  energy:             85.4939922

- temperature:       610.0000000
  free_energy:        52.3728032
  entropy:            55.3903838
  heat_capacity:      67.0539093
  energy:             86.1609374

- temperature:       620.0000000
  free_energy:        51.8134138
  entropy:            56.4864389
  heat_capacity:      67.7566112
  energy:             86.8350059

- temperature:       630.0000000
  free_energy:        51.2430959
  entropy:            57.5760488
  heat_capacity:      68.4404487
  energy:             87.5160067

- temperature:       640.0000000
  free_energy:        50.6619146
  entropy:            58.6591234
  heat_capacity:      69.1059011
  energy:             88.2037536

- temperature:       650.0000000
  free_energy:        50.0699355
  entropy:            59.7355839
  heat_capacity:      69.7534452
  energy:             88.8980650

- temperature:       660.0000000
  free_energy:        49.4672252
  entropy:            60.8053624
  heat_capacity:      70.3835544
  energy:             89.5987644

- temperature:       670.0000000
  free_energy:        48.8538507
  entropy:            61.8684012
  heat_capacity:      70.9966972
  energy:             90.3056796

- temperature:       680.0000000
  free_energy:        48.2298798
  entropy:            62.9246522
  heat_capacity:      71.5933364
  energy:             91.0186433

- temperature:       690.0000000
  free_energy:        47.5953804
  entropy:            63.9740759
  heat_capacity:      72.1739282
  energy:             91.7374928

- temperature:       700.0000000
  free_energy:        46.9504211
  entropy:            65.0166410
  heat_capacity:      72.7389216
  energy:             92.4620699

- temperature:       710.0000000
  free_energy:        46.2950706
  entropy:            66.0523241
  heat_capacity:      73.2887573
  energy:             93.1922207

- temperature:       720.0000000
  free_energy:        45.6293976
  entropy:            67.0811087
  heat_capacity:      73.8238680
  energy:             93.9277959

- temperature:       730.0000000
  free_energy:        44.9534714
  entropy:            68.1029849
  heat_capacity:      74.3446772
  energy:             94.6686504

- temperature:       740.0000000
  free_energy:        44.2673610
  entropy:            69.1179489
  heat_capacity:      74.8515995
  energy:             95.4146432

- temperature:       750.0000000
  free_energy:        43.5711355
  entropy:            70.1260026
  heat_capacity:      75.3450396
  energy:             96.1656374

- temperature:       760.0000000
  free_energy:        42.8648639
  entropy:            71.1271532
  heat_capacity:      75.8253932
  energy:             96.9215003

- temperature:       770.0000000
  free_energy:        42.1486154
  entropy:            72.1214124
  heat_capacity:      76.2930456
  energy:             97.6821030

- temperature:       780.0000000
  free_energy:        41.4224586
  entropy:            73.1087969
  heat_capacity:      76.7483728
  energy:             98.4473202

- temperature:       790.0000000
  free_energy:        40.6864623
  entropy:            74.0893269
  heat_capacity:      77.1917406
  energy:             99.2170306

- temperature:       800.0000000
  free_energy:        39.9406948
  entropy:            75.0630268
  heat_capacity:      77.6235050
  energy:             99.9911163

- temperature:       810.0000000
  free_energy:        39.1852244
  entropy:            76.0299243
  heat_capacity:      78.0440123
  energy:            100.7694631

- temperature:       820.0000000
  free_energy:        38.4201189
  entropy:            76.9900503
  heat_capacity:      78.4535988
  energy:            101.5519602

- temperature:       830.0000000
  free_energy:        37.6454459
  entropy:            77.9434385
  heat_capacity:      78.8525916
  energy:            102.3384998

- temperature:       840.0000000
  free_energy:        36.8612725
  entropy:            78.8901253
  heat_capacity:      79.2413079
  energy:            103.1289777

- temperature:       850.0000000
  free_energy:        36.0676656
  entropy:            79.8301496
  heat_capacity:      79.6200557
  energy:            103.9232927

- temperature:       860.0000000
  free_energy:        35.2646916
  entropy:            80.7635524
  heat_capacity:      79.9891338
  energy:            104.7213466

- temperature:       870.0000000
  free_energy:        34.4524165
  entropy:            81.6903766
  heat_capacity:      80.3488319
  energy:            105.5230441

- temperature:       880.0000000
  free_energy:        33.6309058
  entropy:            82.6106672
  heat_capacity:      80.6994310
  energy:            106.3282929

- temperature:       890.0000000
  free_energy:        32.8002248
  entropy:            83.5244703
  heat_capacity:      81.0412031
  energy:            107.1370033

- temperature:       900.0000000
  free_energy:        31.9604379
  entropy:            84.4318340
  heat_capacity:      81.3744122
  energy:            107.9490884

- temperature:       910.0000000
  free_energy:        31.1116094
  entropy:            85.3328072
  heat_capacity:      81.6993138
  energy:            108.7644639

- temperature:       920.0000000
  free_energy:        30.2538029
  entropy:            86.2274402
  heat_capacity:      82.0161554
  energy:            109.5830479

- temperature:       930.0000000
  free_energy:        29.3870815
  entropy:            87.1157843
  heat_capacity:      82.3251766
  energy:            110.4047609

- temperature:       940.0000000
  free_energy:        28.5115080
  entropy:            87.9978916
  heat_capacity:      82.6266095
  energy:            111.2295261

- temperature:       950.0000000
  free_energy:        27.6271443
  entropy:            88.8738150
  heat_capacity:      82.9206788
  energy:            112.0572686

- temperature:       960.0000000
  free_energy:        26.7340521
  entropy:            89.7436081
  heat_capacity:      83.2076019
  energy:            112.8879159

- temperature:       970.0000000
  free_energy:        25.8322924
  entropy:            90.6073248
  heat_capacity:      83.4875892
  energy:            113.7213975

- temperature:       980.0000000
  free_energy:        24.9219257
  entropy:            91.4650199
  heat_capacity:      83.7608446
  energy:            114.5576452

- temperature:       990.0000000
  free_energy:        24.0030119
  entropy:            92.3167482
  heat_capacity:      84.0275650
  energy:            115.3965926

- temperature:      1000.0000000
  free_energy:        23.0756104
  entropy:            93.1625649
  heat_capacity:      84.2879414
  energy:            116.2381754
