  32  32   0   0
  0.8294063E+01  0.4932875E-09  0.4932875E-09  0.1260033E-08  0.5000000E-15
  1.000000000000000E-004
  CAR 
 graphite                                
     16.94323102    -16.46460954  301      5.23091192      1.00000000
    -16.465  0.0000E+00  0.0000E+00
    -16.353  0.0000E+00  0.0000E+00
    -16.242  0.0000E+00  0.0000E+00
    -16.131  0.0000E+00  0.0000E+00
    -16.019  0.0000E+00  0.0000E+00
    -15.908  0.0000E+00  0.0000E+00
    -15.796  0.0000E+00  0.0000E+00
    -15.685  0.0000E+00  0.0000E+00
    -15.574  0.0000E+00  0.0000E+00
    -15.462  0.0000E+00  0.0000E+00
    -15.351  0.0000E+00  0.0000E+00
    -15.240  0.0000E+00  0.0000E+00
    -15.128  0.0000E+00  0.0000E+00
    -15.017  0.0000E+00  0.0000E+00
    -14.906  0.0000E+00  0.0000E+00
    -14.794  0.0000E+00  0.0000E+00
    -14.683  0.0000E+00  0.0000E+00
    -14.571  0.0000E+00  0.0000E+00
    -14.460  0.3624E-02  0.5401E-05
    -14.349  0.1211E+01  0.5447E-01
    -14.237  0.2110E+01  0.2618E+00
    -14.126  0.2820E+01  0.5349E+00
    -14.015  0.3766E+01  0.8982E+00
    -13.903  0.5097E+01  0.1397E+01
    -13.792  0.4766E+01  0.1958E+01
    -13.681  0.4887E+01  0.2495E+01
    -13.569  0.4999E+01  0.3046E+01
    -13.458  0.5000E+01  0.3604E+01
    -13.347  0.5101E+01  0.4164E+01
    -13.235  0.6563E+01  0.4808E+01
    -13.124  0.7027E+01  0.5570E+01
    -13.012  0.6221E+01  0.6321E+01
    -12.901  0.6228E+01  0.7014E+01
    -12.790  0.2676E+01  0.7534E+01
    -12.678  0.1897E+01  0.7779E+01
    -12.567  0.1808E+01  0.7979E+01
    -12.456  0.2349E+01  0.8205E+01
    -12.344  0.7079E+01  0.8601E+01
    -12.233  0.5894E+01  0.9474E+01
    -12.122  0.6610E+01  0.1015E+02
    -12.010  0.6802E+01  0.1092E+02
    -11.899  0.4089E+01  0.1156E+02
    -11.788  0.4244E+01  0.1203E+02
    -11.676  0.4447E+01  0.1251E+02
    -11.565  0.4655E+01  0.1302E+02
    -11.453  0.4851E+01  0.1355E+02
    -11.342  0.5062E+01  0.1409E+02
    -11.231  0.5189E+01  0.1466E+02
    -11.119  0.5335E+01  0.1525E+02
    -11.008  0.5693E+01  0.1586E+02
    -10.897  0.6000E+01  0.1653E+02
    -10.785  0.5780E+01  0.1719E+02
    -10.674  0.5692E+01  0.1782E+02
    -10.563  0.5866E+01  0.1847E+02
    -10.451  0.6048E+01  0.1913E+02
    -10.340  0.5851E+01  0.1979E+02
    -10.228  0.5829E+01  0.2044E+02
    -10.117  0.5823E+01  0.2109E+02
    -10.006  0.5020E+01  0.2170E+02
     -9.894  0.3841E+01  0.2219E+02
     -9.783  0.3780E+01  0.2260E+02
     -9.672  0.4550E+01  0.2307E+02
     -9.560  0.4893E+01  0.2360E+02
     -9.449  0.6182E+01  0.2422E+02
     -9.338  0.7595E+01  0.2497E+02
     -9.226  0.1023E+02  0.2594E+02
     -9.115  0.8948E+01  0.2707E+02
     -9.004  0.6556E+01  0.2793E+02
     -8.892  0.4960E+01  0.2855E+02
     -8.781  0.4403E+01  0.2907E+02
     -8.669  0.6532E+01  0.2954E+02
     -8.558  0.4382E+01  0.3019E+02
     -8.447  0.4455E+01  0.3068E+02
     -8.335  0.1945E+01  0.3104E+02
     -8.224  0.1725E+01  0.3124E+02
     -8.113  0.1505E+01  0.3142E+02
     -8.001  0.1286E+01  0.3158E+02
     -7.890  0.1501E+01  0.3173E+02
     -7.779  0.1997E+01  0.3192E+02
     -7.667  0.2505E+01  0.3217E+02
     -7.556  0.3434E+01  0.3248E+02
     -7.444  0.8692E+01  0.3311E+02
     -7.333  0.6807E+01  0.3412E+02
     -7.222  0.5152E+01  0.3472E+02
     -7.110  0.5637E+01  0.3531E+02
     -6.999  0.6905E+01  0.3601E+02
     -6.888  0.8173E+01  0.3685E+02
     -6.776  0.9441E+01  0.3783E+02
     -6.665  0.7858E+01  0.3880E+02
     -6.554  0.5826E+01  0.3959E+02
     -6.442  0.5571E+01  0.4022E+02
     -6.331  0.5500E+01  0.4084E+02
     -6.220  0.5415E+01  0.4145E+02
     -6.108  0.5228E+01  0.4204E+02
     -5.997  0.5049E+01  0.4261E+02
     -5.885  0.4928E+01  0.4317E+02
     -5.774  0.4809E+01  0.4371E+02
     -5.663  0.4690E+01  0.4424E+02
     -5.551  0.4571E+01  0.4475E+02
     -5.440  0.4452E+01  0.4526E+02
     -5.329  0.4328E+01  0.4574E+02
     -5.217  0.4581E+01  0.4623E+02
     -5.106  0.5255E+01  0.4678E+02
     -4.995  0.5882E+01  0.4740E+02
     -4.883  0.6510E+01  0.4809E+02
     -4.772  0.7137E+01  0.4885E+02
     -4.661  0.7764E+01  0.4968E+02
     -4.549  0.8391E+01  0.5058E+02
     -4.438  0.8813E+01  0.5155E+02
     -4.326  0.5772E+01  0.5231E+02
     -4.215  0.5541E+01  0.5288E+02
     -4.104  0.7198E+01  0.5358E+02
     -3.992  0.5612E+01  0.5430E+02
     -3.881  0.4013E+01  0.5483E+02
     -3.770  0.2413E+01  0.5519E+02
     -3.658  0.1083E+01  0.5538E+02
     -3.547  0.2198E+01  0.5554E+02
     -3.436  0.4198E+01  0.5589E+02
     -3.324  0.6431E+01  0.5648E+02
     -3.213  0.9829E+01  0.5739E+02
     -3.101  0.1318E+02  0.5865E+02
     -2.990  0.1320E+02  0.6012E+02
     -2.879  0.9938E+01  0.6143E+02
     -2.767  0.5252E+01  0.6223E+02
     -2.656  0.5447E+01  0.6280E+02
     -2.545  0.6575E+01  0.6348E+02
     -2.433  0.7995E+01  0.6427E+02
     -2.322  0.1409E+02  0.6549E+02
     -2.211  0.2477E+02  0.6750E+02
     -2.099  0.9175E+01  0.6933E+02
     -1.988  0.7379E+01  0.7021E+02
     -1.877  0.7193E+01  0.7102E+02
     -1.765  0.7297E+01  0.7182E+02
     -1.654  0.8354E+01  0.7268E+02
     -1.542  0.1517E+02  0.7385E+02
     -1.431  0.1307E+02  0.7549E+02
     -1.320  0.9293E+01  0.7674E+02
     -1.208  0.1480E+02  0.7783E+02
     -1.097  0.2904E+02  0.8060E+02
     -0.986  0.2231E+02  0.8291E+02
     -0.874  0.1517E+02  0.8494E+02
     -0.763  0.1463E+02  0.8660E+02
     -0.652  0.1308E+02  0.8820E+02
     -0.540  0.9719E+01  0.8947E+02
     -0.429  0.8264E+01  0.9046E+02
     -0.317  0.7111E+01  0.9129E+02
     -0.206  0.8156E+01  0.9214E+02
     -0.095  0.8885E+01  0.9309E+02
      0.017  0.1023E+02  0.9415E+02
      0.128  0.1124E+02  0.9535E+02
      0.239  0.1914E+02  0.9687E+02
      0.351  0.1208E+02  0.9864E+02
      0.462  0.1237E+02  0.9999E+02
      0.573  0.1099E+02  0.1013E+03
      0.685  0.9330E+01  0.1024E+03
      0.796  0.8991E+01  0.1034E+03
      0.907  0.8818E+01  0.1044E+03
      1.019  0.8601E+01  0.1054E+03
      1.130  0.8574E+01  0.1063E+03
      1.242  0.1072E+02  0.1074E+03
      1.353  0.9854E+01  0.1086E+03
      1.464  0.1013E+02  0.1097E+03
      1.576  0.1006E+02  0.1108E+03
      1.687  0.1029E+02  0.1120E+03
      1.798  0.9317E+01  0.1131E+03
      1.910  0.8932E+01  0.1140E+03
      2.021  0.1012E+02  0.1152E+03
      2.132  0.9048E+01  0.1162E+03
      2.244  0.7356E+01  0.1171E+03
      2.355  0.6557E+01  0.1179E+03
      2.467  0.5059E+01  0.1186E+03
      2.578  0.4118E+01  0.1191E+03
      2.689  0.3207E+01  0.1195E+03
      2.801  0.3520E+01  0.1199E+03
      2.912  0.4531E+01  0.1203E+03
      3.023  0.6221E+01  0.1209E+03
      3.135  0.8528E+01  0.1218E+03
      3.246  0.7413E+01  0.1226E+03
      3.357  0.6427E+01  0.1234E+03
      3.469  0.6841E+01  0.1241E+03
      3.580  0.6005E+01  0.1248E+03
      3.691  0.4566E+01  0.1254E+03
      3.803  0.3622E+01  0.1259E+03
      3.914  0.3155E+01  0.1263E+03
      4.026  0.2685E+01  0.1266E+03
      4.137  0.2273E+01  0.1269E+03
      4.248  0.1950E+01  0.1271E+03
      4.360  0.1659E+01  0.1273E+03
      4.471  0.1446E+01  0.1275E+03
      4.582  0.1265E+01  0.1276E+03
      4.694  0.1023E+01  0.1277E+03
      4.805  0.7907E+00  0.1278E+03
      4.916  0.5667E+00  0.1279E+03
      5.028  0.3502E+00  0.1280E+03
      5.139  0.1410E+00  0.1280E+03
      5.250  0.6125E-02  0.1280E+03
      5.362  0.1321E+00  0.1280E+03
      5.473  0.2691E+00  0.1280E+03
      5.585  0.4144E+00  0.1281E+03
      5.696  0.5692E+00  0.1281E+03
      5.807  0.7358E+00  0.1282E+03
      5.919  0.9143E+00  0.1283E+03
      6.030  0.1108E+01  0.1284E+03
      6.141  0.1325E+01  0.1285E+03
      6.253  0.1587E+01  0.1287E+03
      6.364  0.2402E+01  0.1289E+03
      6.475  0.2921E+01  0.1292E+03
      6.587  0.3401E+01  0.1296E+03
      6.698  0.4116E+01  0.1300E+03
      6.810  0.7884E+01  0.1306E+03
      6.921  0.1179E+02  0.1320E+03
      7.032  0.1038E+02  0.1332E+03
      7.144  0.7852E+01  0.1342E+03
      7.255  0.6175E+01  0.1349E+03
      7.366  0.5230E+01  0.1356E+03
      7.478  0.4722E+01  0.1361E+03
      7.589  0.4139E+01  0.1366E+03
      7.700  0.3912E+01  0.1371E+03
      7.812  0.3671E+01  0.1375E+03
      7.923  0.3644E+01  0.1379E+03
      8.034  0.3880E+01  0.1383E+03
      8.146  0.4289E+01  0.1388E+03
      8.257  0.4590E+01  0.1392E+03
      8.369  0.4797E+01  0.1398E+03
      8.480  0.4851E+01  0.1403E+03
      8.591  0.4632E+01  0.1408E+03
      8.703  0.4491E+01  0.1413E+03
      8.814  0.4423E+01  0.1418E+03
      8.925  0.4318E+01  0.1423E+03
      9.037  0.4219E+01  0.1428E+03
      9.148  0.4123E+01  0.1433E+03
      9.259  0.3850E+01  0.1437E+03
      9.371  0.3557E+01  0.1441E+03
      9.482  0.3396E+01  0.1445E+03
      9.594  0.3322E+01  0.1449E+03
      9.705  0.3256E+01  0.1453E+03
      9.816  0.3162E+01  0.1456E+03
      9.928  0.3099E+01  0.1460E+03
     10.039  0.3053E+01  0.1463E+03
     10.150  0.2994E+01  0.1466E+03
     10.262  0.3002E+01  0.1470E+03
     10.373  0.3209E+01  0.1473E+03
     10.484  0.3300E+01  0.1477E+03
     10.596  0.3262E+01  0.1480E+03
     10.707  0.3318E+01  0.1484E+03
     10.818  0.4193E+01  0.1488E+03
     10.930  0.4449E+01  0.1493E+03
     11.041  0.4530E+01  0.1498E+03
     11.153  0.4500E+01  0.1503E+03
     11.264  0.4337E+01  0.1508E+03
     11.375  0.4145E+01  0.1513E+03
     11.487  0.4058E+01  0.1517E+03
     11.598  0.5824E+01  0.1523E+03
     11.709  0.6165E+01  0.1530E+03
     11.821  0.2955E+01  0.1534E+03
     11.932  0.2460E+01  0.1537E+03
     12.043  0.2230E+01  0.1540E+03
     12.155  0.2119E+01  0.1542E+03
     12.266  0.2432E+01  0.1545E+03
     12.377  0.3090E+01  0.1548E+03
     12.489  0.5192E+01  0.1553E+03
     12.600  0.5814E+01  0.1559E+03
     12.712  0.8178E+01  0.1566E+03
     12.823  0.9177E+01  0.1576E+03
     12.934  0.1038E+02  0.1587E+03
     13.046  0.1354E+02  0.1600E+03
     13.157  0.1415E+02  0.1616E+03
     13.268  0.1289E+02  0.1631E+03
     13.380  0.1242E+02  0.1645E+03
     13.491  0.1000E+02  0.1658E+03
     13.602  0.1069E+02  0.1670E+03
     13.714  0.2000E+01  0.1677E+03
     13.825  0.6568E+00  0.1679E+03
     13.937  0.3718E+00  0.1679E+03
     14.048  0.2181E+00  0.1679E+03
     14.159  0.1500E+00  0.1680E+03
     14.271  0.1104E+00  0.1680E+03
     14.382  0.7687E-01  0.1680E+03
     14.493  0.4940E-01  0.1680E+03
     14.605  0.2797E-01  0.1680E+03
     14.716  0.1260E-01  0.1680E+03
     14.827  0.3274E-02  0.1680E+03
     14.939  0.4877E-05  0.1680E+03
     15.050  0.0000E+00  0.1680E+03
     15.161  0.0000E+00  0.1680E+03
     15.273  0.0000E+00  0.1680E+03
     15.384  0.0000E+00  0.1680E+03
     15.496  0.0000E+00  0.1680E+03
     15.607  0.0000E+00  0.1680E+03
     15.718  0.0000E+00  0.1680E+03
     15.830  0.0000E+00  0.1680E+03
     15.941  0.0000E+00  0.1680E+03
     16.052  0.0000E+00  0.1680E+03
     16.164  0.0000E+00  0.1680E+03
     16.275  0.0000E+00  0.1680E+03
     16.386  0.0000E+00  0.1680E+03
     16.498  0.0000E+00  0.1680E+03
     16.609  0.0000E+00  0.1680E+03
     16.721  0.0000E+00  0.1680E+03
     16.832  0.0000E+00  0.1680E+03
     16.943  0.0000E+00  0.1680E+03
