   4   4   0   0
  0.6111415E+01  0.2466437E-09  0.2466437E-09  0.4642226E-09  0.5000000E-15
  1.000000000000000E-004
  CAR 
 graphite                                
     23.94749516    -14.36681332  301      8.67298273      1.00000000
    -14.367  0.0000E+00  0.0000E+00
    -14.239  0.0000E+00  0.0000E+00
    -14.111  0.0000E+00  0.0000E+00
    -13.984  0.0000E+00  0.0000E+00
    -13.856  0.0000E+00  0.0000E+00
    -13.728  0.0000E+00  0.0000E+00
    -13.601  0.0000E+00  0.0000E+00
    -13.473  0.0000E+00  0.0000E+00
    -13.345  0.0000E+00  0.0000E+00
    -13.217  0.0000E+00  0.0000E+00
    -13.090  0.0000E+00  0.0000E+00
    -12.962  0.0000E+00  0.0000E+00
    -12.834  0.0000E+00  0.0000E+00
    -12.707  0.0000E+00  0.0000E+00
    -12.579  0.0000E+00  0.0000E+00
    -12.451  0.0000E+00  0.0000E+00
    -12.323  0.9843E-04  0.1425E-05
    -12.196  0.4695E-03  0.4639E-04
    -12.068  0.7124E-03  0.1232E-03
    -11.940  0.8359E-03  0.2214E-03
    -11.813  0.9860E-03  0.3381E-03
    -11.685  0.1100E-02  0.4710E-03
    -11.557  0.1201E-02  0.6177E-03
    -11.429  0.1315E-02  0.7782E-03
    -11.302  0.1403E-02  0.9519E-03
    -11.174  0.1497E-02  0.1137E-02
    -11.046  0.1587E-02  0.1334E-02
    -10.919  0.1686E-02  0.1543E-02
    -10.791  0.1765E-02  0.1763E-02
    -10.663  0.1848E-02  0.1994E-02
    -10.535  0.1936E-02  0.2236E-02
    -10.408  0.2028E-02  0.2489E-02
    -10.280  0.2121E-02  0.2754E-02
    -10.152  0.2204E-02  0.3030E-02
    -10.025  0.2294E-02  0.3317E-02
     -9.897  0.2402E-02  0.3617E-02
     -9.769  0.2515E-02  0.3931E-02
     -9.641  0.2632E-02  0.4259E-02
     -9.514  0.2831E-02  0.4606E-02
     -9.386  0.3091E-02  0.4984E-02
     -9.258  0.3105E-02  0.5380E-02
     -9.131  0.3107E-02  0.5776E-02
     -9.003  0.3122E-02  0.6174E-02
     -8.875  0.3121E-02  0.6573E-02
     -8.747  0.3143E-02  0.6973E-02
     -8.620  0.3146E-02  0.7374E-02
     -8.492  0.3146E-02  0.7776E-02
     -8.364  0.3159E-02  0.8179E-02
     -8.237  0.3173E-02  0.8583E-02
     -8.109  0.3177E-02  0.8989E-02
     -7.981  0.3190E-02  0.9395E-02
     -7.853  0.3210E-02  0.9804E-02
     -7.726  0.3228E-02  0.1021E-01
     -7.598  0.3240E-02  0.1063E-01
     -7.470  0.3259E-02  0.1104E-01
     -7.343  0.3290E-02  0.1146E-01
     -7.215  0.3338E-02  0.1188E-01
     -7.087  0.3396E-02  0.1231E-01
     -6.959  0.3634E-02  0.1276E-01
     -6.832  0.3682E-02  0.1323E-01
     -6.704  0.3581E-02  0.1369E-01
     -6.576  0.3709E-02  0.1415E-01
     -6.449  0.3498E-02  0.1461E-01
     -6.321  0.3360E-02  0.1505E-01
     -6.193  0.3254E-02  0.1548E-01
     -6.065  0.3201E-02  0.1589E-01
     -5.938  0.3210E-02  0.1629E-01
     -5.810  0.3717E-02  0.1673E-01
     -5.682  0.4587E-02  0.1725E-01
     -5.555  0.4089E-02  0.1788E-01
     -5.427  0.2688E-02  0.1828E-01
     -5.299  0.2614E-02  0.1861E-01
     -5.171  0.2278E-02  0.1893E-01
     -5.044  0.1697E-02  0.1918E-01
     -4.916  0.1285E-02  0.1937E-01
     -4.788  0.1267E-02  0.1952E-01
     -4.661  0.2022E-02  0.1973E-01
     -4.533  0.2483E-02  0.2002E-01
     -4.405  0.3280E-02  0.2038E-01
     -4.277  0.3299E-02  0.2084E-01
     -4.150  0.2947E-02  0.2123E-01
     -4.022  0.3334E-02  0.2163E-01
     -3.894  0.4052E-02  0.2209E-01
     -3.767  0.4619E-02  0.2269E-01
     -3.639  0.4021E-02  0.2324E-01
     -3.511  0.3759E-02  0.2373E-01
     -3.383  0.3719E-02  0.2421E-01
     -3.256  0.3742E-02  0.2468E-01
     -3.128  0.3840E-02  0.2517E-01
     -3.000  0.3880E-02  0.2566E-01
     -2.873  0.3367E-02  0.2612E-01
     -2.745  0.3183E-02  0.2654E-01
     -2.617  0.3057E-02  0.2694E-01
     -2.489  0.2884E-02  0.2732E-01
     -2.362  0.2833E-02  0.2768E-01
     -2.234  0.2898E-02  0.2805E-01
     -2.106  0.2957E-02  0.2842E-01
     -1.979  0.3068E-02  0.2881E-01
     -1.851  0.3331E-02  0.2921E-01
     -1.723  0.3786E-02  0.2968E-01
     -1.595  0.4555E-02  0.3021E-01
     -1.468  0.3985E-02  0.3072E-01
     -1.340  0.4138E-02  0.3123E-01
     -1.212  0.4287E-02  0.3177E-01
     -1.085  0.4364E-02  0.3233E-01
     -0.957  0.4434E-02  0.3289E-01
     -0.829  0.4543E-02  0.3346E-01
     -0.701  0.4646E-02  0.3405E-01
     -0.574  0.4762E-02  0.3465E-01
     -0.446  0.4927E-02  0.3527E-01
     -0.318  0.4959E-02  0.3590E-01
     -0.191  0.4804E-02  0.3653E-01
     -0.063  0.4886E-02  0.3714E-01
      0.065  0.5163E-02  0.3778E-01
      0.193  0.5162E-02  0.3844E-01
      0.320  0.5093E-02  0.3910E-01
      0.448  0.5138E-02  0.3975E-01
      0.576  0.4839E-02  0.4038E-01
      0.703  0.4887E-02  0.4100E-01
      0.831  0.5111E-02  0.4164E-01
      0.959  0.5830E-02  0.4232E-01
      1.087  0.6452E-02  0.4312E-01
      1.214  0.6662E-02  0.4396E-01
      1.342  0.6397E-02  0.4481E-01
      1.470  0.6549E-02  0.4564E-01
      1.597  0.6713E-02  0.4649E-01
      1.725  0.7166E-02  0.4737E-01
      1.853  0.7095E-02  0.4829E-01
      1.981  0.7447E-02  0.4921E-01
      2.108  0.8143E-02  0.5023E-01
      2.236  0.7907E-02  0.5125E-01
      2.364  0.7997E-02  0.5226E-01
      2.491  0.8081E-02  0.5328E-01
      2.619  0.7990E-02  0.5432E-01
      2.747  0.6781E-02  0.5527E-01
      2.875  0.6256E-02  0.5607E-01
      3.002  0.6904E-02  0.5692E-01
      3.130  0.6532E-02  0.5778E-01
      3.258  0.6233E-02  0.5861E-01
      3.385  0.5921E-02  0.5938E-01
      3.513  0.5906E-02  0.6013E-01
      3.641  0.5969E-02  0.6091E-01
      3.769  0.5802E-02  0.6166E-01
      3.896  0.5665E-02  0.6240E-01
      4.024  0.5399E-02  0.6310E-01
      4.152  0.5368E-02  0.6379E-01
      4.279  0.5295E-02  0.6447E-01
      4.407  0.5168E-02  0.6514E-01
      4.535  0.4995E-02  0.6579E-01
      4.663  0.4768E-02  0.6641E-01
      4.790  0.4794E-02  0.6701E-01
      4.918  0.4898E-02  0.6763E-01
      5.046  0.4696E-02  0.6825E-01
      5.173  0.4490E-02  0.6883E-01
      5.301  0.4579E-02  0.6941E-01
      5.429  0.3950E-02  0.6996E-01
      5.557  0.3411E-02  0.7043E-01
      5.684  0.2908E-02  0.7084E-01
      5.812  0.2382E-02  0.7118E-01
      5.940  0.2209E-02  0.7147E-01
      6.067  0.2229E-02  0.7175E-01
      6.195  0.2374E-02  0.7204E-01
      6.323  0.2788E-02  0.7237E-01
      6.451  0.3019E-02  0.7274E-01
      6.578  0.3196E-02  0.7313E-01
      6.706  0.3428E-02  0.7356E-01
      6.834  0.3788E-02  0.7402E-01
      6.961  0.4362E-02  0.7453E-01
      7.089  0.4131E-02  0.7509E-01
      7.217  0.4016E-02  0.7561E-01
      7.345  0.3990E-02  0.7612E-01
      7.472  0.3923E-02  0.7664E-01
      7.600  0.3731E-02  0.7712E-01
      7.728  0.3749E-02  0.7760E-01
      7.855  0.3739E-02  0.7808E-01
      7.983  0.3593E-02  0.7855E-01
      8.111  0.3110E-02  0.7898E-01
      8.239  0.2286E-02  0.7932E-01
      8.366  0.1809E-02  0.7958E-01
      8.494  0.1372E-02  0.7978E-01
      8.622  0.1147E-02  0.7994E-01
      8.749  0.4031E-03  0.8006E-01
      8.877  0.7010E-03  0.8012E-01
      9.005  0.5661E-03  0.8019E-01
      9.133  0.6483E-03  0.8026E-01
      9.260  0.6643E-03  0.8035E-01
      9.388  0.7457E-03  0.8044E-01
      9.516  0.8302E-03  0.8054E-01
      9.643  0.9197E-03  0.8065E-01
      9.771  0.1017E-02  0.8077E-01
      9.899  0.1201E-02  0.8091E-01
     10.027  0.1480E-02  0.8109E-01
     10.154  0.1653E-02  0.8129E-01
     10.282  0.2035E-02  0.8151E-01
     10.410  0.3219E-02  0.8182E-01
     10.537  0.3358E-02  0.8227E-01
     10.665  0.3444E-02  0.8271E-01
     10.793  0.3786E-02  0.8316E-01
     10.921  0.3671E-02  0.8364E-01
     11.048  0.3577E-02  0.8410E-01
     11.176  0.3680E-02  0.8457E-01
     11.304  0.3892E-02  0.8505E-01
     11.431  0.3555E-02  0.8554E-01
     11.559  0.3186E-02  0.8596E-01
     11.687  0.3009E-02  0.8636E-01
     11.815  0.2883E-02  0.8673E-01
     11.942  0.2772E-02  0.8709E-01
     12.070  0.2684E-02  0.8744E-01
     12.198  0.2638E-02  0.8778E-01
     12.325  0.2603E-02  0.8812E-01
     12.453  0.2615E-02  0.8845E-01
     12.581  0.2805E-02  0.8879E-01
     12.709  0.3224E-02  0.8918E-01
     12.836  0.3434E-02  0.8961E-01
     12.964  0.3391E-02  0.9005E-01
     13.092  0.2794E-02  0.9044E-01
     13.219  0.2631E-02  0.9078E-01
     13.347  0.2487E-02  0.9111E-01
     13.475  0.2368E-02  0.9142E-01
     13.603  0.2315E-02  0.9172E-01
     13.730  0.2277E-02  0.9201E-01
     13.858  0.2240E-02  0.9230E-01
     13.986  0.2200E-02  0.9258E-01
     14.113  0.2145E-02  0.9286E-01
     14.241  0.2100E-02  0.9313E-01
     14.369  0.2158E-02  0.9340E-01
     14.497  0.2415E-02  0.9369E-01
     14.624  0.2678E-02  0.9402E-01
     14.752  0.2916E-02  0.9438E-01
     14.880  0.3024E-02  0.9476E-01
     15.007  0.3158E-02  0.9515E-01
     15.135  0.3251E-02  0.9556E-01
     15.263  0.3321E-02  0.9598E-01
     15.391  0.3432E-02  0.9641E-01
     15.518  0.3598E-02  0.9686E-01
     15.646  0.3779E-02  0.9733E-01
     15.774  0.3906E-02  0.9782E-01
     15.901  0.3991E-02  0.9833E-01
     16.029  0.4131E-02  0.9884E-01
     16.157  0.4354E-02  0.9938E-01
     16.285  0.4615E-02  0.9996E-01
     16.412  0.5315E-02  0.1006E+00
     16.540  0.5718E-02  0.1013E+00
     16.668  0.5151E-02  0.1021E+00
     16.795  0.5033E-02  0.1027E+00
     16.923  0.5330E-02  0.1034E+00
     17.051  0.5643E-02  0.1041E+00
     17.179  0.4683E-02  0.1047E+00
     17.306  0.5473E-02  0.1054E+00
     17.434  0.6157E-02  0.1061E+00
     17.562  0.7601E-02  0.1070E+00
     17.689  0.6910E-02  0.1079E+00
     17.817  0.6622E-02  0.1088E+00
     17.945  0.6387E-02  0.1096E+00
     18.073  0.6032E-02  0.1104E+00
     18.200  0.5678E-02  0.1111E+00
     18.328  0.5849E-02  0.1119E+00
     18.456  0.6302E-02  0.1127E+00
     18.583  0.6027E-02  0.1134E+00
     18.711  0.5405E-02  0.1142E+00
     18.839  0.4616E-02  0.1148E+00
     18.967  0.3620E-02  0.1153E+00
     19.094  0.2916E-02  0.1158E+00
     19.222  0.2736E-02  0.1161E+00
     19.350  0.2757E-02  0.1165E+00
     19.477  0.2940E-02  0.1168E+00
     19.605  0.3411E-02  0.1172E+00
     19.733  0.3387E-02  0.1177E+00
     19.861  0.2615E-02  0.1181E+00
     19.988  0.2053E-02  0.1183E+00
     20.116  0.1729E-02  0.1186E+00
     20.244  0.1656E-02  0.1188E+00
     20.371  0.1674E-02  0.1190E+00
     20.499  0.1185E-02  0.1192E+00
     20.627  0.1251E-02  0.1193E+00
     20.755  0.7384E-03  0.1195E+00
     20.882  0.6344E-03  0.1196E+00
     21.010  0.5572E-03  0.1196E+00
     21.138  0.4864E-03  0.1197E+00
     21.265  0.4220E-03  0.1198E+00
     21.393  0.3638E-03  0.1198E+00
     21.521  0.4404E-03  0.1199E+00
     21.649  0.4839E-03  0.1199E+00
     21.776  0.4044E-03  0.1200E+00
     21.904  0.6745E-05  0.1200E+00
     22.032  0.0000E+00  0.1200E+00
     22.159  0.0000E+00  0.1200E+00
     22.287  0.0000E+00  0.1200E+00
     22.415  0.0000E+00  0.1200E+00
     22.543  0.0000E+00  0.1200E+00
     22.670  0.0000E+00  0.1200E+00
     22.798  0.0000E+00  0.1200E+00
     22.926  0.0000E+00  0.1200E+00
     23.053  0.0000E+00  0.1200E+00
     23.181  0.0000E+00  0.1200E+00
     23.309  0.0000E+00  0.1200E+00
     23.437  0.0000E+00  0.1200E+00
     23.564  0.0000E+00  0.1200E+00
     23.692  0.0000E+00  0.1200E+00
     23.820  0.0000E+00  0.1200E+00
     23.947  0.0000E+00  0.1200E+00
