mesh: [     9,     9,     4 ]
nqpoint: 50     
natom:   4      
reciprocal_lattice:
- [   0.40532700,   0.23401531,   0.00000000 ] # a*
- [  -0.00000030,   0.46803114,   0.00000000 ] # b*
- [   0.00000000,   0.00000000,   0.21398131 ] # c*
phonon:
- q-position: [    0.0000000,    0.0000000,    0.1250000 ]
  weight: 2    
  band:
  - # 1
    frequency:   -33.4787808723
  - # 2
    frequency:   -33.4779874058
  - # 3
    frequency:   -28.4236621487
  - # 4
    frequency:   -28.4233345307
  - # 5
    frequency:     1.5242769114
  - # 6
    frequency:     1.5245344333
  - # 7
    frequency:     1.9125520477
  - # 8
    frequency:     1.9137757232
  - # 9
    frequency:     3.5348059186
  - # 10
    frequency:    15.1201805709
  - # 11
    frequency:    18.1837081166
  - # 12
    frequency:    19.1322243180

- q-position: [    0.1111111,    0.0000000,    0.1250000 ]
  weight: 8    
  band:
  - # 1
    frequency:   -32.1154692111
  - # 2
    frequency:   -32.0216874928
  - # 3
    frequency:   -27.3173503869
  - # 4
    frequency:   -27.1968179267
  - # 5
    frequency:    -0.7900999007
  - # 6
    frequency:     5.5412147424
  - # 7
    frequency:     6.0034211467
  - # 8
    frequency:     6.2438809510
  - # 9
    frequency:     6.3217280946
  - # 10
    frequency:    15.3143523275
  - # 11
    frequency:    18.1189722064
  - # 12
    frequency:    18.9977632193

- q-position: [    0.2222222,    0.0000000,    0.1250000 ]
  weight: 8    
  band:
  - # 1
    frequency:   -28.2950956187
  - # 2
    frequency:   -27.8209650036
  - # 3
    frequency:   -24.1501246649
  - # 4
    frequency:   -23.7413475769
  - # 5
    frequency:     3.6050071625
  - # 6
    frequency:     8.9217011625
  - # 7
    frequency:     9.5950555807
  - # 8
    frequency:    10.9008568696
  - # 9
    frequency:    11.1934696044
  - # 10
    frequency:    15.7831240440
  - # 11
    frequency:    17.9448665611
  - # 12
    frequency:    18.6005198122

- q-position: [    0.3333333,    0.0000000,    0.1250000 ]
  weight: 8    
  band:
  - # 1
    frequency:   -22.9504119616
  - # 2
    frequency:   -21.3485534482
  - # 3
    frequency:   -19.3432759413
  - # 4
    frequency:   -18.8506690891
  - # 5
    frequency:     3.1245707342
  - # 6
    frequency:    10.6211740985
  - # 7
    frequency:    12.0802215888
  - # 8
    frequency:    14.2971898251
  - # 9
    frequency:    14.5490837512
  - # 10
    frequency:    16.2741178199
  - # 11
    frequency:    17.6263311142
  - # 12
    frequency:    18.0321909448

- q-position: [    0.4444444,    0.0000000,    0.1250000 ]
  weight: 8    
  band:
  - # 1
    frequency:   -18.3375221361
  - # 2
    frequency:   -14.5454903609
  - # 3
    frequency:   -13.9525644827
  - # 4
    frequency:   -13.0869901136
  - # 5
    frequency:    -6.5984128662
  - # 6
    frequency:     7.6811988580
  - # 7
    frequency:    14.3374736733
  - # 8
    frequency:    15.8944013838
  - # 9
    frequency:    16.0061176560
  - # 10
    frequency:    16.5099158266
  - # 11
    frequency:    16.8513522916
  - # 12
    frequency:    17.7718330125

- q-position: [    0.1111111,    0.1111111,    0.1250000 ]
  weight: 4    
  band:
  - # 1
    frequency:   -29.4456166110
  - # 2
    frequency:   -29.2859254409
  - # 3
    frequency:   -25.0191858118
  - # 4
    frequency:   -24.9709280341
  - # 5
    frequency:     4.6687264101
  - # 6
    frequency:     7.5053867699
  - # 7
    frequency:     7.9973012857
  - # 8
    frequency:     9.6923626030
  - # 9
    frequency:    10.4756707206
  - # 10
    frequency:    15.6478859054
  - # 11
    frequency:    18.0620046008
  - # 12
    frequency:    18.6946229124

- q-position: [    0.2222222,    0.1111111,    0.1250000 ]
  weight: 8    
  band:
  - # 1
    frequency:   -24.7867624206
  - # 2
    frequency:   -24.0319590737
  - # 3
    frequency:   -20.9500201478
  - # 4
    frequency:   -20.6951550343
  - # 5
    frequency:     5.1806050775
  - # 6
    frequency:    10.3739968989
  - # 7
    frequency:    10.9734269289
  - # 8
    frequency:    12.8380204900
  - # 9
    frequency:    13.9690401268
  - # 10
    frequency:    16.1152061593
  - # 11
    frequency:    17.8907178874
  - # 12
    frequency:    18.1722414838

- q-position: [    0.3333333,    0.1111111,    0.1250000 ]
  weight: 8    
  band:
  - # 1
    frequency:   -19.5200202406
  - # 2
    frequency:   -16.9427620577
  - # 3
    frequency:   -15.9408528522
  - # 4
    frequency:   -15.1696128009
  - # 5
    frequency:     0.7810821076
  - # 6
    frequency:    10.4260040997
  - # 7
    frequency:    13.5198951614
  - # 8
    frequency:    14.7206485078
  - # 9
    frequency:    15.9233607731
  - # 10
    frequency:    16.4780249226
  - # 11
    frequency:    17.3012585525
  - # 12
    frequency:    17.8004720589

- q-position: [    0.4444444,    0.1111111,    0.1250000 ]
  weight: 8    
  band:
  - # 1
    frequency:   -16.7988449910
  - # 2
    frequency:   -13.7384754388
  - # 3
    frequency:   -11.1745670291
  - # 4
    frequency:    -8.7623273654
  - # 5
    frequency:    -6.8738097415
  - # 6
    frequency:     5.9749204779
  - # 7
    frequency:    14.9434173565
  - # 8
    frequency:    15.1947272666
  - # 9
    frequency:    16.4463264506
  - # 10
    frequency:    16.4997944951
  - # 11
    frequency:    16.7216730062
  - # 12
    frequency:    17.6901745541

- q-position: [   -0.4444444,    0.1111111,    0.1250000 ]
  weight: 8    
  band:
  - # 1
    frequency:   -19.5407435723
  - # 2
    frequency:   -17.0318792579
  - # 3
    frequency:   -15.6246469589
  - # 4
    frequency:   -15.3904705409
  - # 5
    frequency:     4.0733026767
  - # 6
    frequency:     9.7342109352
  - # 7
    frequency:    13.6357571552
  - # 8
    frequency:    14.5574021121
  - # 9
    frequency:    16.0216967167
  - # 10
    frequency:    16.4888955475
  - # 11
    frequency:    17.2202504196
  - # 12
    frequency:    17.7858233139

- q-position: [   -0.3333333,    0.1111111,    0.1250000 ]
  weight: 8    
  band:
  - # 1
    frequency:   -24.8718482159
  - # 2
    frequency:   -23.7537284336
  - # 3
    frequency:   -21.3742621737
  - # 4
    frequency:   -20.5444789414
  - # 5
    frequency:     6.0271069891
  - # 6
    frequency:    10.1695826229
  - # 7
    frequency:    11.1451551734
  - # 8
    frequency:    12.4730677209
  - # 9
    frequency:    14.1869501935
  - # 10
    frequency:    16.1077451944
  - # 11
    frequency:    17.6602572628
  - # 12
    frequency:    18.3116850644

- q-position: [   -0.2222222,    0.1111111,    0.1250000 ]
  weight: 8    
  band:
  - # 1
    frequency:   -29.5250734594
  - # 2
    frequency:   -29.1702578728
  - # 3
    frequency:   -25.2473982134
  - # 4
    frequency:   -24.8315327891
  - # 5
    frequency:     4.6127470630
  - # 6
    frequency:     7.7114575588
  - # 7
    frequency:     8.1572268533
  - # 8
    frequency:     8.7616475725
  - # 9
    frequency:    11.2521745547
  - # 10
    frequency:    15.6338456140
  - # 11
    frequency:    17.8850028106
  - # 12
    frequency:    18.8100732677

- q-position: [   -0.1111111,    0.1111111,    0.1250000 ]
  weight: 4    
  band:
  - # 1
    frequency:   -32.1140532761
  - # 2
    frequency:   -32.0260875834
  - # 3
    frequency:   -27.3217226546
  - # 4
    frequency:   -27.2068889777
  - # 5
    frequency:     3.2025480323
  - # 6
    frequency:     3.5350528435
  - # 7
    frequency:     5.0227039010
  - # 8
    frequency:     5.7054208475
  - # 9
    frequency:     8.1489745115
  - # 10
    frequency:    15.3075303887
  - # 11
    frequency:    18.0528886200
  - # 12
    frequency:    19.0424383025

- q-position: [    0.2222222,    0.2222222,    0.1250000 ]
  weight: 4    
  band:
  - # 1
    frequency:   -19.9267870117
  - # 2
    frequency:   -18.1317368877
  - # 3
    frequency:   -16.6225558073
  - # 4
    frequency:   -15.6164667369
  - # 5
    frequency:     5.7877886422
  - # 6
    frequency:    10.9463217871
  - # 7
    frequency:    13.1582781957
  - # 8
    frequency:    14.3238104459
  - # 9
    frequency:    15.5752683216
  - # 10
    frequency:    16.4430993176
  - # 11
    frequency:    17.5693075930
  - # 12
    frequency:    17.7531976582

- q-position: [    0.3333333,    0.2222222,    0.1250000 ]
  weight: 8    
  band:
  - # 1
    frequency:   -15.5575145005
  - # 2
    frequency:   -13.6342253861
  - # 3
    frequency:   -10.2299662714
  - # 4
    frequency:    -9.1173090559
  - # 5
    frequency:     4.7141959747
  - # 6
    frequency:     9.5942554154
  - # 7
    frequency:    14.3288927900
  - # 8
    frequency:    14.9141484574
  - # 9
    frequency:    15.8502001521
  - # 10
    frequency:    16.6196453476
  - # 11
    frequency:    16.8719400021
  - # 12
    frequency:    17.5627162140

- q-position: [   -0.5555556,    0.2222222,    0.1250000 ]
  weight: 8    
  band:
  - # 1
    frequency:   -15.4911981192
  - # 2
    frequency:   -14.3497367512
  - # 3
    frequency:   -10.1165306184
  - # 4
    frequency:    -7.0536168705
  - # 5
    frequency:     5.5884595033
  - # 6
    frequency:     8.4299463017
  - # 7
    frequency:    13.9090063021
  - # 8
    frequency:    15.0170568857
  - # 9
    frequency:    16.0272871177
  - # 10
    frequency:    16.6343569078
  - # 11
    frequency:    16.8784401447
  - # 12
    frequency:    17.4674721227

- q-position: [   -0.4444444,    0.2222222,    0.1250000 ]
  weight: 8    
  band:
  - # 1
    frequency:   -19.8169657859
  - # 2
    frequency:   -18.3692459462
  - # 3
    frequency:   -16.6493583027
  - # 4
    frequency:   -15.5072724864
  - # 5
    frequency:     8.4132976024
  - # 6
    frequency:     9.6719715162
  - # 7
    frequency:    13.3136889305
  - # 8
    frequency:    13.6197076053
  - # 9
    frequency:    15.9298686943
  - # 10
    frequency:    16.4450901608
  - # 11
    frequency:    17.3408492929
  - # 12
    frequency:    17.8383866429

- q-position: [   -0.3333333,    0.2222222,    0.1250000 ]
  weight: 8    
  band:
  - # 1
    frequency:   -24.6821564994
  - # 2
    frequency:   -23.9721755290
  - # 3
    frequency:   -21.5127664284
  - # 4
    frequency:   -20.4400234810
  - # 5
    frequency:     7.6748532095
  - # 6
    frequency:     9.0315212248
  - # 7
    frequency:    11.1829546493
  - # 8
    frequency:    11.8431903930
  - # 9
    frequency:    14.8008641869
  - # 10
    frequency:    16.0958271217
  - # 11
    frequency:    17.5232515542
  - # 12
    frequency:    18.4154326986

- q-position: [   -0.2222222,    0.2222222,    0.1250000 ]
  weight: 4    
  band:
  - # 1
    frequency:   -28.1909896185
  - # 2
    frequency:   -27.9123359458
  - # 3
    frequency:   -24.2725187909
  - # 4
    frequency:   -23.7124004969
  - # 5
    frequency:     6.2475746007
  - # 6
    frequency:     8.0063442695
  - # 7
    frequency:     8.9838175223
  - # 8
    frequency:     9.1707131371
  - # 9
    frequency:    12.9359737691
  - # 10
    frequency:    15.7637118369
  - # 11
    frequency:    17.7259683543
  - # 12
    frequency:    18.7515400151

- q-position: [    0.3333333,    0.3333333,    0.1250000 ]
  weight: 4    
  band:
  - # 1
    frequency:   -13.6744014578
  - # 2
    frequency:   -12.7220616331
  - # 3
    frequency:    -3.6126573615
  - # 4
    frequency:    -2.9573889318
  - # 5
    frequency:     8.0261820187
  - # 6
    frequency:     8.2250401724
  - # 7
    frequency:    13.8723234821
  - # 8
    frequency:    14.4720190316
  - # 9
    frequency:    15.6082682496
  - # 10
    frequency:    16.6790149512
  - # 11
    frequency:    16.7887188394
  - # 12
    frequency:    17.2258300263

- q-position: [   -0.5555556,    0.3333333,    0.1250000 ]
  weight: 8    
  band:
  - # 1
    frequency:   -15.9365056344
  - # 2
    frequency:   -13.7809197928
  - # 3
    frequency:    -9.6888769686
  - # 4
    frequency:    -7.9285275334
  - # 5
    frequency:     6.5481693853
  - # 6
    frequency:     7.8310565487
  - # 7
    frequency:    14.3870788409
  - # 8
    frequency:    14.9977188768
  - # 9
    frequency:    15.6212198643
  - # 10
    frequency:    16.6247850191
  - # 11
    frequency:    17.0211511429
  - # 12
    frequency:    17.3547377694

- q-position: [   -0.4444444,    0.3333333,    0.1250000 ]
  weight: 8    
  band:
  - # 1
    frequency:   -19.0647563201
  - # 2
    frequency:   -17.8562376429
  - # 3
    frequency:   -16.2797256064
  - # 4
    frequency:   -14.4593392452
  - # 5
    frequency:     6.1168959617
  - # 6
    frequency:     8.6021019846
  - # 7
    frequency:    13.6822878569
  - # 8
    frequency:    14.4335935278
  - # 9
    frequency:    16.2360562793
  - # 10
    frequency:    16.4737165431
  - # 11
    frequency:    17.0835777963
  - # 12
    frequency:    17.8966343056

- q-position: [   -0.3333333,    0.3333333,    0.1250000 ]
  weight: 4    
  band:
  - # 1
    frequency:   -22.1884065748
  - # 2
    frequency:   -22.1530494966
  - # 3
    frequency:   -19.9301777620
  - # 4
    frequency:   -18.3874189884
  - # 5
    frequency:     6.5100865655
  - # 6
    frequency:     8.9876651108
  - # 7
    frequency:    12.2273010180
  - # 8
    frequency:    13.1750740155
  - # 9
    frequency:    15.7596125076
  - # 10
    frequency:    16.2517902685
  - # 11
    frequency:    17.2960618852
  - # 12
    frequency:    18.2680320628

- q-position: [   -0.5555556,    0.4444444,    0.1250000 ]
  weight: 4    
  band:
  - # 1
    frequency:   -17.0158913299
  - # 2
    frequency:   -13.4206495948
  - # 3
    frequency:   -10.9394038949
  - # 4
    frequency:    -8.7588464161
  - # 5
    frequency:    -7.0934545372
  - # 6
    frequency:     5.7258598527
  - # 7
    frequency:    14.9314309733
  - # 8
    frequency:    15.8121039416
  - # 9
    frequency:    15.8861842372
  - # 10
    frequency:    16.4799903983
  - # 11
    frequency:    16.7577778946
  - # 12
    frequency:    17.6367916623

- q-position: [   -0.4444444,    0.4444444,    0.1250000 ]
  weight: 4    
  band:
  - # 1
    frequency:   -18.1061161351
  - # 2
    frequency:   -14.8915767664
  - # 3
    frequency:   -14.8406643696
  - # 4
    frequency:   -12.1915469925
  - # 5
    frequency:    -5.1443851978
  - # 6
    frequency:     6.6927446138
  - # 7
    frequency:    14.3916009685
  - # 8
    frequency:    15.5467017519
  - # 9
    frequency:    16.3968591118
  - # 10
    frequency:    16.4840500946
  - # 11
    frequency:    16.7824260250
  - # 12
    frequency:    17.8172250914

- q-position: [    0.0000000,    0.0000000,    0.3750000 ]
  weight: 2    
  band:
  - # 1
    frequency:   -33.1446787658
  - # 2
    frequency:   -33.1438696541
  - # 3
    frequency:   -31.1270393380
  - # 4
    frequency:   -31.1264080822
  - # 5
    frequency:     2.8719145908
  - # 6
    frequency:     2.8727430454
  - # 7
    frequency:     2.9565138582
  - # 8
    frequency:     2.9575839068
  - # 9
    frequency:     9.7169390249
  - # 10
    frequency:    13.6795411789
  - # 11
    frequency:    18.6549646102
  - # 12
    frequency:    19.1274078342

- q-position: [    0.1111111,    0.0000000,    0.3750000 ]
  weight: 8    
  band:
  - # 1
    frequency:   -31.7406595595
  - # 2
    frequency:   -31.7214533435
  - # 3
    frequency:   -29.8407107628
  - # 4
    frequency:   -29.7754814978
  - # 5
    frequency:     3.9079546017
  - # 6
    frequency:     5.6416075588
  - # 7
    frequency:     6.5488253423
  - # 8
    frequency:     6.6507437550
  - # 9
    frequency:    10.3508447008
  - # 10
    frequency:    13.9400651413
  - # 11
    frequency:    18.5273355873
  - # 12
    frequency:    18.9665534178

- q-position: [    0.2222222,    0.0000000,    0.3750000 ]
  weight: 8    
  band:
  - # 1
    frequency:   -27.7906118519
  - # 2
    frequency:   -27.6331885825
  - # 3
    frequency:   -26.1575231951
  - # 4
    frequency:   -25.9640635859
  - # 5
    frequency:     6.0826600179
  - # 6
    frequency:     8.3333089093
  - # 7
    frequency:    11.2517077405
  - # 8
    frequency:    11.3741814821
  - # 9
    frequency:    11.8822943782
  - # 10
    frequency:    14.5901489952
  - # 11
    frequency:    18.1842753544
  - # 12
    frequency:    18.5180332896

- q-position: [    0.3333333,    0.0000000,    0.3750000 ]
  weight: 8    
  band:
  - # 1
    frequency:   -22.1994451818
  - # 2
    frequency:   -21.3765527086
  - # 3
    frequency:   -20.5566206314
  - # 4
    frequency:   -20.5374343195
  - # 5
    frequency:     6.0610275894
  - # 6
    frequency:     8.9244630952
  - # 7
    frequency:    13.5905123923
  - # 8
    frequency:    14.5346913218
  - # 9
    frequency:    14.6346382215
  - # 10
    frequency:    15.3332581916
  - # 11
    frequency:    17.6969563472
  - # 12
    frequency:    17.9015806856

- q-position: [    0.4444444,    0.0000000,    0.3750000 ]
  weight: 8    
  band:
  - # 1
    frequency:   -17.2455601002
  - # 2
    frequency:   -15.6762747429
  - # 3
    frequency:   -13.9032098643
  - # 4
    frequency:   -13.5300423253
  - # 5
    frequency:    -5.0931095836
  - # 6
    frequency:     4.1356264687
  - # 7
    frequency:    14.9244783203
  - # 8
    frequency:    15.8515912827
  - # 9
    frequency:    15.9723703896
  - # 10
    frequency:    16.0209990985
  - # 11
    frequency:    17.0429473003
  - # 12
    frequency:    17.4706711865

- q-position: [    0.1111111,    0.1111111,    0.3750000 ]
  weight: 4    
  band:
  - # 1
    frequency:   -29.0405032055
  - # 2
    frequency:   -28.9929402842
  - # 3
    frequency:   -27.2849817221
  - # 4
    frequency:   -27.2454904848
  - # 5
    frequency:     6.2232985289
  - # 6
    frequency:     7.4417757392
  - # 7
    frequency:     9.9059597808
  - # 8
    frequency:    10.3272366283
  - # 9
    frequency:    11.4023346191
  - # 10
    frequency:    14.3984279261
  - # 11
    frequency:    18.3126556383
  - # 12
    frequency:    18.6465005927

- q-position: [    0.2222222,    0.1111111,    0.3750000 ]
  weight: 8    
  band:
  - # 1
    frequency:   -24.2303007100
  - # 2
    frequency:   -23.8224049663
  - # 3
    frequency:   -22.6626136481
  - # 4
    frequency:   -22.4886100581
  - # 5
    frequency:     7.2651076373
  - # 6
    frequency:     9.3945359923
  - # 7
    frequency:    12.9330800616
  - # 8
    frequency:    13.2165949836
  - # 9
    frequency:    13.7655346536
  - # 10
    frequency:    15.0841132640
  - # 11
    frequency:    17.9304015645
  - # 12
    frequency:    18.0995847163

- q-position: [    0.3333333,    0.1111111,    0.3750000 ]
  weight: 8    
  band:
  - # 1
    frequency:   -18.6651714834
  - # 2
    frequency:   -17.3277699216
  - # 3
    frequency:   -16.6649025599
  - # 4
    frequency:   -16.1160579171
  - # 5
    frequency:     5.1885872382
  - # 6
    frequency:     8.5361607629
  - # 7
    frequency:    14.4471057541
  - # 8
    frequency:    15.1325272648
  - # 9
    frequency:    15.6604900983
  - # 10
    frequency:    15.7003820953
  - # 11
    frequency:    17.3615532237
  - # 12
    frequency:    17.5847022783

- q-position: [    0.4444444,    0.1111111,    0.3750000 ]
  weight: 8    
  band:
  - # 1
    frequency:   -15.7080668356
  - # 2
    frequency:   -14.3718932457
  - # 3
    frequency:   -10.2687988057
  - # 4
    frequency:    -9.1969864023
  - # 5
    frequency:    -6.8002923097
  - # 6
    frequency:    -3.0241968373
  - # 7
    frequency:    15.2387367515
  - # 8
    frequency:    15.6024875291
  - # 9
    frequency:    15.9450306910
  - # 10
    frequency:    16.1663389898
  - # 11
    frequency:    16.8928440148
  - # 12
    frequency:    17.3751841400

- q-position: [   -0.4444444,    0.1111111,    0.3750000 ]
  weight: 8    
  band:
  - # 1
    frequency:   -18.6601574623
  - # 2
    frequency:   -17.4037993700
  - # 3
    frequency:   -16.4427342911
  - # 4
    frequency:   -16.2622824726
  - # 5
    frequency:     5.7783209111
  - # 6
    frequency:     8.1146329494
  - # 7
    frequency:    14.4778039731
  - # 8
    frequency:    15.1108407579
  - # 9
    frequency:    15.5787315139
  - # 10
    frequency:    15.8038520007
  - # 11
    frequency:    17.3397364134
  - # 12
    frequency:    17.5898559143

- q-position: [   -0.3333333,    0.1111111,    0.3750000 ]
  weight: 8    
  band:
  - # 1
    frequency:   -24.2530015008
  - # 2
    frequency:   -23.7116605976
  - # 3
    frequency:   -22.7857272500
  - # 4
    frequency:   -22.4620324427
  - # 5
    frequency:     7.4865642328
  - # 6
    frequency:     9.1891608328
  - # 7
    frequency:    12.9113028940
  - # 8
    frequency:    13.2417047495
  - # 9
    frequency:    13.8159269826
  - # 10
    frequency:    15.0747724909
  - # 11
    frequency:    17.8535199488
  - # 12
    frequency:    18.1628703241

- q-position: [   -0.2222222,    0.1111111,    0.3750000 ]
  weight: 8    
  band:
  - # 1
    frequency:   -29.0779430180
  - # 2
    frequency:   -28.9360934978
  - # 3
    frequency:   -27.3544027421
  - # 4
    frequency:   -27.2016191875
  - # 5
    frequency:     6.2050262677
  - # 6
    frequency:     7.4229632588
  - # 7
    frequency:     9.5563867938
  - # 8
    frequency:    10.6500209650
  - # 9
    frequency:    11.4675278372
  - # 10
    frequency:    14.3832301168
  - # 11
    frequency:    18.2555950592
  - # 12
    frequency:    18.6955108839

- q-position: [   -0.1111111,    0.1111111,    0.3750000 ]
  weight: 4    
  band:
  - # 1
    frequency:   -31.7598117658
  - # 2
    frequency:   -31.7021861939
  - # 3
    frequency:   -29.8181960409
  - # 4
    frequency:   -29.8001823501
  - # 5
    frequency:     4.5464884429
  - # 6
    frequency:     5.1103547457
  - # 7
    frequency:     5.6467766586
  - # 8
    frequency:     7.4427517747
  - # 9
    frequency:    10.3762776868
  - # 10
    frequency:    13.9334815671
  - # 11
    frequency:    18.5063407849
  - # 12
    frequency:    18.9849255602

- q-position: [    0.2222222,    0.2222222,    0.3750000 ]
  weight: 4    
  band:
  - # 1
    frequency:   -19.2548062288
  - # 2
    frequency:   -18.1347799973
  - # 3
    frequency:   -17.5700419075
  - # 4
    frequency:   -16.8070779946
  - # 5
    frequency:     7.7281414936
  - # 6
    frequency:     9.9477949304
  - # 7
    frequency:    14.1990122542
  - # 8
    frequency:    14.5630739105
  - # 9
    frequency:    15.2252544636
  - # 10
    frequency:    15.6249678182
  - # 11
    frequency:    17.5441552191
  - # 12
    frequency:    17.6003086725

- q-position: [    0.3333333,    0.2222222,    0.3750000 ]
  weight: 8    
  band:
  - # 1
    frequency:   -14.7204804247
  - # 2
    frequency:   -13.8524962672
  - # 3
    frequency:    -9.8567763562
  - # 4
    frequency:    -9.4631457768
  - # 5
    frequency:     5.5066049201
  - # 6
    frequency:     7.9416333929
  - # 7
    frequency:    14.6981579320
  - # 8
    frequency:    15.1599751322
  - # 9
    frequency:    15.4606332590
  - # 10
    frequency:    15.9618894496
  - # 11
    frequency:    17.0209897531
  - # 12
    frequency:    17.3278529580

- q-position: [   -0.5555556,    0.2222222,    0.3750000 ]
  weight: 8    
  band:
  - # 1
    frequency:   -14.6392642957
  - # 2
    frequency:   -14.0698841684
  - # 3
    frequency:   -10.0551914326
  - # 4
    frequency:    -8.8451396560
  - # 5
    frequency:     6.0901919799
  - # 6
    frequency:     7.2812637732
  - # 7
    frequency:    14.5444167513
  - # 8
    frequency:    15.3124742948
  - # 9
    frequency:    15.4260373098
  - # 10
    frequency:    15.9953516593
  - # 11
    frequency:    17.0434786249
  - # 12
    frequency:    17.2893403009

- q-position: [   -0.4444444,    0.2222222,    0.3750000 ]
  weight: 8    
  band:
  - # 1
    frequency:   -19.1599752641
  - # 2
    frequency:   -18.3841323884
  - # 3
    frequency:   -17.3600843592
  - # 4
    frequency:   -16.8599330804
  - # 5
    frequency:     8.6243147774
  - # 6
    frequency:     9.1768766726
  - # 7
    frequency:    14.1246690054
  - # 8
    frequency:    14.5547147077
  - # 9
    frequency:    15.2710019680
  - # 10
    frequency:    15.6815520663
  - # 11
    frequency:    17.4501416824
  - # 12
    frequency:    17.6687815165

- q-position: [   -0.3333333,    0.2222222,    0.3750000 ]
  weight: 8    
  band:
  - # 1
    frequency:   -24.1733950807
  - # 2
    frequency:   -23.7977983755
  - # 3
    frequency:   -22.8442245102
  - # 4
    frequency:   -22.4059746079
  - # 5
    frequency:     8.0749693421
  - # 6
    frequency:     8.6650299203
  - # 7
    frequency:    12.7632641533
  - # 8
    frequency:    13.1311307380
  - # 9
    frequency:    14.0922693166
  - # 10
    frequency:    15.0652892376
  - # 11
    frequency:    17.8042021747
  - # 12
    frequency:    18.2072081459

- q-position: [   -0.2222222,    0.2222222,    0.3750000 ]
  weight: 4    
  band:
  - # 1
    frequency:   -27.7862136675
  - # 2
    frequency:   -27.6263619221
  - # 3
    frequency:   -26.1497253601
  - # 4
    frequency:   -25.9933510698
  - # 5
    frequency:     6.8966311195
  - # 6
    frequency:     7.6131263707
  - # 7
    frequency:    10.4925144566
  - # 8
    frequency:    11.9420526858
  - # 9
    frequency:    12.1095651399
  - # 10
    frequency:    14.5717328319
  - # 11
    frequency:    18.1109899517
  - # 12
    frequency:    18.5822519659

- q-position: [    0.3333333,    0.3333333,    0.3750000 ]
  weight: 4    
  band:
  - # 1
    frequency:   -12.6945213098
  - # 2
    frequency:   -12.2620686202
  - # 3
    frequency:    -3.1168310264
  - # 4
    frequency:    -3.1044689785
  - # 5
    frequency:     7.2903328436
  - # 6
    frequency:     7.4926626200
  - # 7
    frequency:    13.8932262234
  - # 8
    frequency:    14.1588226373
  - # 9
    frequency:    15.6007066239
  - # 10
    frequency:    16.0525867961
  - # 11
    frequency:    16.9594345935
  - # 12
    frequency:    17.1398203249

- q-position: [   -0.5555556,    0.3333333,    0.3750000 ]
  weight: 8    
  band:
  - # 1
    frequency:   -14.8566601759
  - # 2
    frequency:   -13.8173224215
  - # 3
    frequency:    -9.8463701437
  - # 4
    frequency:    -9.1437305153
  - # 5
    frequency:     6.4713141244
  - # 6
    frequency:     6.9965122375
  - # 7
    frequency:    14.6992166390
  - # 8
    frequency:    15.1590592943
  - # 9
    frequency:    15.4117501598
  - # 10
    frequency:    16.0050985151
  - # 11
    frequency:    17.0965926243
  - # 12
    frequency:    17.2398895160

- q-position: [   -0.4444444,    0.3333333,    0.3750000 ]
  weight: 8    
  band:
  - # 1
    frequency:   -18.4395806940
  - # 2
    frequency:   -17.6937417537
  - # 3
    frequency:   -16.8123877474
  - # 4
    frequency:   -15.8350428275
  - # 5
    frequency:     6.4853368142
  - # 6
    frequency:     7.5547426540
  - # 7
    frequency:    14.4906910732
  - # 8
    frequency:    15.0319871256
  - # 9
    frequency:    15.6229251099
  - # 10
    frequency:    15.8481494253
  - # 11
    frequency:    17.2829485449
  - # 12
    frequency:    17.6409763827

- q-position: [   -0.3333333,    0.3333333,    0.3750000 ]
  weight: 4    
  band:
  - # 1
    frequency:   -21.8487528440
  - # 2
    frequency:   -21.7241727858
  - # 3
    frequency:   -20.9334224569
  - # 4
    frequency:   -20.1870640967
  - # 5
    frequency:     7.0637435989
  - # 6
    frequency:     8.1071454734
  - # 7
    frequency:    13.6554112713
  - # 8
    frequency:    14.0470259341
  - # 9
    frequency:    15.1367170869
  - # 10
    frequency:    15.3098903000
  - # 11
    frequency:    17.5765014861
  - # 12
    frequency:    18.0066569443

- q-position: [   -0.5555556,    0.4444444,    0.3750000 ]
  weight: 4    
  band:
  - # 1
    frequency:   -15.8094891875
  - # 2
    frequency:   -14.2526642415
  - # 3
    frequency:   -10.1610338648
  - # 4
    frequency:    -9.2731065468
  - # 5
    frequency:    -6.8009083223
  - # 6
    frequency:    -3.1667791006
  - # 7
    frequency:    15.2183272185
  - # 8
    frequency:    15.7579532141
  - # 9
    frequency:    15.9142448988
  - # 10
    frequency:    16.0578465727
  - # 11
    frequency:    16.9177294411
  - # 12
    frequency:    17.3514630415

- q-position: [   -0.4444444,    0.4444444,    0.3750000 ]
  weight: 4    
  band:
  - # 1
    frequency:   -17.1351079490
  - # 2
    frequency:   -15.8082817509
  - # 3
    frequency:   -14.2798551370
  - # 4
    frequency:   -13.1491026734
  - # 5
    frequency:    -4.3241336219
  - # 6
    frequency:     3.1877255365
  - # 7
    frequency:    14.9426003473
  - # 8
    frequency:    15.8214489897
  - # 9
    frequency:    15.8488597002
  - # 10
    frequency:    16.1772443992
  - # 11
    frequency:    17.0115613456
  - # 12
    frequency:    17.4934489505

