       N       E                     dE             d eps       ncg     rms          rms(c)
DAV:   1     0.394375221984E+02    0.39438E+02   -0.95235E+03 10960   0.144E+03
DAV:   2    -0.341002149741E+02   -0.73538E+02   -0.67296E+02 15088   0.234E+02
DAV:   3    -0.368709881133E+02   -0.27708E+01   -0.27441E+01 13804   0.437E+01
DAV:   4    -0.368954651764E+02   -0.24477E-01   -0.24464E-01 13080   0.464E+00
DAV:   5    -0.368958549577E+02   -0.38978E-03   -0.39021E-03 13580   0.543E-01    0.778E+00
DAV:   6    -0.354064648710E+02    0.14894E+01   -0.12854E+00 11832   0.879E+00    0.408E+00
DAV:   7    -0.349354367619E+02    0.47103E+00   -0.12346E+00 12256   0.877E+00    0.575E-01
DAV:   8    -0.349378607718E+02   -0.24240E-02   -0.14891E-02 13496   0.106E+00    0.231E-01
DAV:   9    -0.349382987757E+02   -0.43800E-03   -0.83737E-04 12844   0.314E-01    0.238E-02
DAV:  10    -0.349383130488E+02   -0.14273E-04   -0.20715E-05 13560   0.431E-02    0.854E-03
DAV:  11    -0.349383194748E+02   -0.64260E-05   -0.59169E-06 12588   0.262E-02    0.837E-04
DAV:  12    -0.349383192766E+02    0.19820E-06   -0.40241E-08  7584   0.203E-03
   1 F= -.35752314E+02 E0= -.35752314E+02  d E =-.357523E+02
