# Thermal properties / unit cell (natom)

unit:
  temperature:   K
  free_energy:   kJ/mol
  entropy:       J/K/mol
  heat_capacity: J/K/mol

natom:     4
num_modes: 3888
num_integrated_modes: 2524

zero_point_energy:      20.6528422
high_T_entropy:        193.1203850

thermal_properties:
- temperature:         0.0000000
  free_energy:        20.6528422
  entropy:             0.0000000
  heat_capacity:       0.0000000
  energy:             20.6528422

- temperature:        10.0000000
  free_energy:        20.6527925
  entropy:             0.0241338
  heat_capacity:       0.0758681
  energy:             20.6530339

- temperature:        20.0000000
  free_energy:        20.6520732
  entropy:             0.1270234
  heat_capacity:       0.2462353
  energy:             20.6546137

- temperature:        30.0000000
  free_energy:        20.6501038
  entropy:             0.2768692
  heat_capacity:       0.5499688
  energy:             20.6584099

- temperature:        40.0000000
  free_energy:        20.6462685
  entropy:             0.5066029
  heat_capacity:       1.1259702
  energy:             20.6665326

- temperature:        50.0000000
  free_energy:        20.6395997
  entropy:             0.8473010
  heat_capacity:       2.0099960
  energy:             20.6819647

- temperature:        60.0000000
  free_energy:        20.6289071
  entropy:             1.3121473
  heat_capacity:       3.1647047
  energy:             20.7076359

- temperature:        70.0000000
  free_energy:        20.6129442
  entropy:             1.9005799
  heat_capacity:       4.5379253
  energy:             20.7459848

- temperature:        80.0000000
  free_energy:        20.5905047
  entropy:             2.6062485
  heat_capacity:       6.0947331
  energy:             20.7990045

- temperature:        90.0000000
  free_energy:        20.5604525
  entropy:             3.4219368
  heat_capacity:       7.8158535
  energy:             20.8684269

- temperature:       100.0000000
  free_energy:        20.5217215
  entropy:             4.3409487
  heat_capacity:       9.6852093
  energy:             20.9558164

- temperature:       110.0000000
  free_energy:        20.4733108
  entropy:             5.3567658
  heat_capacity:      11.6815252
  energy:             21.0625551

- temperature:       120.0000000
  free_energy:        20.4142867
  entropy:             6.4624166
  heat_capacity:      13.7766133
  energy:             21.1897767

- temperature:       130.0000000
  free_energy:        20.3437888
  entropy:             7.6501444
  heat_capacity:      15.9377503
  energy:             21.3383076

- temperature:       140.0000000
  free_energy:        20.2610385
  entropy:             8.9114340
  heat_capacity:      18.1312488
  energy:             21.5086393

- temperature:       150.0000000
  free_energy:        20.1653450
  entropy:            10.2372650
  heat_capacity:      20.3255353
  energy:             21.7009347

- temperature:       160.0000000
  free_energy:        20.0561087
  entropy:            11.6184485
  heat_capacity:      22.4931418
  energy:             21.9150605

- temperature:       170.0000000
  free_energy:        19.9328217
  entropy:            13.0459506
  heat_capacity:      24.6116351
  energy:             22.1506333

- temperature:       180.0000000
  free_energy:        19.7950641
  entropy:            14.5111515
  heat_capacity:      26.6637505
  energy:             22.4070714

- temperature:       190.0000000
  free_energy:        19.6424998
  entropy:            16.0060275
  heat_capacity:      28.6370251
  energy:             22.6836450

- temperature:       200.0000000
  free_energy:        19.4748691
  entropy:            17.5232598
  heat_capacity:      30.5231727
  energy:             22.9795211

- temperature:       210.0000000
  free_energy:        19.2919821
  entropy:            19.0562839
  heat_capacity:      32.3173686
  energy:             23.2938017

- temperature:       220.0000000
  free_energy:        19.0937103
  entropy:            20.5992936
  heat_capacity:      34.0175473
  energy:             23.6255548

- temperature:       230.0000000
  free_energy:        18.8799799
  entropy:            22.1472146
  heat_capacity:      35.6237668
  energy:             23.9738392

- temperature:       240.0000000
  free_energy:        18.6507643
  entropy:            23.6956584
  heat_capacity:      37.1376658
  energy:             24.3377223

- temperature:       250.0000000
  free_energy:        18.4060776
  entropy:            25.2408656
  heat_capacity:      38.5620144
  energy:             24.7162940

- temperature:       260.0000000
  free_energy:        18.1459685
  entropy:            26.7796438
  heat_capacity:      39.9003558
  energy:             25.1086759

- temperature:       270.0000000
  free_energy:        17.8705151
  entropy:            28.3093062
  heat_capacity:      41.1567254
  energy:             25.5140278

- temperature:       280.0000000
  free_energy:        17.5798202
  entropy:            29.8276116
  heat_capacity:      42.3354355
  energy:             25.9315515

- temperature:       290.0000000
  free_energy:        17.2740070
  entropy:            31.3327085
  heat_capacity:      43.4409154
  energy:             26.3604924

- temperature:       300.0000000
  free_energy:        16.9532152
  entropy:            32.8230843
  heat_capacity:      44.4775925
  energy:             26.8001405

- temperature:       310.0000000
  free_energy:        16.6175984
  entropy:            34.2975193
  heat_capacity:      45.4498088
  energy:             27.2498294

- temperature:       320.0000000
  free_energy:        16.2673212
  entropy:            35.7550457
  heat_capacity:      46.3617629
  energy:             27.7089358

- temperature:       330.0000000
  free_energy:        15.9025564
  entropy:            37.1949115
  heat_capacity:      47.2174713
  energy:             28.1768772

- temperature:       340.0000000
  free_energy:        15.5234837
  entropy:            38.6165492
  heat_capacity:      48.0207455
  energy:             28.6531105

- temperature:       350.0000000
  free_energy:        15.1302876
  entropy:            40.0195479
  heat_capacity:      48.7751797
  energy:             29.1371293

- temperature:       360.0000000
  free_energy:        14.7231558
  entropy:            41.4036297
  heat_capacity:      49.4841467
  energy:             29.6284625

- temperature:       370.0000000
  free_energy:        14.3022786
  entropy:            42.7686288
  heat_capacity:      50.1507994
  energy:             30.1266713

- temperature:       380.0000000
  free_energy:        13.8678471
  entropy:            44.1144741
  heat_capacity:      50.7780765
  energy:             30.6313473

- temperature:       390.0000000
  free_energy:        13.4200529
  entropy:            45.4411736
  heat_capacity:      51.3687107
  energy:             31.1421107

- temperature:       400.0000000
  free_energy:        12.9590872
  entropy:            46.7488015
  heat_capacity:      51.9252386
  energy:             31.6586078

- temperature:       410.0000000
  free_energy:        12.4851401
  entropy:            48.0374867
  heat_capacity:      52.4500121
  energy:             32.1805096

- temperature:       420.0000000
  free_energy:        11.9984001
  entropy:            49.3074034
  heat_capacity:      52.9452092
  energy:             32.7075095

- temperature:       430.0000000
  free_energy:        11.4990539
  entropy:            50.5587630
  heat_capacity:      53.4128458
  energy:             33.2393219

- temperature:       440.0000000
  free_energy:        10.9872859
  entropy:            51.7918067
  heat_capacity:      53.8547870
  energy:             33.7756808

- temperature:       450.0000000
  free_energy:        10.4632779
  entropy:            53.0067998
  heat_capacity:      54.2727580
  energy:             34.3163378

- temperature:       460.0000000
  free_energy:         9.9272091
  entropy:            54.2040267
  heat_capacity:      54.6683544
  energy:             34.8610614

- temperature:       470.0000000
  free_energy:         9.3792556
  entropy:            55.3837865
  heat_capacity:      55.0430520
  energy:             35.4096352

- temperature:       480.0000000
  free_energy:         8.8195905
  entropy:            56.5463891
  heat_capacity:      55.3982164
  energy:             35.9618573

- temperature:       490.0000000
  free_energy:         8.2483839
  entropy:            57.6921525
  heat_capacity:      55.7351113
  energy:             36.5175387

- temperature:       500.0000000
  free_energy:         7.6658025
  entropy:            58.8214000
  heat_capacity:      56.0549064
  energy:             37.0765025

- temperature:       510.0000000
  free_energy:         7.0720099
  entropy:            59.9344579
  heat_capacity:      56.3586853
  energy:             37.6385834

- temperature:       520.0000000
  free_energy:         6.4671663
  entropy:            61.0316538
  heat_capacity:      56.6474522
  energy:             38.2036262

- temperature:       530.0000000
  free_energy:         5.8514286
  entropy:            62.1133150
  heat_capacity:      56.9221378
  energy:             38.7714855

- temperature:       540.0000000
  free_energy:         5.2249507
  entropy:            63.1797672
  heat_capacity:      57.1836059
  energy:             39.3420249

- temperature:       550.0000000
  free_energy:         4.5878829
  entropy:            64.2313334
  heat_capacity:      57.4326581
  energy:             39.9151163

- temperature:       560.0000000
  free_energy:         3.9403725
  entropy:            65.2683333
  heat_capacity:      57.6700390
  energy:             40.4906392

- temperature:       570.0000000
  free_energy:         3.2825637
  entropy:            66.2910820
  heat_capacity:      57.8964406
  energy:             41.0684805

- temperature:       580.0000000
  free_energy:         2.6145974
  entropy:            67.2998900
  heat_capacity:      58.1125067
  energy:             41.6485336

- temperature:       590.0000000
  free_energy:         1.9366114
  entropy:            68.2950623
  heat_capacity:      58.3188362
  energy:             42.2306981

- temperature:       600.0000000
  free_energy:         1.2487406
  entropy:            69.2768985
  heat_capacity:      58.5159872
  energy:             42.8148797

- temperature:       610.0000000
  free_energy:         0.5511169
  entropy:            70.2456921
  heat_capacity:      58.7044795
  energy:             43.4009890

- temperature:       620.0000000
  free_energy:        -0.1561308
  entropy:            71.2017303
  heat_capacity:      58.8847982
  energy:             43.9889420

- temperature:       630.0000000
  free_energy:        -0.8728762
  entropy:            72.1452943
  heat_capacity:      59.0573959
  energy:             44.5786593

- temperature:       640.0000000
  free_energy:        -1.5989960
  entropy:            73.0766588
  heat_capacity:      59.2226952
  energy:             45.1700656

- temperature:       650.0000000
  free_energy:        -2.3343696
  entropy:            73.9960919
  heat_capacity:      59.3810911
  energy:             45.7630902

- temperature:       660.0000000
  free_energy:        -3.0788789
  entropy:            74.9038554
  heat_capacity:      59.5329532
  energy:             46.3576657

- temperature:       670.0000000
  free_energy:        -3.8324086
  entropy:            75.8002048
  heat_capacity:      59.6786271
  energy:             46.9537286

- temperature:       680.0000000
  free_energy:        -4.5948458
  entropy:            76.6853889
  heat_capacity:      59.8184368
  energy:             47.5512187

- temperature:       690.0000000
  free_energy:        -5.3660800
  entropy:            77.5596504
  heat_capacity:      59.9526855
  energy:             48.1500788

- temperature:       700.0000000
  free_energy:        -6.1460032
  entropy:            78.4232257
  heat_capacity:      60.0816580
  energy:             48.7502548

- temperature:       710.0000000
  free_energy:        -6.9345097
  entropy:            79.2763449
  heat_capacity:      60.2056212
  energy:             49.3516953

- temperature:       720.0000000
  free_energy:        -7.7314960
  entropy:            80.1192324
  heat_capacity:      60.3248258
  energy:             49.9543514

- temperature:       730.0000000
  free_energy:        -8.5368609
  entropy:            80.9521063
  heat_capacity:      60.4395076
  energy:             50.5581767

- temperature:       740.0000000
  free_energy:        -9.3505054
  entropy:            81.7751792
  heat_capacity:      60.5498879
  energy:             51.1631272

- temperature:       750.0000000
  free_energy:       -10.1723325
  entropy:            82.5886578
  heat_capacity:      60.6561752
  energy:             51.7691608

- temperature:       760.0000000
  free_energy:       -11.0022473
  entropy:            83.3927434
  heat_capacity:      60.7585657
  energy:             52.3762377

- temperature:       770.0000000
  free_energy:       -11.8401567
  entropy:            84.1876318
  heat_capacity:      60.8572442
  energy:             52.9843198

- temperature:       780.0000000
  free_energy:       -12.6859699
  entropy:            84.9735137
  heat_capacity:      60.9523849
  energy:             53.5933708

- temperature:       790.0000000
  free_energy:       -13.5395976
  entropy:            85.7505745
  heat_capacity:      61.0441521
  energy:             54.2033562

- temperature:       800.0000000
  free_energy:       -14.4009526
  entropy:            86.5189946
  heat_capacity:      61.1327008
  energy:             54.8142431

- temperature:       810.0000000
  free_energy:       -15.2699493
  entropy:            87.2789497
  heat_capacity:      61.2181774
  energy:             55.4260000

- temperature:       820.0000000
  free_energy:       -16.1465039
  entropy:            88.0306107
  heat_capacity:      61.3007201
  energy:             56.0385969

- temperature:       830.0000000
  free_energy:       -17.0305344
  entropy:            88.7741439
  heat_capacity:      61.3804598
  energy:             56.6520051

- temperature:       840.0000000
  free_energy:       -17.9219603
  entropy:            89.5097112
  heat_capacity:      61.4575199
  energy:             57.2661971

- temperature:       850.0000000
  free_energy:       -18.8207026
  entropy:            90.2374700
  heat_capacity:      61.5320176
  energy:             57.8811469

- temperature:       860.0000000
  free_energy:       -19.7266841
  entropy:            90.9575738
  heat_capacity:      61.6040637
  energy:             58.4968293

- temperature:       870.0000000
  free_energy:       -20.6398291
  entropy:            91.6701717
  heat_capacity:      61.6737630
  energy:             59.1132204

- temperature:       880.0000000
  free_energy:       -21.5600630
  entropy:            92.3754092
  heat_capacity:      61.7412151
  energy:             59.7302971

- temperature:       890.0000000
  free_energy:       -22.4873132
  entropy:            93.0734277
  heat_capacity:      61.8065142
  energy:             60.3480375

- temperature:       900.0000000
  free_energy:       -23.4215080
  entropy:            93.7643650
  heat_capacity:      61.8697499
  energy:             60.9664205

- temperature:       910.0000000
  free_energy:       -24.3625773
  entropy:            94.4483552
  heat_capacity:      61.9310072
  energy:             61.5854259

- temperature:       920.0000000
  free_energy:       -25.3104524
  entropy:            95.1255290
  heat_capacity:      61.9903667
  energy:             62.2050343

- temperature:       930.0000000
  free_energy:       -26.2650656
  entropy:            95.7960137
  heat_capacity:      62.0479051
  energy:             62.8252272

- temperature:       940.0000000
  free_energy:       -27.2263508
  entropy:            96.4599333
  heat_capacity:      62.1036952
  energy:             63.4459866

- temperature:       950.0000000
  free_energy:       -28.1942428
  entropy:            97.1174087
  heat_capacity:      62.1578065
  energy:             64.0672955

- temperature:       960.0000000
  free_energy:       -29.1686778
  entropy:            97.7685575
  heat_capacity:      62.2103048
  energy:             64.6891373

- temperature:       970.0000000
  free_energy:       -30.1495932
  entropy:            98.4134945
  heat_capacity:      62.2612529
  energy:             65.3114964

- temperature:       980.0000000
  free_energy:       -31.1369274
  entropy:            99.0523315
  heat_capacity:      62.3107106
  energy:             65.9343574

- temperature:       990.0000000
  free_energy:       -32.1306199
  entropy:            99.6851775
  heat_capacity:      62.3587350
  energy:             66.5577058

- temperature:      1000.0000000
  free_energy:       -33.1306113
  entropy:           100.3121389
  heat_capacity:      62.4053803
  energy:             67.1815275
