   32   32    1    1
  0.8468675E+01  0.4932875E-09  0.4932875E-09  0.1286560E-08  0.5000000E-15
  1.000000000000000E-004
  CAR 
 graphite                                
    128     76     84
 
  0.0000000E+00  0.0000000E+00  0.0000000E+00  0.6944444E-02
    1      -14.626737
    2      -14.429834
    3      -14.429127
    4      -14.214009
    5       -9.277179
    6       -9.267229
    7       -9.264086
    8       -9.190560
    9       -9.188848
   10       -9.178596
   11       -9.177137
   12       -9.177114
   13       -9.172944
   14       -9.122936
   15       -9.109394
   16       -9.107013
   17       -8.179198
   18       -8.177599
   19       -8.176777
   20       -8.141015
   21       -8.140022
   22       -8.137844
   23       -8.137447
   24       -8.137431
   25       -8.134698
   26       -8.062814
   27       -8.061821
   28       -8.059201
   29       -3.637618
   30       -2.556694
   31       -2.554554
   32       -1.355537
   33       -1.353106
   34       -1.337476
   35       -1.314933
   36       -1.313922
   37       -1.313911
   38       -1.309737
   39       -1.297180
   40       -1.295225
   41       -1.272788
   42       -1.269963
   43       -1.254709
   44       -1.216626
   45        2.050585
   46        2.059314
   47        2.063439
   48        2.068783
   49        2.074504
   50        2.079543
   51        2.083761
   52        2.092253
   53        2.168992
   54        2.171522
   55        2.173257
   56        2.692552
   57        2.695281
   58        2.702451
   59        2.702847
   60        2.702975
   61        2.707037
   62        3.005094
   63        3.025718
   64        3.027264
   65        6.597618
   66        6.599701
   67        6.608209
   68        6.698468
   69        6.701928
   70        6.704172
   71        6.706346
   72        6.706844
   73        6.710970
   74        7.364518
   75        7.371263
   76        7.374713
   77        9.750437
   78       12.187163
   79       12.191219
   80       12.222790
   81       12.444846
   82       12.448307
   83       12.449315
   84       12.471854
 
  0.1666667E+00  0.0000000E+00  0.0000000E+00  0.1388889E-01
    1      -14.460594
    2      -14.265479
    3      -14.264782
    4      -14.051798
    5      -10.593821
    6      -10.441924
    7      -10.441323
    8      -10.279534
    9       -9.717108
   10       -9.709884
   11       -9.582673
   12       -9.581948
   13       -9.574930
   14       -9.573894
   15       -9.441831
   16       -9.433622
   17       -7.584265
   18       -7.578557
   19       -7.478088
   20       -7.475871
   21       -7.471090
   22       -7.470140
   23       -7.358898
   24       -7.352563
   25       -6.742216
   26       -6.631399
   27       -6.629924
   28       -6.512514
   29       -3.435857
   30       -2.361276
   31       -2.359144
   32       -1.849917
   33       -1.833193
   34       -1.800024
   35       -1.799815
   36       -1.784008
   37       -1.782103
   38       -1.748654
   39       -1.731943
   40       -1.190710
   41       -1.151572
   42       -1.148490
   43       -1.108938
   44       -1.030455
   45        1.047025
   46        1.395280
   47        1.419031
   48        1.423529
   49        1.446903
   50        1.709299
   51        1.728698
   52        1.733804
   53        1.753917
   54        1.855545
   55        1.857929
   56        1.926537
   57        1.930584
   58        2.584921
   59        2.587602
   60        2.593689
   61        2.594642
   62        2.725785
   63        3.150391
   64        3.165826
   65        6.727922
   66        6.732186
   67        6.981260
   68        6.985038
   69        6.986921
   70        6.991352
   71        7.344025
   72        7.643408
   73        7.649941
   74        7.804511
   75        7.808833
   76        8.555146
   77        9.945977
   78       12.283091
   79       12.534009
   80       12.535618
   81       12.790995
   82       12.874479
   83       12.879253
   84       12.922452
 
  0.3333333E+00  0.0000000E+00  0.0000000E+00  0.1388889E-01
    1      -13.963984
    2      -13.774177
    3      -13.773507
    4      -13.566914
    5      -12.009379
    6      -11.840542
    7      -11.839949
    8      -11.658299
    9      -10.143061
   10      -10.139369
   11       -9.996960
   12       -9.996307
   13       -9.993148
   14       -9.991832
   15       -9.840777
   16       -9.836849
   17       -6.409203
   18       -6.400230
   19       -6.308774
   20       -6.306506
   21       -6.299128
   22       -6.297883
   23       -6.200717
   24       -6.191910
   25       -4.620500
   26       -4.528057
   27       -4.526320
   28       -4.429919
   29       -3.011893
   30       -2.997884
   31       -2.948179
   32       -2.947751
   33       -2.934775
   34       -2.932754
   35       -2.880661
   36       -2.866541
   37       -2.834757
   38       -1.780432
   39       -1.778307
   40       -0.716079
   41       -0.678616
   42       -0.675301
   43       -0.637450
   44       -0.517365
   45       -0.478892
   46       -0.265852
   47       -0.220421
   48       -0.217060
   49       -0.171268
   50        0.433394
   51        0.435459
   52        0.906972
   53        0.935267
   54        0.939832
   55        0.968651
   56        1.570167
   57        1.604430
   58        1.607655
   59        2.396155
   60        2.398968
   61        2.402054
   62        2.403122
   63        3.255087
   64        3.262845
   65        7.166580
   66        7.169119
   67        7.559001
   68        7.561457
   69        7.563681
   70        7.567533
   71        8.089584
   72        8.092696
   73        9.460063
   74        9.944693
   75        9.948359
   76       10.533740
   77       10.588599
   78       12.504835
   79       12.772768
   80       12.774617
   81       12.787924
   82       13.156329
   83       13.160849
   84       13.218736
 
  0.5000000E+00  0.5551115E-16  0.0000000E+00  0.6944444E-02
    1      -13.144291
    2      -13.141412
    3      -12.964245
    4      -12.961620
    5      -12.961613
    6      -12.958381
    7      -12.766484
    8      -12.763528
    9      -10.292425
   10      -10.290647
   11      -10.143973
   12      -10.142572
   13      -10.142506
   14      -10.140300
   15       -9.984417
   16       -9.982586
   17       -5.484015
   18       -5.482095
   19       -5.427224
   20       -5.427218
   21       -5.426372
   22       -5.422140
   23       -5.374059
   24       -5.371643
   25       -3.886347
   26       -3.884735
   27       -3.853884
   28       -3.851155
   29       -3.850104
   30       -3.850100
   31       -3.805164
   32       -3.803873
   33       -2.392965
   34       -2.389549
   35       -2.325103
   36       -2.319598
   37       -2.319585
   38       -2.318869
   39       -2.249230
   40       -2.246335
   41       -1.850522
   42       -1.848155
   43       -0.833741
   44       -0.831279
   45       -0.831020
   46       -0.827421
   47        0.018545
   48        0.022548
   49        0.053781
   50        0.054939
   51        0.054961
   52        0.063401
   53        0.090563
   54        0.097165
   55        0.410927
   56        0.413645
   57        1.479353
   58        1.481482
   59        2.311940
   60        2.315442
   61        2.315835
   62        2.317269
   63        3.267308
   64        3.269753
   65        7.477170
   66        7.479837
   67        7.866259
   68        7.866458
   69        7.866518
   70        7.871641
   71        8.255979
   72        8.258597
   73       11.503711
   74       11.505024
   75       11.910229
   76       11.913575
   77       12.223354
   78       12.230173
   79       12.231475
   80       12.234452
   81       12.724504
   82       12.728252
   83       12.956598
   84       12.959494
 
  0.1355253E-19  0.1666667E+00  0.0000000E+00  0.1388889E-01
    1      -14.460590
    2      -14.265477
    3      -14.264775
    4      -14.051793
    5      -10.593837
    6      -10.441933
    7      -10.441360
    8      -10.279567
    9       -9.717202
   10       -9.709627
   11       -9.582893
   12       -9.581968
   13       -9.574915
   14       -9.573236
   15       -9.441879
   16       -9.433300
   17       -7.584637
   18       -7.579460
   19       -7.478115
   20       -7.477328
   21       -7.471195
   22       -7.470837
   23       -7.359219
   24       -7.353276
   25       -6.741256
   26       -6.630008
   27       -6.629447
   28       -6.511598
   29       -3.435867
   30       -2.361287
   31       -2.359158
   32       -1.848688
   33       -1.833142
   34       -1.799976
   35       -1.797262
   36       -1.784064
   37       -1.782102
   38       -1.747322
   39       -1.731966
   40       -1.191902
   41       -1.151582
   42       -1.151100
   43       -1.110396
   44       -1.030471
   45        1.046378
   46        1.398465
   47        1.423527
   48        1.423886
   49        1.448907
   50        1.707354
   51        1.728691
   52        1.728921
   53        1.750413
   54        1.855267
   55        1.856615
   56        1.926775
   57        1.931516
   58        2.585280
   59        2.587589
   60        2.593740
   61        2.596738
   62        2.724822
   63        3.150475
   64        3.166965
   65        6.726046
   66        6.732055
   67        6.980447
   68        6.983431
   69        6.986759
   70        6.989611
   71        7.345804
   72        7.642856
   73        7.648269
   74        7.806663
   75        7.809858
   76        8.556681
   77        9.945962
   78       12.282430
   79       12.533797
   80       12.534460
   81       12.790270
   82       12.874225
   83       12.878529
   84       12.923048
 
  0.1666667E+00  0.1666667E+00  0.0000000E+00  0.1388889E-01
    1      -14.128991
    2      -13.937404
    3      -13.936724
    4      -13.728026
    5      -11.218356
    6      -11.215334
    7      -11.059527
    8      -11.056826
    9      -11.056807
   10      -11.053387
   11      -10.886612
   12      -10.883514
   13       -8.850368
   14       -8.767078
   15       -8.765867
   16       -8.702189
   17       -7.771980
   18       -7.740186
   19       -7.736368
   20       -7.670638
   21       -5.629415
   22       -5.625842
   23       -5.530257
   24       -5.526325
   25       -5.526306
   26       -5.523169
   27       -5.422404
   28       -5.418865
   29       -3.185342
   30       -3.119046
   31       -3.117185
   32       -3.047920
   33       -3.034103
   34       -1.972769
   35       -1.970648
   36       -1.521028
   37       -1.518230
   38       -1.473652
   39       -1.472181
   40       -1.472170
   41       -1.467716
   42       -1.423675
   43       -1.420471
   44       -0.661222
   45        0.360199
   46        0.381811
   47        0.388657
   48        0.392531
   49        0.393854
   50        0.410001
   51        1.035034
   52        1.049688
   53        1.054826
   54        1.072759
   55        1.280733
   56        1.282878
   57        1.283043
   58        1.286490
   59        2.314603
   60        2.317113
   61        2.766597
   62        3.289535
   63        3.291912
   64        3.584022
   65        6.488736
   66        6.493714
   67        6.557940
   68        6.859650
   69        8.270721
   70        8.273281
   71        8.756294
   72        8.760577
   73        8.761239
   74        8.763297
   75        9.403750
   76        9.406632
   77       10.340162
   78       13.093960
   79       13.098383
   80       13.170814
   81       13.175164
   82       13.346466
   83       13.349663
   84       13.351706
 
  0.3333333E+00  0.1666667E+00  0.0000000E+00  0.1388889E-01
    1      -13.469883
    2      -13.285328
    3      -13.284690
    4      -13.084410
    5      -12.493855
    6      -12.319779
    7      -12.319153
    8      -12.131348
    9      -11.534910
   10      -11.371426
   11      -11.370733
   12      -11.195286
   13       -8.845101
   14       -8.721162
   15       -8.720742
   16       -8.592505
   17       -6.934944
   18       -6.852636
   19       -6.849506
   20       -6.762645
   21       -4.618217
   22       -4.555392
   23       -4.553387
   24       -4.481831
   25       -4.459248
   26       -4.386161
   27       -4.384244
   28       -4.310321
   29       -3.478899
   30       -3.401893
   31       -3.400199
   32       -3.320674
   33       -2.421188
   34       -2.372157
   35       -2.370778
   36       -2.316932
   37       -2.239808
   38       -1.378094
   39       -1.333782
   40       -1.330047
   41       -1.278421
   42       -1.202771
   43       -1.201131
   44       -1.078148
   45       -0.879034
   46       -0.837302
   47       -0.834326
   48       -0.791286
   49       -0.094960
   50       -0.093020
   51        0.022667
   52        0.047979
   53        0.052565
   54        0.058865
   55        0.062383
   56        0.089595
   57        0.975418
   58        0.977083
   59        1.096639
   60        2.077285
   61        3.040400
   62        3.697085
   63        3.699189
   64        4.275547
   65        6.086227
   66        6.348294
   67        6.352119
   68        6.776910
   69        9.088192
   70        9.475357
   71        9.477503
   72        9.888278
   73       10.571201
   74       10.966323
   75       10.969278
   76       11.128917
   77       11.453919
   78       12.287400
   79       12.857780
   80       13.065411
   81       13.071088
   82       13.439513
   83       13.461880
   84       13.463609
 
  0.5000000E+00  0.1666667E+00  0.0000000E+00  0.1388889E-01
    1      -13.471075
    2      -13.286529
    3      -13.285874
    4      -13.085597
    5      -12.492170
    6      -12.318090
    7      -12.317480
    8      -12.129670
    9      -11.536129
   10      -11.372654
   11      -11.371954
   12      -11.196518
   13       -8.842348
   14       -8.718042
   15       -8.717594
   16       -8.588844
   17       -6.930610
   18       -6.847153
   19       -6.845842
   20       -6.758059
   21       -4.626159
   22       -4.563034
   23       -4.562532
   24       -4.490586
   25       -4.468644
   26       -4.395831
   27       -4.392459
   28       -4.318693
   29       -3.482586
   30       -3.406007
   31       -3.403571
   32       -3.324452
   33       -2.410297
   34       -2.361668
   35       -2.358614
   36       -2.305287
   37       -2.241094
   38       -1.376020
   39       -1.330915
   40       -1.329113
   41       -1.276475
   42       -1.203939
   43       -1.202382
   44       -1.076423
   45       -0.875442
   46       -0.834157
   47       -0.830293
   48       -0.787688
   49       -0.093290
   50       -0.091284
   51        0.020601
   52        0.046358
   53        0.051342
   54        0.055727
   55        0.061223
   56        0.086816
   57        0.973982
   58        0.975685
   59        1.098260
   60        2.075374
   61        3.040939
   62        3.701178
   63        3.702128
   64        4.286364
   65        6.080893
   66        6.348892
   67        6.350990
   68        6.776066
   69        9.084318
   70        9.471983
   71        9.474837
   72        9.887749
   73       10.572157
   74       10.964839
   75       10.968380
   76       11.127145
   77       11.450699
   78       12.289805
   79       12.854480
   80       13.066341
   81       13.071688
   82       13.442318
   83       13.458060
   84       13.471736
 
 -0.3333333E+00  0.1666667E+00  0.0000000E+00  0.1388889E-01
    1      -14.129707
    2      -13.938121
    3      -13.937430
    4      -13.728733
    5      -11.220461
    6      -11.214670
    7      -11.060663
    8      -11.059989
    9      -11.054791
   10      -11.054220
   11      -10.888841
   12      -10.882990
   13       -8.840242
   14       -8.754968
   15       -8.754535
   16       -8.688742
   17       -7.773249
   18       -7.738767
   19       -7.738339
   20       -7.669998
   21       -5.637146
   22       -5.631678
   23       -5.537223
   24       -5.534734
   25       -5.531525
   26       -5.529834
   27       -5.430006
   28       -5.424924
   29       -3.198702
   30       -3.131761
   31       -3.131282
   32       -3.061346
   33       -3.034901
   34       -1.973555
   35       -1.971446
   36       -1.516323
   37       -1.503599
   38       -1.469804
   39       -1.466579
   40       -1.456711
   41       -1.454261
   42       -1.418919
   43       -1.406286
   44       -0.662021
   45        0.355400
   46        0.379098
   47        0.381033
   48        0.389217
   49        0.394582
   50        0.405544
   51        1.040711
   52        1.057190
   53        1.057470
   54        1.076558
   55        1.277853
   56        1.279531
   57        1.284443
   58        1.286654
   59        2.309600
   60        2.317844
   61        2.767457
   62        3.298646
   63        3.299089
   64        3.603785
   65        6.490252
   66        6.493003
   67        6.548845
   68        6.862376
   69        8.267553
   70        8.270967
   71        8.752538
   72        8.756221
   73        8.756633
   74        8.760020
   75        9.401147
   76        9.401980
   77       10.339043
   78       13.094215
   79       13.125823
   80       13.169724
   81       13.173897
   82       13.347725
   83       13.349565
   84       13.381332
 
 -0.1666667E+00  0.1666667E+00  0.0000000E+00  0.1388889E-01
    1      -14.460829
    2      -14.265716
    3      -14.265010
    4      -14.052027
    5      -10.600109
    6      -10.448316
    7      -10.447743
    8      -10.286078
    9       -9.708637
   10       -9.706516
   11       -9.574150
   12       -9.572566
   13       -9.572522
   14       -9.569810
   15       -9.432481
   16       -9.430307
   17       -7.582910
   18       -7.581014
   19       -7.476494
   20       -7.473911
   21       -7.473877
   22       -7.472736
   23       -7.357081
   24       -7.355249
   25       -6.748410
   26       -6.637999
   27       -6.635679
   28       -6.518657
   29       -3.436130
   30       -2.361548
   31       -2.359423
   32       -1.849456
   33       -1.847230
   34       -1.799839
   35       -1.799134
   36       -1.799120
   37       -1.795014
   38       -1.748362
   39       -1.745732
   40       -1.174895
   41       -1.135420
   42       -1.133145
   43       -1.093341
   44       -1.030742
   45        1.041255
   46        1.387559
   47        1.410906
   48        1.416111
   49        1.439823
   50        1.716734
   51        1.736704
   52        1.741428
   53        1.761002
   54        1.848339
   55        1.850047
   56        1.931363
   57        1.933413
   58        2.594078
   59        2.594804
   60        2.595021
   61        2.599006
   62        2.714423
   63        3.165597
   64        3.167634
   65        6.726394
   66        6.728877
   67        6.980784
   68        6.986600
   69        6.987010
   70        6.989033
   71        7.344025
   72        7.644430
   73        7.647527
   74        7.800495
   75        7.805181
   76        8.551702
   77        9.945573
   78       12.315220
   79       12.566321
   80       12.567515
   81       12.822951
   82       12.873647
   83       12.879936
   84       12.920002
 
  0.2710505E-19  0.3333333E+00  0.0000000E+00  0.1388889E-01
    1      -13.963967
    2      -13.774169
    3      -13.773481
    4      -13.566895
    5      -12.009343
    6      -11.840524
    7      -11.839893
    8      -11.658261
    9      -10.143400
   10      -10.139073
   11       -9.997758
   12       -9.996361
   13       -9.993136
   14       -9.990977
   15       -9.841062
   16       -9.836509
   17       -6.409736
   18       -6.401135
   19       -6.308804
   20       -6.308133
   21       -6.299199
   22       -6.298825
   23       -6.201212
   24       -6.192668
   25       -4.619424
   26       -4.526382
   27       -4.525879
   28       -4.428874
   29       -3.010648
   30       -2.997552
   31       -2.947787
   32       -2.945634
   33       -2.934137
   34       -2.932751
   35       -2.879326
   36       -2.866276
   37       -2.834800
   38       -1.780476
   39       -1.778370
   40       -0.717401
   41       -0.678628
   42       -0.678219
   43       -0.639099
   44       -0.517606
   45       -0.479001
   46       -0.263755
   47       -0.217068
   48       -0.216577
   49       -0.169492
   50        0.433189
   51        0.434978
   52        0.905198
   53        0.935258
   54        0.935655
   55        0.966053
   56        1.569671
   57        1.604507
   58        1.608562
   59        2.396491
   60        2.398898
   61        2.402065
   62        2.405056
   63        3.255342
   64        3.263921
   65        7.165208
   66        7.168129
   67        7.557447
   68        7.559789
   69        7.563724
   70        7.566280
   71        8.087828
   72        8.092392
   73        9.461328
   74        9.946078
   75        9.949093
   76       10.533717
   77       10.589596
   78       12.504154
   79       12.772686
   80       12.773125
   81       12.787322
   82       13.155403
   83       13.159401
   84       13.218322
 
  0.1666667E+00  0.3333333E+00  0.0000000E+00  0.1388889E-01
    1      -13.469868
    2      -13.285320
    3      -13.284666
    4      -13.084392
    5      -12.493820
    6      -12.319762
    7      -12.319094
    8      -12.131307
    9      -11.534956
   10      -11.371443
   11      -11.370810
   12      -11.195334
   13       -8.845033
   14       -8.721068
   15       -8.720686
   16       -8.592422
   17       -6.935329
   18       -6.852639
   19       -6.850409
   20       -6.763174
   21       -4.617753
   22       -4.554597
   23       -4.553382
   24       -4.481498
   25       -4.460661
   26       -4.387177
   27       -4.386142
   28       -4.311814
   29       -3.477486
   30       -3.400222
   31       -3.399054
   32       -3.319261
   33       -2.419485
   34       -2.370786
   35       -2.368751
   36       -2.315220
   37       -2.239845
   38       -1.376878
   39       -1.331905
   40       -1.330024
   41       -1.277590
   42       -1.202737
   43       -1.201168
   44       -1.078382
   45       -0.880634
   46       -0.837710
   47       -0.837288
   48       -0.793082
   49       -0.095164
   50       -0.093316
   51        0.021807
   52        0.047840
   53        0.052564
   54        0.056939
   55        0.062424
   56        0.087924
   57        0.975744
   58        0.977528
   59        1.096295
   60        2.077787
   61        3.040881
   62        3.698032
   63        3.699229
   64        4.275911
   65        6.085775
   66        6.348241
   67        6.350715
   68        6.776093
   69        9.086793
   70        9.474529
   71        9.475926
   72        9.887261
   73       10.572434
   74       10.967537
   75       10.970111
   76       11.128919
   77       11.454870
   78       12.287294
   79       12.858167
   80       13.065531
   81       13.071135
   82       13.440109
   83       13.460492
   84       13.489198
 
  0.3333333E+00  0.3333333E+00  0.0000000E+00  0.1388889E-01
    1      -12.658789
    2      -12.656054
    3      -12.653510
    4      -12.484414
    5      -12.481116
    6      -12.481097
    7      -12.479436
    8      -12.478226
    9      -12.475456
   10      -12.292400
   11      -12.289671
   12      -12.287064
   13       -7.633908
   14       -7.506933
   15       -7.505371
   16       -7.497620
   17       -7.495183
   18       -7.489682
   19       -7.487600
   20       -7.363739
   21       -5.454302
   22       -5.453894
   23       -5.445244
   24       -5.444084
   25       -2.705625
   26       -2.702392
   27       -2.700543
   28       -2.666882
   29       -2.661973
   30       -2.661957
   31       -2.661308
   32       -2.661128
   33       -2.655791
   34       -2.625522
   35       -2.622994
   36       -2.619283
   37       -1.338219
   38       -1.334158
   39       -1.331552
   40       -1.313799
   41       -1.309852
   42       -1.308123
   43       -1.307412
   44       -1.307393
   45       -1.301999
   46       -1.278265
   47       -1.276495
   48       -1.273555
   49       -1.268655
   50       -1.265012
   51       -1.264166
   52       -0.277387
   53       -0.273694
   54       -0.273437
   55       -0.272130
   56       -0.270978
   57       -0.267562
   58        0.932404
   59        0.934850
   60        0.937639
   61        4.250564
   62        5.011105
   63        5.021465
   64        5.040840
   65        5.041375
   66        5.070747
   67        5.071720
   68        5.968511
   69       11.108541
   70       11.111398
   71       11.116524
   72       11.410181
   73       11.414229
   74       11.414582
   75       11.415613
   76       11.416237
   77       11.418950
   78       11.732699
   79       11.738533
   80       11.741482
   81       12.112745
   82       12.114189
   83       12.118069
   84       14.547503
 
  0.5000000E+00  0.3333333E+00  0.0000000E+00  0.1388889E-01
    1      -13.471774
    2      -13.287238
    3      -13.286559
    4      -13.086291
    5      -12.495708
    6      -12.321672
    7      -12.320948
    8      -12.133191
    9      -11.531125
   10      -11.367586
   11      -11.367011
   12      -11.191508
   13       -8.834949
   14       -8.710792
   15       -8.710155
   16       -8.581653
   17       -6.938699
   18       -6.855702
   19       -6.855124
   20       -6.767796
   21       -4.624256
   22       -4.561659
   23       -4.560427
   24       -4.489009
   25       -4.467073
   26       -4.394551
   27       -4.392037
   28       -4.318680
   29       -3.489274
   30       -3.412742
   31       -3.409545
   32       -3.330430
   33       -2.415338
   34       -2.367570
   35       -2.363753
   36       -2.311148
   37       -2.241917
   38       -1.385018
   39       -1.339542
   40       -1.337098
   41       -1.284558
   42       -1.205028
   43       -1.203545
   44       -1.080385
   45       -0.865482
   46       -0.823747
   47       -0.820637
   48       -0.777691
   49       -0.097332
   50       -0.095485
   51        0.030173
   52        0.052081
   53        0.060264
   54        0.062998
   55        0.063587
   56        0.096645
   57        0.979323
   58        0.981356
   59        1.093779
   60        2.081369
   61        3.046402
   62        3.705858
   63        3.707318
   64        4.288001
   65        6.087377
   66        6.344883
   67        6.346589
   68        6.763358
   69        9.089754
   70        9.471910
   71        9.474536
   72        9.879633
   73       10.565339
   74       10.961603
   75       10.964686
   76       11.126203
   77       11.452666
   78       12.285316
   79       12.850291
   80       13.063433
   81       13.068921
   82       13.442423
   83       13.488182
   84       13.500589
 
 -0.3333333E+00  0.3333333E+00  0.0000000E+00  0.1388889E-01
    1      -13.964918
    2      -13.775124
    3      -13.774421
    4      -13.567838
    5      -12.013171
    6      -11.844390
    7      -11.843692
    8      -11.662100
    9      -10.135806
   10      -10.133958
   11       -9.989914
   12       -9.988410
   13       -9.988353
   14       -9.986113
   15       -9.833344
   16       -9.831445
   17       -6.408486
   18       -6.406500
   19       -6.308485
   20       -6.305618
   21       -6.305583
   22       -6.304555
   23       -6.200509
   24       -6.198594
   25       -4.629341
   26       -4.537129
   27       -4.534607
   28       -4.438409
   29       -3.009169
   30       -3.007315
   31       -2.945441
   32       -2.945351
   33       -2.945263
   34       -2.941305
   35       -2.878251
   36       -2.876049
   37       -2.835855
   38       -1.781528
   39       -1.779437
   40       -0.701380
   41       -0.663634
   42       -0.661033
   43       -0.622974
   44       -0.521565
   45       -0.480055
   46       -0.275567
   47       -0.230349
   48       -0.226082
   49       -0.180385
   50        0.428957
   51        0.430716
   52        0.917297
   53        0.945942
   54        0.949789
   55        0.978730
   56        1.564720
   57        1.610645
   58        1.612675
   59        2.404334
   60        2.405303
   61        2.405568
   62        2.409543
   63        3.264742
   64        3.267118
   65        7.167433
   66        7.170237
   67        7.556104
   68        7.561286
   69        7.561526
   70        7.562942
   71        8.082036
   72        8.084824
   73        9.454067
   74        9.939126
   75        9.942849
   76       10.532305
   77       10.586110
   78       12.527547
   79       12.801643
   80       12.803336
   81       12.803706
   82       13.161066
   83       13.165731
   84       13.236112
 
 -0.1666667E+00  0.3333333E+00  0.0000000E+00  0.1388889E-01
    1      -14.129695
    2      -13.938115
    3      -13.937411
    4      -13.728720
    5      -11.220885
    6      -11.214317
    7      -11.061495
    8      -11.060501
    9      -11.054683
   10      -11.052982
   11      -10.889210
   12      -10.882554
   13       -8.839466
   14       -8.754941
   15       -8.752978
   16       -8.687997
   17       -7.775025
   18       -7.741635
   19       -7.738749
   20       -7.671595
   21       -5.637710
   22       -5.630426
   23       -5.537242
   24       -5.536604
   25       -5.529866
   26       -5.528032
   27       -5.430538
   28       -5.423499
   29       -3.197656
   30       -3.131737
   31       -3.129097
   32       -3.060178
   33       -3.034933
   34       -1.973588
   35       -1.971488
   36       -1.517641
   37       -1.503410
   38       -1.469826
   39       -1.469478
   40       -1.455928
   41       -1.454261
   42       -1.420282
   43       -1.405987
   44       -0.662069
   45        0.357399
   46        0.381035
   47        0.382876
   48        0.389101
   49        0.394734