 vasp.5.3.5 31Mar14 (build Nov 02 2014 15:17:37) complex                        
  
 executed on        ion-Intel-MKL date 2016.10.19  20:17:11
 running on    6 total cores
 distrk:  each k-point on    6 cores,    1 groups
 distr:  one band on NCORES_PER_BAND=   1 cores,    6 groups


--------------------------------------------------------------------------------------------------------


 INCAR:
 POTCAR:   PAW_PBE C 08Apr2002                    

 ----------------------------------------------------------------------------- 
|                                                                             |
|           W    W    AA    RRRRR   N    N  II  N    N   GGGG   !!!           |
|           W    W   A  A   R    R  NN   N  II  NN   N  G    G  !!!           |
|           W    W  A    A  R    R  N N  N  II  N N  N  G       !!!           |
|           W WW W  AAAAAA  RRRRR   N  N N  II  N  N N  G  GGG   !            |
|           WW  WW  A    A  R   R   N   NN  II  N   NN  G    G                |
|           W    W  A    A  R    R  N    N  II  N    N   GGGG   !!!           |
|                                                                             |
|      For optimal performance we recommend to set                            |
|        NCORE= 4 - approx SQRT( number of cores)                             |
|      NCORE specifies how many cores store one orbital (NPAR=cpu/NCORE).     |
|      This setting can  greatly improve the performance of VASP for DFT.     |
|      The default, NPAR=number of cores might be grossly inefficient         |
|      on modern multi-core architectures or massively parallel machines.     |
|      Do your own testing !!!!                                               |
|      Unfortunately you need to use the default for GW and RPA calculations. |
|      (for HF NCORE is supported but not extensively tested yet)             |
|                                                                             |
 ----------------------------------------------------------------------------- 

 POTCAR:   PAW_PBE C 08Apr2002                    
   VRHFIN =C: s2p2                                                              
   LEXCH  = PE                                                                  
   EATOM  =   147.1560 eV,   10.8157 Ry                                         
                                                                                
   TITEL  = PAW_PBE C 08Apr2002                                                 
   LULTRA =        F    use ultrasoft PP ?                                      
   IUNSCR =        0    unscreen: 0-lin 1-nonlin 2-no                           
   RPACOR =     .000    partial core radius                                     
   POMASS =   12.011; ZVAL   =    4.000    mass and valenz                      
   RCORE  =    1.500    outmost cutoff radius                                   
   RWIGS  =    1.630; RWIGS  =     .863    wigner-seitz radius (au A)           
   ENMAX  =  400.000; ENMIN  =  300.000 eV                                      
   ICORE  =        2    local potential                                         
   LCOR   =        T    correct aug charges                                     
   LPAW   =        T    paw PP                                                  
   EAUG   =  644.873                                                            
   DEXC   =     .000                                                            
   RMAX   =    2.266    core radius for proj-oper                               
   RAUG   =    1.300    factor for augmentation sphere                          
   RDEP   =    1.501    radius for radial grids                                 
   RDEPT  =    1.300    core radius for aug-charge                              
   QCUT   =   -5.516; QGAM   =   11.032    optimization parameters              
                                                                                
   Description                                                                  
     l     E      TYP  RCUT    TYP  RCUT                                        
     0   .000     23  1.200                                                     
     0   .000     23  1.200                                                     
     1   .000     23  1.500                                                     
     1  2.500     23  1.500                                                     
     2   .000      7  1.500                                                     
  local pseudopotential read in
  atomic valenz-charges read in
  non local Contribution for L=           0  read in
    real space projection operators read in
  non local Contribution for L=           0  read in
    real space projection operators read in
  non local Contribution for L=           1  read in
    real space projection operators read in
  non local Contribution for L=           1  read in
    real space projection operators read in
    PAW grid and wavefunctions read in
 
   number of l-projection  operators is LMAX  =           4
   number of lm-projection operators is LMMAX =           8
 

 ----------------------------------------------------------------------------- 
|                                                                             |
|  ADVICE TO THIS USER RUNNING 'VASP/VAMP'   (HEAR YOUR MASTER'S VOICE ...):  |
|                                                                             |
|      You have a (more or less) 'large supercell' and for larger cells       |
|      it might be more efficient to use real space projection operators      |
|      So try LREAL= Auto  in the INCAR   file.                               |
|      Mind: If you want to do a very accurate calculations keep the          |
|      reciprocal projection scheme          (i.e. LREAL=.FALSE.)             |
|                                                                             |
 ----------------------------------------------------------------------------- 

 PAW_PBE C 08Apr2002                    :
 energy of atom  1       EATOM= -147.1560
 kinetic energy error for atom=    0.0016 (will be added to EATOM!!)
 
 
 POSCAR: C                                       
  positions in direct lattice
  No initial velocities read in
 exchange correlation table for  LEXCH =        8
   RHO(1)=    0.500       N(1)  =     2000
   RHO(2)=  100.500       N(2)  =     4000
 


--------------------------------------------------------------------------------------------------------


 ion  position               nearest neighbor table
   1  0.500  0.000  0.126-  20 1.42  18 1.42  19 1.43
   2  1.000  0.000  0.125-  17 1.42  20 1.42  19 1.42
   3  0.500  0.500  0.125-  20 1.42  17 1.42  18 1.42
   4  1.000  0.500  0.125-  19 1.42  18 1.42  17 1.42
   5  0.500  0.000  0.625-  22 1.42  23 1.42  24 1.42
   6  1.000  0.000  0.625-  21 1.42  24 1.42  23 1.42
   7  0.500  0.500  0.625-  24 1.42  21 1.42  22 1.42
   8  1.000  0.500  0.625-  23 1.42  22 1.42  21 1.42
   9  0.000  0.500  0.375-  27 1.42  26 1.42  28 1.42
  10  0.500  0.500  0.375-  28 1.42  25 1.42  27 1.42
  11  0.000  1.000  0.375-  25 1.42  28 1.42  26 1.42
  12  0.500  1.000  0.375-  26 1.42  27 1.42  25 1.42
  13  0.000  0.500  0.875-  31 1.42  30 1.42  32 1.42
  14  0.500  0.500  0.875-  32 1.42  29 1.42  31 1.42
  15  0.000  1.000  0.875-  29 1.42  32 1.42  30 1.42
  16  0.500  1.000  0.875-  30 1.42  31 1.42  29 1.42
  17  0.166  0.334  0.125-   2 1.42   3 1.42   4 1.42
  18  0.666  0.334  0.125-   4 1.42   1 1.42   3 1.42
  19  0.166  0.834  0.125-   4 1.42   2 1.42   1 1.43
  20  0.666  0.834  0.125-   1 1.42   3 1.42   2 1.42
  21  0.166  0.334  0.625-   6 1.42   7 1.42   8 1.42
  22  0.666  0.334  0.625-   5 1.42   8 1.42   7 1.42
  23  0.166  0.834  0.625-   8 1.42   5 1.42   6 1.42
  24  0.666  0.834  0.625-   7 1.42   6 1.42   5 1.42
  25  0.334  0.166  0.375-  11 1.42  10 1.42  12 1.42
  26  0.834  0.166  0.375-  12 1.42   9 1.42  11 1.42
  27  0.334  0.666  0.375-   9 1.42  12 1.42  10 1.42
  28  0.834  0.666  0.375-  10 1.42  11 1.42   9 1.42
  29  0.334  0.166  0.875-  15 1.42  14 1.42  16 1.42
  30  0.834  0.166  0.875-  16 1.42  13 1.42  15 1.42
  31  0.334  0.666  0.875-  13 1.42  16 1.42  14 1.42
  32  0.834  0.666  0.875-  14 1.42  15 1.42  13 1.42
 
  LATTYP: Found a base centered orthorhombic cell.
 ALAT       =     4.9295501972
 B/A-ratio  =     1.7336081796
 C/A-ratio  =     2.7444231105
  
  Lattice vectors:
  
 A1 = (   4.9328744980,  -0.0019192860,   0.0000000000)
 A2 = (  -2.4680993993,   4.2710349859,   0.0000000000)
 A3 = (   0.0000000000,   0.0000000000,  13.5287714854)


Analysis of symmetry for initial positions (statically):
=====================================================================
 Subroutine PRICEL returns:
 Original cell was already a primitive cell.
 

 Routine SETGRP: Setting up the symmetry group for a 
 base centered orthorhombic supercell.


 Subroutine GETGRP returns: Found  1 space group operations
 (whereof  1 operations were pure point group operations)
 out of a pool of  8 trial point group operations.


The static configuration has the point symmetry C_1 .


Analysis of symmetry for dynamics (positions and initial velocities):
=====================================================================
 Subroutine PRICEL returns:
 Original cell was already a primitive cell.
 

 Routine SETGRP: Setting up the symmetry group for a 
 base centered orthorhombic supercell.


 Subroutine GETGRP returns: Found  1 space group operations
 (whereof  1 operations were pure point group operations)
 out of a pool of  8 trial point group operations.


The dynamic configuration has the point symmetry C_1 .
 
 
 KPOINTS: B4C B11C-CBC                            

Automatic generation of k-mesh.
Space group operators:
 irot       det(A)        alpha          n_x          n_y          n_z        tau_x        tau_y        tau_z
    1     1.000000     0.000001     1.000000     0.000000     0.000000     0.000000     0.000000     0.000000
 
 Subroutine IBZKPT returns following result:
 ===========================================
 
 Found     76 irreducible k-points:
 
 Following reciprocal coordinates:
            Coordinates               Weight
  0.000000  0.000000  0.000000      1.000000
  0.166667 -0.000000  0.000000      2.000000
  0.333333  0.000000  0.000000      2.000000
  0.500000  0.000000  0.000000      1.000000
 -0.000000  0.166667  0.000000      2.000000
  0.166667  0.166667  0.000000      2.000000
  0.333333  0.166667  0.000000      2.000000
  0.500000  0.166667  0.000000      2.000000
 -0.333333  0.166667  0.000000      2.000000
 -0.166667  0.166667  0.000000      2.000000
  0.000000  0.333333  0.000000      2.000000
  0.166667  0.333333  0.000000      2.000000
  0.333333  0.333333  0.000000      2.000000
  0.500000  0.333333  0.000000      2.000000
 -0.333333  0.333333  0.000000      2.000000
 -0.166667  0.333333  0.000000      2.000000
  0.000000  0.500000  0.000000      1.000000
  0.166667  0.500000  0.000000      2.000000
  0.333333  0.500000  0.000000      2.000000
  0.500000  0.500000  0.000000      1.000000
  0.000000  0.000000  0.250000      2.000000
  0.166667 -0.000000  0.250000      2.000000
  0.333333  0.000000  0.250000      2.000000
  0.500000  0.000000  0.250000      2.000000
 -0.333333  0.000000  0.250000      2.000000
 -0.166667  0.000000  0.250000      2.000000
 -0.000000  0.166667  0.250000      2.000000
  0.166667  0.166667  0.250000      2.000000
  0.333333  0.166667  0.250000      2.000000
  0.500000  0.166667  0.250000      2.000000
 -0.333333  0.166667  0.250000      2.000000
 -0.166667  0.166667  0.250000      2.000000
  0.000000  0.333333  0.250000      2.000000
  0.166667  0.333333  0.250000      2.000000
  0.333333  0.333333  0.250000      2.000000
  0.500000  0.333333  0.250000      2.000000
 -0.333333  0.333333  0.250000      2.000000
 -0.166667  0.333333  0.250000      2.000000
  0.000000  0.500000  0.250000      2.000000
  0.166667  0.500000  0.250000      2.000000
  0.333333  0.500000  0.250000      2.000000
  0.500000  0.500000  0.250000      2.000000
 -0.333333  0.500000  0.250000      2.000000
 -0.166667  0.500000  0.250000      2.000000
  0.000000 -0.333333  0.250000      2.000000
  0.166667 -0.333333  0.250000      2.000000
  0.333333 -0.333333  0.250000      2.000000
  0.500000 -0.333333  0.250000      2.000000
 -0.333333 -0.333333  0.250000      2.000000
 -0.166667 -0.333333  0.250000      2.000000
  0.000000 -0.166667  0.250000      2.000000
  0.166667 -0.166667  0.250000      2.000000
  0.333333 -0.166667  0.250000      2.000000
  0.500000 -0.166667  0.250000      2.000000
 -0.333333 -0.166667  0.250000      2.000000
 -0.166667 -0.166667  0.250000      2.000000
  0.000000  0.000000  0.500000      1.000000
  0.166667 -0.000000  0.500000      2.000000
  0.333333  0.000000  0.500000      2.000000
  0.500000  0.000000  0.500000      1.000000
 -0.000000  0.166667  0.500000      2.000000
  0.166667  0.166667  0.500000      2.000000
  0.333333  0.166667  0.500000      2.000000
  0.500000  0.166667  0.500000      2.000000
 -0.333333  0.166667  0.500000      2.000000
 -0.166667  0.166667  0.500000      2.000000
  0.000000  0.333333  0.500000      2.000000
  0.166667  0.333333  0.500000      2.000000
  0.333333  0.333333  0.500000      2.000000
  0.500000  0.333333  0.500000      2.000000
 -0.333333  0.333333  0.500000      2.000000
 -0.166667  0.333333  0.500000      2.000000
  0.000000  0.500000  0.500000      1.000000
  0.166667  0.500000  0.500000      2.000000
  0.333333  0.500000  0.500000      2.000000
  0.500000  0.500000  0.500000      1.000000
 
 Following cartesian coordinates:
            Coordinates               Weight
  0.000000  0.000000  0.000000      1.000000
  0.033795  0.019529  0.000000      2.000000
  0.067589  0.039058  0.000000      2.000000
  0.101384  0.058586  0.000000      1.000000
  0.000015  0.039031  0.000000      2.000000
  0.033810  0.058560  0.000000      2.000000
  0.067604  0.078089  0.000000      2.000000
  0.101399  0.097618  0.000000      2.000000
 -0.067574 -0.000026  0.000000      2.000000
 -0.033779  0.019503  0.000000      2.000000
  0.000030  0.078063  0.000000      2.000000
  0.033825  0.097591  0.000000      2.000000
  0.067619  0.117120  0.000000      2.000000
  0.101414  0.136649  0.000000      2.000000
 -0.067559  0.039005  0.000000      2.000000
 -0.033764  0.058534  0.000000      2.000000
  0.000046  0.117094  0.000000      1.000000
  0.033840  0.136623  0.000000      2.000000
  0.067635  0.156152  0.000000      2.000000
  0.101429  0.175680  0.000000      1.000000
  0.000000  0.000000  0.018479      2.000000
  0.033795  0.019529  0.018479      2.000000
  0.067589  0.039058  0.018479      2.000000
  0.101384  0.058586  0.018479      2.000000
 -0.067589 -0.039058  0.018479      2.000000
 -0.033795 -0.019529  0.018479      2.000000
  0.000015  0.039031  0.018479      2.000000
  0.033810  0.058560  0.018479      2.000000
  0.067604  0.078089  0.018479      2.000000
  0.101399  0.097618  0.018479      2.000000
 -0.067574 -0.000026  0.018479      2.000000
 -0.033779  0.019503  0.018479      2.000000
  0.000030  0.078063  0.018479      2.000000
  0.033825  0.097591  0.018479      2.000000
  0.067619  0.117120  0.018479      2.000000
  0.101414  0.136649  0.018479      2.000000
 -0.067559  0.039005  0.018479      2.000000
 -0.033764  0.058534  0.018479      2.000000
  0.000046  0.117094  0.018479      2.000000
  0.033840  0.136623  0.018479      2.000000
  0.067635  0.156152  0.018479      2.000000
  0.101429  0.175680  0.018479      2.000000
 -0.067543  0.078036  0.018479      2.000000
 -0.033749  0.097565  0.018479      2.000000
 -0.000030 -0.078063  0.018479      2.000000
  0.033764 -0.058534  0.018479      2.000000
  0.067559 -0.039005  0.018479      2.000000
  0.101353 -0.019476  0.018479      2.000000
 -0.067619 -0.117120  0.018479      2.000000
 -0.033825 -0.097591  0.018479      2.000000
 -0.000015 -0.039031  0.018479      2.000000
  0.033779 -0.019503  0.018479      2.000000
  0.067574  0.000026  0.018479      2.000000
  0.101368  0.019555  0.018479      2.000000
 -0.067604 -0.078089  0.018479      2.000000
 -0.033810 -0.058560  0.018479      2.000000
  0.000000  0.000000  0.036958      1.000000
  0.033795  0.019529  0.036958      2.000000
  0.067589  0.039058  0.036958      2.000000
  0.101384  0.058586  0.036958      1.000000
  0.000015  0.039031  0.036958      2.000000
  0.033810  0.058560  0.036958      2.000000
  0.067604  0.078089  0.036958      2.000000
  0.101399  0.097618  0.036958      2.000000
 -0.067574 -0.000026  0.036958      2.000000
 -0.033779  0.019503  0.036958      2.000000
  0.000030  0.078063  0.036958      2.000000
  0.033825  0.097591  0.036958      2.000000
  0.067619  0.117120  0.036958      2.000000
  0.101414  0.136649  0.036958      2.000000
 -0.067559  0.039005  0.036958      2.000000
 -0.033764  0.058534  0.036958      2.000000
  0.000046  0.117094  0.036958      1.000000
  0.033840  0.136623  0.036958      2.000000
  0.067635  0.156152  0.036958      2.000000
  0.101429  0.175680  0.036958      1.000000
 
 TETIRR: Found    432 inequivalent tetrahedra from      864


--------------------------------------------------------------------------------------------------------




 Dimension of arrays:
   k-points           NKPTS =     76   k-points in BZ     NKDIM =     76   number of bands    NBANDS=     84
   number of dos      NEDOS =    301   number of ions     NIONS =     32
   non local maximal  LDIM  =      4   non local SUM 2l+1 LMDIM =      8
   total plane-waves  NPLWV = 290304
   max r-space proj   IRMAX =      1   max aug-charges    IRDMAX=  12220
   dimension x,y,z NGX =    48 NGY =   48 NGZ =  126
   dimension x,y,z NGXF=    96 NGYF=   96 NGZF=  252
   support grid    NGXF=    96 NGYF=   96 NGZF=  252
   ions per type =              32
 NGX,Y,Z   is equivalent  to a cutoff of  16.18, 16.18, 15.48 a.u.
 NGXF,Y,Z  is equivalent  to a cutoff of  32.35, 32.35, 30.97 a.u.


 I would recommend the setting:
   dimension x,y,z NGX =    46 NGY =   46 NGZ =  125
 SYSTEM =  graphite                                
 POSCAR =  C                                       

 Startparameter for this run:
   NWRITE =      2    write-flag & timer
   PREC   = accura    normal or accurate (medium, high low for compatibility)
   ISTART =      0    job   : 0-new  1-cont  2-samecut
   ICHARG =      2    charge: 1-file 2-atom 10-const
   ISPIN  =      1    spin polarized calculation?
   LNONCOLLINEAR =      F non collinear calculations
   LSORBIT =      F    spin-orbit coupling
   INIWAV =      1    electr: 0-lowe 1-rand  2-diag
   LASPH  =      F    aspherical Exc in radial PAW
   METAGGA=      F    non-selfconsistent MetaGGA calc.

 Electronic Relaxation 1
   ENCUT  =  800.0 eV  58.80 Ry    7.67 a.u.  11.38 11.38 31.20*2*pi/ulx,y,z
   ENINI  =  800.0     initial cutoff
   ENAUG  =  644.9 eV  augmentation charge cutoff
   NELM   =    200;   NELMIN=  2; NELMDL=  0     # of ELM steps 
   EDIFF  = 0.1E-07   stopping-criterion for ELM
   LREAL  =      F    real-space projection
   NLSPLINE    = F    spline interpolate recip. space projectors
   LCOMPAT=      F    compatible to vasp.4.4
   GGA_COMPAT  = T    GGA compatible to vasp.4.4-vasp.4.6
   LMAXPAW     = -100 max onsite density
   LMAXMIX     =    2 max onsite mixed and CHGCAR
   VOSKOWN=      0    Vosko Wilk Nusair interpolation
   ROPT   =    0.00000
 Ionic relaxation
   EDIFFG = 0.1E-02   stopping-criterion for IOM
   NSW    =      0    number of steps for IOM
   NBLOCK =      1;   KBLOCK =      1    inner block; outer block 
   IBRION =     -1    ionic relax: 0-MD 1-quasi-New 2-CG
   NFREE  =      0    steps in history (QN), initial steepest desc. (CG)
   ISIF   =      2    stress and relaxation
   IWAVPR =     10    prediction:  0-non 1-charg 2-wave 3-comb
   ISYM   =      2    0-nonsym 1-usesym 2-fastsym
   LCORR  =      T    Harris-Foulkes like correction to forces

   POTIM  = 0.5000    time-step for ionic-motion
   TEIN   =    0.0    initial temperature
   TEBEG  =    0.0;   TEEND  =   0.0 temperature during run
   SMASS  =  -3.00    Nose mass-parameter (am)
   estimated Nose-frequenzy (Omega)   =  0.10E-29 period in steps =****** mass=  -0.556E-27a.u.
   SCALEE = 1.0000    scale energy and forces
   NPACO  =    256;   APACO  = 16.0  distance and # of slots for P.C.
   PSTRESS=    0.0 pullay stress

  Mass of Ions in am
   POMASS =  12.01
  Ionic Valenz
   ZVAL   =   4.00
  Atomic Wigner-Seitz radii
   RWIGS  =  -1.00
  virtual crystal weights 
   VCA    =   1.00
   NELECT =     128.0000    total number of electrons
   NUPDOWN=      -1.0000    fix difference up-down

 DOS related values:
   EMIN   =  10.00;   EMAX   =-10.00  energy-range for DOS
   EFERMI =   0.00
   ISMEAR =    -5;   SIGMA  =   0.20  broadening in eV -4-tet -1-fermi 0-gaus

 Electronic relaxation 2 (details)
   IALGO  =     38    algorithm
   LDIAG  =      T    sub-space diagonalisation (order eigenvalues)
   LSUBROT=      F    optimize rotation matrix (better conditioning)
   TURBO    =      0    0=normal 1=particle mesh
   IRESTART =      0    0=no restart 2=restart with 2 vectors
   NREBOOT  =      0    no. of reboots
   NMIN     =      0    reboot dimension
   EREF     =   0.00    reference energy to select bands
   IMIX   =      4    mixing-type and parameters
     AMIX     =   0.40;   BMIX     =  1.00
     AMIX_MAG =   1.60;   BMIX_MAG =  1.00
     AMIN     =   0.10
     WC   =   100.;   INIMIX=   1;  MIXPRE=   1;  MAXMIX= -45

 Intra band minimization:
   WEIMIN = 0.0000     energy-eigenvalue tresh-hold
   EBREAK =  0.30E-10  absolut break condition
   DEPER  =   0.30     relativ break condition  

   TIME   =   0.40     timestep for ELM

  volume/ion in A,a.u.               =       8.91        60.10
  Fermi-wavevector in a.u.,A,eV,Ry     =   1.253757  2.369258 21.387103  1.571908
  Thomas-Fermi vector in A             =   2.387595
 
 Write flags
   LWAVE  =      F    write WAVECAR
   LCHARG =      F    write CHGCAR
   LVTOT  =      F    write LOCPOT, total local potential
   LVHAR  =      F    write LOCPOT, Hartree potential only
   LELF   =      F    write electronic localiz. function (ELF)
   LORBIT =      0    0 simple, 1 ext, 2 COOP (PROOUT)


 Dipole corrections
   LMONO  =      F    monopole corrections only (constant potential shift)
   LDIPOL =      F    correct potential (dipole corrections)
   IDIPOL =      0    1-x, 2-y, 3-z, 4-all directions 
   EPSILON=  1.0000000 bulk dielectric constant

 Exchange correlation treatment:
   GGA     =    PE    GGA type
   LEXCH   =     8    internal setting for exchange type
   VOSKOWN=      0    Vosko Wilk Nusair interpolation
   LHFCALC =     F    Hartree Fock is set to
   LHFONE  =     F    Hartree Fock one center treatment
   AEXX    =    0.0000 exact exchange contribution

 Linear response parameters
   LEPSILON=     F    determine dielectric tensor
   LRPA    =     F    only Hartree local field effects (RPA)
   LNABLA  =     F    use nabla operator in PAW spheres
   LVEL    =     F    velocity operator in full k-point grid
   LINTERFAST=   F  fast interpolation
   KINTER  =     0    interpolate to denser k-point grid
   CSHIFT  =0.1000    complex shift for real part using Kramers Kronig
   OMEGAMAX=  -1.0    maximum frequency
   DEG_THRESHOLD= 0.2000000E-02 threshold for treating states as degnerate
   RTIME   =    0.100 relaxation time in fs

 Orbital magnetization related:
   ORBITALMAG=     F  switch on orbital magnetization
   LCHIMAG   =     F  perturbation theory with respect to B field
   DQ        =  0.001000  dq finite difference perturbation B field



--------------------------------------------------------------------------------------------------------


 Static calculation
 charge density and potential will be updated during run
 non-spin polarized calculation
 Variant of blocked Davidson
 Davidson routine will perform the subspace rotation
 perform sub-space diagonalisation
    after iterative eigenvector-optimisation
 modified Broyden-mixing scheme, WC =      100.0
 initial mixing is a Kerker type mixing with AMIX =  0.4000 and BMIX =      1.0000
 Hartree-type preconditioning will be used
 using additional bands           20
 reciprocal scheme for non local part
 calculate Harris-corrections to forces 
   (improved forces if not selfconsistent)
 use gradient corrections 
 use of overlap-Matrix (Vanderbilt PP)
 Fermi weights with tetrahedron method with Bloechl corrections


--------------------------------------------------------------------------------------------------------


  energy-cutoff  :      800.00
  volume of cell :      284.97
      direct lattice vectors                 reciprocal lattice vectors
     4.932874498 -0.001919286  0.000000000     0.202767147  0.117172881  0.000000000
    -2.468099399  4.271034986  0.000000000     0.000091118  0.234187941  0.000000000
     0.000000000  0.000000000 13.528771485     0.000000000  0.000000000  0.073916542

  length of vectors
     4.932874871  4.932874871 13.528771485     0.234187958  0.234187958  0.073916542


 
 k-points in units of 2pi/SCALE and weight: B4C B11C-CBC                            
   0.00000000  0.00000000  0.00000000       0.007
   0.03379452  0.01952881  0.00000000       0.014
   0.06758905  0.03905763  0.00000000       0.014
   0.10138357  0.05858644  0.00000000       0.007
   0.00001519  0.03903132  0.00000000       0.014
   0.03380971  0.05856014  0.00000000       0.014
   0.06760424  0.07808895  0.00000000       0.014
   0.10139876  0.09761776  0.00000000       0.014
  -0.06757386 -0.00002630  0.00000000       0.014
  -0.03377934  0.01950251  0.00000000       0.014
   0.00003037  0.07806265  0.00000000       0.014
   0.03382490  0.09759146  0.00000000       0.014
   0.06761942  0.11712027  0.00000000       0.014
   0.10141395  0.13664909  0.00000000       0.014
  -0.06755868  0.03900502  0.00000000       0.014
  -0.03376415  0.05853383  0.00000000       0.014
   0.00004556  0.11709397  0.00000000       0.007
   0.03384008  0.13662278  0.00000000       0.014
   0.06763461  0.15615160  0.00000000       0.014
   0.10142913  0.17568041  0.00000000       0.007
   0.00000000  0.00000000  0.01847914       0.014
   0.03379452  0.01952881  0.01847914       0.014
   0.06758905  0.03905763  0.01847914       0.014
   0.10138357  0.05858644  0.01847914       0.014
  -0.06758905 -0.03905763  0.01847914       0.014
  -0.03379452 -0.01952881  0.01847914       0.014
   0.00001519  0.03903132  0.01847914       0.014
   0.03380971  0.05856014  0.01847914       0.014
   0.06760424  0.07808895  0.01847914       0.014
   0.10139876  0.09761776  0.01847914       0.014
  -0.06757386 -0.00002630  0.01847914       0.014
  -0.03377934  0.01950251  0.01847914       0.014
   0.00003037  0.07806265  0.01847914       0.014
   0.03382490  0.09759146  0.01847914       0.014
   0.06761942  0.11712027  0.01847914       0.014
   0.10141395  0.13664909  0.01847914       0.014
  -0.06755868  0.03900502  0.01847914       0.014
  -0.03376415  0.05853383  0.01847914       0.014
   0.00004556  0.11709397  0.01847914       0.014
   0.03384008  0.13662278  0.01847914       0.014
   0.06763461  0.15615160  0.01847914       0.014
   0.10142913  0.17568041  0.01847914       0.014
  -0.06754349  0.07803634  0.01847914       0.014
  -0.03374897  0.09756516  0.01847914       0.014
  -0.00003037 -0.07806265  0.01847914       0.014
   0.03376415 -0.05853383  0.01847914       0.014
   0.06755868 -0.03900502  0.01847914       0.014
   0.10135320 -0.01947621  0.01847914       0.014
  -0.06761942 -0.11712027  0.01847914       0.014
  -0.03382490 -0.09759146  0.01847914       0.014
  -0.00001519 -0.03903132  0.01847914       0.014
   0.03377934 -0.01950251  0.01847914       0.014
   0.06757386  0.00002630  0.01847914       0.014
   0.10136839  0.01955512  0.01847914       0.014
  -0.06760424 -0.07808895  0.01847914       0.014
  -0.03380971 -0.05856014  0.01847914       0.014
   0.00000000  0.00000000  0.03695827       0.007
   0.03379452  0.01952881  0.03695827       0.014
   0.06758905  0.03905763  0.03695827       0.014
   0.10138357  0.05858644  0.03695827       0.007
   0.00001519  0.03903132  0.03695827       0.014
   0.03380971  0.05856014  0.03695827       0.014
   0.06760424  0.07808895  0.03695827       0.014
   0.10139876  0.09761776  0.03695827       0.014
  -0.06757386 -0.00002630  0.03695827       0.014
  -0.03377934  0.01950251  0.03695827       0.014
   0.00003037  0.07806265  0.03695827       0.014
   0.03382490  0.09759146  0.03695827       0.014
   0.06761942  0.11712027  0.03695827       0.014
   0.10141395  0.13664909  0.03695827       0.014
  -0.06755868  0.03900502  0.03695827       0.014
  -0.03376415  0.05853383  0.03695827       0.014
   0.00004556  0.11709397  0.03695827       0.007
   0.03384008  0.13662278  0.03695827       0.014
   0.06763461  0.15615160  0.03695827       0.014
   0.10142913  0.17568041  0.03695827       0.007
 
 k-points in reciprocal lattice and weights: B4C B11C-CBC                            
   0.00000000  0.00000000  0.00000000       0.007
   0.16666667 -0.00000000  0.00000000       0.014
   0.33333333  0.00000000  0.00000000       0.014
   0.50000000  0.00000000  0.00000000       0.007
  -0.00000000  0.16666667  0.00000000       0.014
   0.16666667  0.16666667  0.00000000       0.014
   0.33333333  0.16666667  0.00000000       0.014
   0.50000000  0.16666667  0.00000000       0.014
  -0.33333333  0.16666667  0.00000000       0.014
  -0.16666667  0.16666667  0.00000000       0.014
   0.00000000  0.33333333  0.00000000       0.014
   0.16666667  0.33333333  0.00000000       0.014
   0.33333333  0.33333333  0.00000000       0.014
   0.50000000  0.33333333  0.00000000       0.014
  -0.33333333  0.33333333  0.00000000       0.014
  -0.16666667  0.33333333  0.00000000       0.014
   0.00000000  0.50000000  0.00000000       0.007
   0.16666667  0.50000000  0.00000000       0.014
   0.33333333  0.50000000  0.00000000       0.014
   0.50000000  0.50000000  0.00000000       0.007
   0.00000000  0.00000000  0.25000000       0.014
   0.16666667 -0.00000000  0.25000000       0.014
   0.33333333  0.00000000  0.25000000       0.014
   0.50000000  0.00000000  0.25000000       0.014
  -0.33333333  0.00000000  0.25000000       0.014
  -0.16666667  0.00000000  0.25000000       0.014
  -0.00000000  0.16666667  0.25000000       0.014
   0.16666667  0.16666667  0.25000000       0.014
   0.33333333  0.16666667  0.25000000       0.014
   0.50000000  0.16666667  0.25000000       0.014
  -0.33333333  0.16666667  0.25000000       0.014
  -0.16666667  0.16666667  0.25000000       0.014
   0.00000000  0.33333333  0.25000000       0.014
   0.16666667  0.33333333  0.25000000       0.014
   0.33333333  0.33333333  0.25000000       0.014
   0.50000000  0.33333333  0.25000000       0.014
  -0.33333333  0.33333333  0.25000000       0.014
  -0.16666667  0.33333333  0.25000000       0.014
   0.00000000  0.50000000  0.25000000       0.014
   0.16666667  0.50000000  0.25000000       0.014
   0.33333333  0.50000000  0.25000000       0.014
   0.50000000  0.50000000  0.25000000       0.014
  -0.33333333  0.50000000  0.25000000       0.014
  -0.16666667  0.50000000  0.25000000       0.014
   0.00000000 -0.33333333  0.25000000       0.014
   0.16666667 -0.33333333  0.25000000       0.014
   0.33333333 -0.33333333  0.25000000       0.014
   0.50000000 -0.33333333  0.25000000       0.014
  -0.33333333 -0.33333333  0.25000000       0.014
  -0.16666667 -0.33333333  0.25000000       0.014
   0.00000000 -0.16666667  0.25000000       0.014
   0.16666667 -0.16666667  0.25000000       0.014
   0.33333333 -0.16666667  0.25000000       0.014
   0.50000000 -0.16666667  0.25000000       0.014
  -0.33333333 -0.16666667  0.25000000       0.014
  -0.16666667 -0.16666667  0.25000000       0.014
   0.00000000  0.00000000  0.50000000       0.007
   0.16666667 -0.00000000  0.50000000       0.014
   0.33333333  0.00000000  0.50000000       0.014
   0.50000000  0.00000000  0.50000000       0.007
  -0.00000000  0.16666667  0.50000000       0.014
   0.16666667  0.16666667  0.50000000       0.014
   0.33333333  0.16666667  0.50000000       0.014
   0.50000000  0.16666667  0.50000000       0.014
  -0.33333333  0.16666667  0.50000000       0.014
  -0.16666667  0.16666667  0.50000000       0.014
   0.00000000  0.33333333  0.50000000       0.014
   0.16666667  0.33333333  0.50000000       0.014
   0.33333333  0.33333333  0.50000000       0.014
   0.50000000  0.33333333  0.50000000       0.014
  -0.33333333  0.33333333  0.50000000       0.014
  -0.16666667  0.33333333  0.50000000       0.014
   0.00000000  0.50000000  0.50000000       0.007
   0.16666667  0.50000000  0.50000000       0.014
   0.33333333  0.50000000  0.50000000       0.014
   0.50000000  0.50000000  0.50000000       0.007
 
 position of ions in fractional coordinates (direct lattice) 
   0.50036775  0.00032672  0.12569444
   0.99967330  0.00032672  0.12500000
   0.49967330  0.50032672  0.12500000
   0.99967330  0.50032672  0.12500000
   0.49967330  0.00032672  0.62500000
   0.99967330  0.00032672  0.62500000
   0.49967330  0.50032672  0.62500000
   0.99967330  0.50032672  0.62500000
   0.00032672  0.49967330  0.37500000
   0.50032672  0.49967330  0.37500000
   0.00032672  0.99967330  0.37500000
   0.50032672  0.99967330  0.37500000
   0.00032672  0.49967330  0.87500000
   0.50032672  0.49967330  0.87500000
   0.00032672  0.99967330  0.87500000
   0.50032672  0.99967330  0.87500000
   0.16629246  0.33370753  0.12500000
   0.66629246  0.33370753  0.12500000
   0.16629246  0.83370753  0.12500000
   0.66629246  0.83370753  0.12500000
   0.16629246  0.33370753  0.62500000
   0.66629246  0.33370753  0.62500000
   0.16629246  0.83370753  0.62500000
   0.66629246  0.83370753  0.62500000
   0.33370753  0.16629246  0.37500000
   0.83370753  0.16629246  0.37500000
   0.33370753  0.66629246  0.37500000
   0.83370753  0.66629246  0.37500000
   0.33370753  0.16629246  0.87500000
   0.83370753  0.16629246  0.87500000
   0.33370753  0.66629246  0.87500000
   0.83370753  0.66629246  0.87500000
 
 position of ions in cartesian coordinates  (Angst):
   2.46744493  0.00043508  1.70049140
   4.93045658 -0.00052323  1.69109644
   1.22996963  2.13595390  1.69109644
   3.69640688  2.13499426  1.69109644
   2.46401933  0.00043641  8.45548218
   4.93045658 -0.00052323  8.45548218
   1.22996963  2.13595390  8.45548218
   3.69640688  2.13499426  8.45548218
  -1.23163172  2.13412154  5.07328931
   1.23480553  2.13316189  5.07328931
  -2.46568142  4.26963903  5.07328931
   0.00075583  4.26867939  5.07328931
  -1.23163172  2.13412154 11.83767505
   1.23480553  2.13316189 11.83767505
  -2.46568142  4.26963903 11.83767505
   0.00075583  4.26867939 11.83767505
  -0.00332350  1.42495737  1.69109644
   2.46311374  1.42399773  1.69109644
  -1.23737320  3.56047486  1.69109644
   1.22906405  3.55951522  1.69109644
  -0.00332350  1.42495737  8.45548218
   2.46311374  1.42399773  8.45548218
  -1.23737320  3.56047486  8.45548218
   1.22906405  3.55951522  8.45548218
   1.23571103  0.70960044  5.07328931
   3.70214828  0.70864080  5.07328931
   0.00166133  2.84511794  5.07328931
   2.46809858  2.84415829  5.07328931
   1.23571103  0.70960044 11.83767505
   3.70214828  0.70864080 11.83767505
   0.00166133  2.84511794 11.83767505
   2.46809858  2.84415829 11.83767505
 


--------------------------------------------------------------------------------------------------------


 k-point  1 :   0.0000 0.0000 0.0000  plane waves:   14667
 k-point  2 :   0.1667-0.0000 0.0000  plane waves:   14662
 k-point  3 :   0.3333 0.0000 0.0000  plane waves:   14626
 k-point  4 :   0.5000 0.0000 0.0000  plane waves:   14640
 k-point  5 :  -0.0000 0.1667 0.0000  plane waves:   14662
 k-point  6 :   0.1667 0.1667 0.0000  plane waves:   14645
 k-point  7 :   0.3333 0.1667 0.0000  plane waves:   14635
 k-point  8 :   0.5000 0.1667 0.0000  plane waves:   14631
 k-point  9 :  -0.3333 0.1667 0.0000  plane waves:   14653
 k-point 10 :  -0.1667 0.1667 0.0000  plane waves:   14664
 k-point 11 :   0.0000 0.3333 0.0000  plane waves:   14626
 k-point 12 :   0.1667 0.3333 0.0000  plane waves:   14635
 k-point 13 :   0.3333 0.3333 0.0000  plane waves:   14608
 k-point 14 :   0.5000 0.3333 0.0000  plane waves:   14635
 k-point 15 :  -0.3333 0.3333 0.0000  plane waves:   14632
 k-point 16 :  -0.1667 0.3333 0.0000  plane waves:   14653
 k-point 17 :   0.0000 0.5000 0.0000  plane waves:   14640
 k-point 18 :   0.1667 0.5000 0.0000  plane waves:   14631
 k-point 19 :   0.3333 0.5000 0.0000  plane waves:   14635
 k-point 20 :   0.5000 0.5000 0.0000  plane waves:   14644
 k-point 21 :   0.0000 0.0000 0.2500  plane waves:   14650
 k-point 22 :   0.1667-0.0000 0.2500  plane waves:   14669
 k-point 23 :   0.3333 0.0000 0.2500  plane waves:   14649
 k-point 24 :   0.5000 0.0000 0.2500  plane waves:   14644
 k-point 25 :  -0.3333 0.0000 0.2500  plane waves:   14649
 k-point 26 :  -0.1667 0.0000 0.2500  plane waves:   14669
 k-point 27 :  -0.0000 0.1667 0.2500  plane waves:   14669
 k-point 28 :   0.1667 0.1667 0.2500  plane waves:   14647
 k-point 29 :   0.3333 0.1667 0.2500  plane waves:   14622
 k-point 30 :   0.5000 0.1667 0.2500  plane waves:   14623
 k-point 31 :  -0.3333 0.1667 0.2500  plane waves:   14648
 k-point 32 :  -0.1667 0.1667 0.2500  plane waves:   14669
 k-point 33 :   0.0000 0.3333 0.2500  plane waves:   14649
 k-point 34 :   0.1667 0.3333 0.2500  plane waves:   14622
 k-point 35 :   0.3333 0.3333 0.2500  plane waves:   14617
 k-point 36 :   0.5000 0.3333 0.2500  plane waves:   14619
 k-point 37 :  -0.3333 0.3333 0.2500  plane waves:   14646
 k-point 38 :  -0.1667 0.3333 0.2500  plane waves:   14648
 k-point 39 :   0.0000 0.5000 0.2500  plane waves:   14644
 k-point 40 :   0.1667 0.5000 0.2500  plane waves:   14623
 k-point 41 :   0.3333 0.5000 0.2500  plane waves:   14619
 k-point 42 :   0.5000 0.5000 0.2500  plane waves:   14634
 k-point 43 :  -0.3333 0.5000 0.2500  plane waves:   14619
 k-point 44 :  -0.1667 0.5000 0.2500  plane waves:   14623
 k-point 45 :   0.0000-0.3333 0.2500  plane waves:   14649
 k-point 46 :   0.1667-0.3333 0.2500  plane waves:   14648
 k-point 47 :   0.3333-0.3333 0.2500  plane waves:   14646
 k-point 48 :   0.5000-0.3333 0.2500  plane waves:   14619
 k-point 49 :  -0.3333-0.3333 0.2500  plane waves:   14617
 k-point 50 :  -0.1667-0.3333 0.2500  plane waves:   14622
 k-point 51 :   0.0000-0.1667 0.2500  plane waves:   14669
 k-point 52 :   0.1667-0.1667 0.2500  plane waves:   14669
 k-point 53 :   0.3333-0.1667 0.2500  plane waves:   14648
 k-point 54 :   0.5000-0.1667 0.2500  plane waves:   14623
 k-point 55 :  -0.3333-0.1667 0.2500  plane waves:   14622
 k-point 56 :  -0.1667-0.1667 0.2500  plane waves:   14647
 k-point 57 :   0.0000 0.0000 0.5000  plane waves:   14662
 k-point 58 :   0.1667-0.0000 0.5000  plane waves:   14702
 k-point 59 :   0.3333 0.0000 0.5000  plane waves:   14628
 k-point 60 :   0.5000 0.0000 0.5000  plane waves:   14640
 k-point 61 :  -0.0000 0.1667 0.5000  plane waves:   14702
 k-point 62 :   0.1667 0.1667 0.5000  plane waves:   14644
 k-point 63 :   0.3333 0.1667 0.5000  plane waves:   14630
 k-point 64 :   0.5000 0.1667 0.5000  plane waves:   14630
 k-point 65 :  -0.3333 0.1667 0.5000  plane waves:   14650
 k-point 66 :  -0.1667 0.1667 0.5000  plane waves:   14692
 k-point 67 :   0.0000 0.3333 0.5000  plane waves:   14628
 k-point 68 :   0.1667 0.3333 0.5000  plane waves:   14630
 k-point 69 :   0.3333 0.3333 0.5000  plane waves:   14620
 k-point 70 :   0.5000 0.3333 0.5000  plane waves:   14630
 k-point 71 :  -0.3333 0.3333 0.5000  plane waves:   14626
 k-point 72 :  -0.1667 0.3333 0.5000  plane waves:   14650
 k-point 73 :   0.0000 0.5000 0.5000  plane waves:   14640
 k-point 74 :   0.1667 0.5000 0.5000  plane waves:   14630
 k-point 75 :   0.3333 0.5000 0.5000  plane waves:   14630
 k-point 76 :   0.5000 0.5000 0.5000  plane waves:   14644

 maximum and minimum number of plane-waves per node :     14702    14608

 maximum number of plane-waves:     14702
 maximum index in each direction: 
   IXMAX=   11   IYMAX=   11   IZMAX=   31
   IXMIN=  -11   IYMIN=  -11   IZMIN=  -31

 NGX is ok and might be reduce to  46
 NGY is ok and might be reduce to  46
 NGZ is ok and might be reduce to 126

 serial   3D FFT for wavefunctions
 parallel 3D FFT for charge:
    minimum data exchange during FFTs selected (reduces bandwidth)


 total amount of memory used by VASP on root node   408477. kBytes
========================================================================

   base      :      30000. kBytes
   nonl-proj :      79059. kBytes
   fftplans  :      14247. kBytes
   grid      :      30326. kBytes
   one-center:         98. kBytes
   wavefun   :     254747. kBytes
 
     INWAV:  cpu time    0.00: real time    0.00
 Broyden mixing: mesh for mixing (old mesh)
   NGX = 23   NGY = 23   NGZ = 63
  (NGX  = 96   NGY  = 96   NGZ  =252)
  gives a total of  33327 points

 initial charge density was supplied:
 charge density of overlapping atoms calculated
 number of electron     128.0000000 magnetization 
 keeping initial charge density in first step


--------------------------------------------------------------------------------------------------------


 Maximum index for augmentation-charges         1974 (set IRDMAX)


--------------------------------------------------------------------------------------------------------


 First call to EWALD:  gamma=   0.269
 Maximum number of real-space cells 4x 4x 2
 Maximum number of reciprocal cells 2x 2x 5

 FEWALD executed in parallel
    FEWALD:  cpu time    0.01: real time    0.02


----------------------------------------- Iteration    1(   1)  ---------------------------------------


    POTLOK:  cpu time    0.91: real time    2.27
    SETDIJ:  cpu time    0.04: real time    0.13
     EDDAV:  cpu time  260.91: real time  647.60
 BZINTS: Fermi energy: 17.213352;128.000000 electrons
         Band energy: 162.229675;  BLOECHL correction: -0.150529
       DOS:  cpu time    0.09: real time    0.19
    --------------------------------------------
      LOOP:  cpu time  261.96: real time  650.20

 eigenvalue-minimisations  : 12768
 total energy-change (2. order) : 0.7100778E+03  (-0.8396191E+04)
 number of electron     128.0000000 magnetization 
 augmentation part      128.0000000 magnetization 

 Free energy of the ion-electron system (eV)
  ---------------------------------------------------
  alpha Z        PSCENC =       292.79115404
  Ewald energy   TEWEN  =     -3645.74778869
  -Hartree energ DENC   =     -1214.31312035
  -exchange      EXHF   =         0.00000000
  -V(xc)+E(xc)   XCENC  =       442.99165529
  PAW double counting   =      1210.60617908    -1247.42152856
  entropy T*S    EENTRO =         0.00000000
  eigenvalues    EBANDS =       162.22967469
  atomic energy  EATOM  =      4708.94155045
  ---------------------------------------------------
  free energy    TOTEN  =       710.07777596 eV

  energy without entropy =      710.07777596  energy(sigma->0) =      710.07777596


--------------------------------------------------------------------------------------------------------




----------------------------------------- Iteration    1(   2)  ---------------------------------------


     EDDAV:  cpu time  302.01: real time  759.13
 BZINTS: Fermi energy:  3.893343;128.000000 electrons
         Band energy:-801.570201;  BLOECHL correction: -0.000490
       DOS:  cpu time    0.07: real time    0.18
    --------------------------------------------
      LOOP:  cpu time  302.12: real time  759.40

 eigenvalue-minimisations  : 15840
 total energy-change (2. order) :-0.9637999E+03  (-0.9277967E+03)
 number of electron     128.0000000 magnetization 
 augmentation part      128.0000000 magnetization 

 Free energy of the ion-electron system (eV)
  ---------------------------------------------------
  alpha Z        PSCENC =       292.79115404
  Ewald energy   TEWEN  =     -3645.74778869
  -Hartree energ DENC   =     -1214.31312035
  -exchange      EXHF   =         0.00000000
  -V(xc)+E(xc)   XCENC  =       442.99165529
  PAW double counting   =      1210.60617908    -1247.42152856
  entropy T*S    EENTRO =         0.00000000
  eigenvalues    EBANDS =      -801.57020126
  atomic energy  EATOM  =      4708.94155045
  ---------------------------------------------------
  free energy    TOTEN  =      -253.72210000 eV

  energy without entropy =     -253.72210000  energy(sigma->0) =     -253.72210000


--------------------------------------------------------------------------------------------------------




----------------------------------------- Iteration    1(   3)  ---------------------------------------


     EDDAV:  cpu time  291.35: real time  730.81
 BZINTS: Fermi energy:  3.116196;128.000000 electrons
         Band energy:-860.523891;  BLOECHL correction: -0.000214
       DOS:  cpu time    0.07: real time    0.21
    --------------------------------------------
      LOOP:  cpu time  291.43: real time  731.05

 eigenvalue-minimisations  : 15480
 total energy-change (2. order) :-0.5895369E+02  (-0.5831130E+02)
 number of electron     128.0000000 magnetization 
 augmentation part      128.0000000 magnetization 

 Free energy of the ion-electron system (eV)
  ---------------------------------------------------
  alpha Z        PSCENC =       292.79115404
  Ewald energy   TEWEN  =     -3645.74778869
  -Hartree energ DENC   =     -1214.31312035
  -exchange      EXHF   =         0.00000000
  -V(xc)+E(xc)   XCENC  =       442.99165529
  PAW double counting   =      1210.60617908    -1247.42152856
  entropy T*S    EENTRO =         0.00000000
  eigenvalues    EBANDS =      -860.52389097
  atomic energy  EATOM  =      4708.94155045
  ---------------------------------------------------
  free energy    TOTEN  =      -312.67578970 eV

  energy without entropy =     -312.67578970  energy(sigma->0) =     -312.67578970


--------------------------------------------------------------------------------------------------------




----------------------------------------- Iteration    1(   4)  ---------------------------------------


     EDDAV:  cpu time  306.07: real time  761.30
 BZINTS: Fermi energy:  3.097105;128.000000 electrons
         Band energy:-861.691257;  BLOECHL correction:  0.000000
       DOS:  cpu time    0.04: real time    0.11
    --------------------------------------------
      LOOP:  cpu time  306.12: real time  761.44

 eigenvalue-minimisations  : 15948
 total energy-change (2. order) :-0.1167366E+01  (-0.1165132E+01)
 number of electron     128.0000000 magnetization 
 augmentation part      128.0000000 magnetization 

 Free energy of the ion-electron system (eV)
  ---------------------------------------------------
  alpha Z        PSCENC =       292.79115404
  Ewald energy   TEWEN  =     -3645.74778869
  -Hartree energ DENC   =     -1214.31312035
  -exchange      EXHF   =         0.00000000
  -V(xc)+E(xc)   XCENC  =       442.99165529
  PAW double counting   =      1210.60617908    -1247.42152856
  entropy T*S    EENTRO =         0.00000000
  eigenvalues    EBANDS =      -861.69125721
  atomic energy  EATOM  =      4708.94155045
  ---------------------------------------------------
  free energy    TOTEN  =      -313.84315595 eV

  energy without entropy =     -313.84315595  energy(sigma->0) =     -313.84315595


--------------------------------------------------------------------------------------------------------




----------------------------------------- Iteration    1(   5)  ---------------------------------------


     EDDAV:  cpu time  308.30: real time  767.71
 BZINTS: Fermi energy:  3.095363;128.000000 electrons
         Band energy:-861.726106;  BLOECHL correction: -0.000000
       DOS:  cpu time    0.03: real time    0.07
    CHARGE:  cpu time    6.69: real time   14.71
    MIXING:  cpu time    0.04: real time    0.07
    --------------------------------------------
      LOOP:  cpu time  315.08: real time  782.61

 eigenvalue-minimisations  : 16452
 total energy-change (2. order) :-0.3484847E-01  (-0.3483604E-01)
 number of electron     127.9999988 magnetization 
 augmentation part        3.3926435 magnetization 

 Broyden mixing:
  rms(total) = 0.22086E+01    rms(broyden)= 0.22086E+01
  rms(prec ) = 0.26043E+01
  weight for this iteration     100.00

 Free energy of the ion-electron system (eV)
  ---------------------------------------------------
  alpha Z        PSCENC =       292.79115404
  Ewald energy   TEWEN  =     -3645.74778869
  -Hartree energ DENC   =     -1214.31312035
  -exchange      EXHF   =         0.00000000
  -V(xc)+E(xc)   XCENC  =       442.99165529
  PAW double counting   =      1210.60617908    -1247.42152856
  entropy T*S    EENTRO =         0.00000000
  eigenvalues    EBANDS =      -861.72610568
  atomic energy  EATOM  =      4708.94155045
  ---------------------------------------------------
  free energy    TOTEN  =      -313.87800442 eV

  energy without entropy =     -313.87800442  energy(sigma->0) =     -313.87800442


--------------------------------------------------------------------------------------------------------




----------------------------------------- Iteration    1(   6)  ---------------------------------------


    POTLOK:  cpu time    0.88: real time    2.27
    SETDIJ:  cpu time    0.02: real time    0.08
     EDDAV:  cpu time  281.18: real time  707.76
 BZINTS: Fermi energy:  3.861371;128.000000 electrons
         Band energy:-720.872050;  BLOECHL correction:  0.000000
       DOS:  cpu time    0.03: real time    0.05
    CHARGE:  cpu time    5.93: real time   15.60
    MIXING:  cpu time    0.07: real time    0.16
    --------------------------------------------
      LOOP:  cpu time  288.12: real time  725.93

 eigenvalue-minimisations  : 14592
 total energy-change (2. order) : 0.1446163E+02  (-0.1490208E+01)
 number of electron     127.9999988 magnetization 
 augmentation part        3.2367960 magnetization 

 Broyden mixing:
  rms(total) = 0.11588E+01    rms(broyden)= 0.11588E+01
  rms(prec ) = 0.13573E+01
  weight for this iteration     100.00

 eigenvalues of (default mixing * dielectric matrix)
  average eigenvalue GAMMA=   2.0343
  2.0343

 Free energy of the ion-electron system (eV)
  ---------------------------------------------------
  alpha Z        PSCENC =       292.79115404
  Ewald energy   TEWEN  =     -3645.74778869
  -Hartree energ DENC   =     -1346.20405006
  -exchange      EXHF   =         0.00000000
  -V(xc)+E(xc)   XCENC  =       451.37331422
  PAW double counting   =      1641.98244933    -1681.68094981
  entropy T*S    EENTRO =         0.00000000
  eigenvalues    EBANDS =      -720.87204965
  atomic energy  EATOM  =      4708.94155045
  ---------------------------------------------------
  free energy    TOTEN  =      -299.41637017 eV

  energy without entropy =     -299.41637017  energy(sigma->0) =     -299.41637017


--------------------------------------------------------------------------------------------------------




----------------------------------------- Iteration    1(   7)  ---------------------------------------


    POTLOK:  cpu time    0.94: real time    2.42
    SETDIJ:  cpu time    0.02: real time    0.08
     EDDAV:  cpu time  282.11: real time  704.84
 BZINTS: Fermi energy:  4.614293;128.000000 electrons
         Band energy:-576.915295;  BLOECHL correction:  0.000000
       DOS:  cpu time    0.03: real time    0.10
    CHARGE:  cpu time    5.88: real time   14.92
    MIXING:  cpu time    0.02: real time    0.06
    --------------------------------------------
      LOOP:  cpu time  289.00: real time  722.41

 eigenvalue-minimisations  : 14520
 total energy-change (2. order) : 0.4592777E+01  (-0.1576270E+01)
 number of electron     127.9999989 magnetization 
 augmentation part        3.0710591 magnetization 

 Broyden mixing:
  rms(total) = 0.19596E+00    rms(broyden)= 0.19595E+00
  rms(prec ) = 0.21333E+00
  weight for this iteration     100.00

 eigenvalues of (default mixing * dielectric matrix)
  average eigenvalue GAMMA=   2.0866
  2.0866  2.0866

 Free energy of the ion-electron system (eV)
  ---------------------------------------------------
  alpha Z        PSCENC =       292.79115404
  Ewald energy   TEWEN  =     -3645.74778869
  -Hartree energ DENC   =     -1492.78136816
  -exchange      EXHF   =         0.00000000
  -V(xc)+E(xc)   XCENC  =       460.92516707
  PAW double counting   =      2180.74618262    -2222.78319593
  entropy T*S    EENTRO =         0.00000000
  eigenvalues    EBANDS =      -576.91529471
  atomic energy  EATOM  =      4708.94155045
  ---------------------------------------------------
  free energy    TOTEN  =      -294.82359331 eV

  energy without entropy =     -294.82359331  energy(sigma->0) =     -294.82359331


--------------------------------------------------------------------------------------------------------




----------------------------------------- Iteration    1(   8)  ---------------------------------------


    POTLOK:  cpu time    0.92: real time    2.19
    SETDIJ:  cpu time    0.06: real time    0.13
     EDDAV:  cpu time  291.19: real time  720.11
 BZINTS: Fermi energy:  4.626923;128.000000 electrons
         Band energy:-579.210002;  BLOECHL correction:  0.000000
       DOS:  cpu time    0.03: real time    0.09
    CHARGE:  cpu time    5.82: real time   15.14
    MIXING:  cpu time    0.03: real time    0.09
    --------------------------------------------
      LOOP:  cpu time  298.06: real time  737.77

 eigenvalue-minimisations  : 14904
 total energy-change (2. order) :-0.6822081E-01  (-0.6571463E-01)
 number of electron     127.9999989 magnetization 
 augmentation part        3.0644053 magnetization 

 Broyden mixing:
  rms(total) = 0.75797E-01    rms(broyden)= 0.75795E-01
  rms(prec ) = 0.98323E-01
  weight for this iteration     100.00

 eigenvalues of (default mixing * dielectric matrix)
  average eigenvalue GAMMA=   1.6605
  2.3640  2.0430  0.5746

 Free energy of the ion-electron system (eV)
  ---------------------------------------------------
  alpha Z        PSCENC =       292.79115404
  Ewald energy   TEWEN  =     -3645.74778869
  -Hartree energ DENC   =     -1491.09925974
  -exchange      EXHF   =         0.00000000
  -V(xc)+E(xc)   XCENC  =       460.83351225
  PAW double counting   =      2206.13461484    -2247.53559564
  entropy T*S    EENTRO =         0.00000000
  eigenvalues    EBANDS =      -579.21000163
  atomic energy  EATOM  =      4708.94155045
  ---------------------------------------------------
  free energy    TOTEN  =      -294.89181412 eV

  energy without entropy =     -294.89181412  energy(sigma->0) =     -294.89181412


--------------------------------------------------------------------------------------------------------




----------------------------------------- Iteration    1(   9)  ---------------------------------------


    POTLOK:  cpu time    0.93: real time    2.41
    SETDIJ:  cpu time    0.03: real time    0.08
     EDDAV:  cpu time  286.93: real time  713.22
 BZINTS: Fermi energy:  4.586625;128.000000 electrons
         Band energy:-578.394732;  BLOECHL correction:  0.000000
       DOS:  cpu time    0.04: real time    0.11
    CHARGE:  cpu time    6.27: real time   16.22
    MIXING:  cpu time    0.09: real time    0.21
    --------------------------------------------
      LOOP:  cpu time  294.29: real time  732.27

 eigenvalue-minimisations  : 14808
 total energy-change (2. order) : 0.3653090E-02  (-0.4699733E-02)
 number of electron     127.9999989 magnetization 
 augmentation part        3.0621101 magnetization 

 Broyden mixing:
  rms(total) = 0.37269E-01    rms(broyden)= 0.37269E-01
  rms(prec ) = 0.58217E-01
  weight for this iteration     100.00

 eigenvalues of (default mixing * dielectric matrix)
  average eigenvalue GAMMA=   1.4927
  2.4152  2.0207  0.7675  0.7675

 Free energy of the ion-electron system (eV)
  ---------------------------------------------------
  alpha Z        PSCENC =       292.79115404
  Ewald energy   TEWEN  =     -3645.74778869
  -Hartree energ DENC   =     -1492.17086348
  -exchange      EXHF   =         0.00000000
  -V(xc)+E(xc)   XCENC  =       460.91846867
  PAW double counting   =      2218.59082549    -2259.81677535
  entropy T*S    EENTRO =         0.00000000
  eigenvalues    EBANDS =      -578.39473215
  atomic energy  EATOM  =      4708.94155045
  ---------------------------------------------------
  free energy    TOTEN  =      -294.88816103 eV

  energy without entropy =     -294.88816103  energy(sigma->0) =     -294.88816103


--------------------------------------------------------------------------------------------------------




----------------------------------------- Iteration    1(  10)  ---------------------------------------


    POTLOK:  cpu time    0.96: real time    2.39
    SETDIJ:  cpu time    0.06: real time    0.17
     EDDAV:  cpu time  338.01: real time  838.64
 BZINTS: Fermi energy:  4.595677;128.000000 electrons
         Band energy:-577.600592;  BLOECHL correction:  0.000000
       DOS:  cpu time    0.03: real time    0.08
    CHARGE:  cpu time    5.91: real time   15.13
    MIXING:  cpu time    0.03: real time    0.11
    --------------------------------------------
      LOOP:  cpu time  345.01: real time  856.54

 eigenvalue-minimisations  : 18756
 total energy-change (2. order) : 0.3176429E-02  (-0.5206846E-02)
 number of electron     127.9999989 magnetization 
 augmentation part        3.0616845 magnetization 

 Broyden mixing:
  rms(total) = 0.18150E-01    rms(broyden)= 0.18148E-01
  rms(prec ) = 0.29715E-01
  weight for this iteration     100.00

 eigenvalues of (default mixing * dielectric matrix)
  average eigenvalue GAMMA=   1.3122
  2.4551  2.0007  0.7094  0.6977  0.6977

 Free energy of the ion-electron system (eV)
  ---------------------------------------------------
  alpha Z        PSCENC =       292.79115404
  Ewald energy   TEWEN  =     -3645.74778869
  -Hartree energ DENC   =     -1493.02748279
  -exchange      EXHF   =         0.00000000
  -V(xc)+E(xc)   XCENC  =       460.97969124
  PAW double counting   =      2221.05425359    -2262.27577054
  entropy T*S    EENTRO =         0.00000000
  eigenvalues    EBANDS =      -577.60059190
  atomic energy  EATOM  =      4708.94155045
  ---------------------------------------------------
  free energy    TOTEN  =      -294.88498460 eV

  energy without entropy =     -294.88498460  energy(sigma->0) =     -294.88498460


--------------------------------------------------------------------------------------------------------




----------------------------------------- Iteration    1(  11)  ---------------------------------------


    POTLOK:  cpu time    0.88: real time    2.30
    SETDIJ:  cpu time    0.03: real time    0.07
     EDDAV:  cpu time  283.60: real time  704.99
 BZINTS: Fermi energy:  4.594852;128.000000 electrons
         Band energy:-577.382346;  BLOECHL correction:  0.000000
       DOS:  cpu time    0.03: real time    0.07
    CHARGE:  cpu time    5.87: real time   14.95
    MIXING:  cpu time    0.05: real time    0.13
    --------------------------------------------
      LOOP:  cpu time  290.46: real time  722.52

 eigenvalue-minimisations  : 14580
 total energy-change (2. order) : 0.2015060E-03  (-0.1045454E-02)
 number of electron     127.9999989 magnetization 
 augmentation part        3.0611440 magnetization 

 Broyden mixing:
  rms(total) = 0.12411E-01    rms(broyden)= 0.12411E-01
  rms(prec ) = 0.20841E-01
  weight for this iteration     100.00

 eigenvalues of (default mixing * dielectric matrix)
  average eigenvalue GAMMA=   1.2582
  2.5390  1.9492  1.2996  0.7639  0.7639  0.2338

 Free energy of the ion-electron system (eV)
  ---------------------------------------------------
  alpha Z        PSCENC =       292.79115404
  Ewald energy   TEWEN  =     -3645.74778869
  -Hartree energ DENC   =     -1493.26287697
  -exchange      EXHF   =         0.00000000
  -V(xc)+E(xc)   XCENC  =       460.99619861
  PAW double counting   =      2221.72506216    -2262.94573668
  entropy T*S    EENTRO =         0.00000000
  eigenvalues    EBANDS =      -577.38234600
  atomic energy  EATOM  =      4708.94155045
  ---------------------------------------------------
  free energy    TOTEN  =      -294.88478309 eV

  energy without entropy =     -294.88478309  energy(sigma->0) =     -294.88478309


--------------------------------------------------------------------------------------------------------




----------------------------------------- Iteration    1(  12)  ---------------------------------------


    POTLOK:  cpu time    0.94: real time    2.44
    SETDIJ:  cpu time    0.05: real time    0.13
     EDDAV:  cpu time  297.93: real time  739.64
 BZINTS: Fermi energy:  4.600105;128.000000 electrons
         Band energy:-576.744373;  BLOECHL correction:  0.000000
       DOS:  cpu time    0.03: real time    0.07
    CHARGE:  cpu time    6.28: real time   15.34
    MIXING:  cpu time    0.09: real time    0.18
    --------------------------------------------
      LOOP:  cpu time  305.32: real time  757.82

 eigenvalue-minimisations  : 15804
 total energy-change (2. order) :-0.7972929E-03  (-0.6029796E-03)
 number of electron     127.9999989 magnetization 
 augmentation part        3.0605868 magnetization 

 Broyden mixing:
  rms(total) = 0.14533E-01    rms(broyden)= 0.14532E-01
  rms(prec ) = 0.26318E-01
  weight for this iteration     100.00

 eigenvalues of (default mixing * dielectric matrix)
  average eigenvalue GAMMA=   1.1461
  2.5554  1.9314  1.5043  0.7444  0.7444  0.3533  0.1893

 Free energy of the ion-electron system (eV)
  ---------------------------------------------------
  alpha Z        PSCENC =       292.79115404
  Ewald energy   TEWEN  =     -3645.74778869
  -Hartree energ DENC   =     -1493.94948573
  -exchange      EXHF   =         0.00000000
  -V(xc)+E(xc)   XCENC  =       461.04462737
  PAW double counting   =      2223.28210541    -2264.50337040
  entropy T*S    EENTRO =         0.00000000
  eigenvalues    EBANDS =      -576.74437283
  atomic energy  EATOM  =      4708.94155045
  ---------------------------------------------------
  free energy    TOTEN  =      -294.88558039 eV

  energy without entropy =     -294.88558039  energy(sigma->0) =     -294.88558039


--------------------------------------------------------------------------------------------------------




----------------------------------------- Iteration    1(  13)  ---------------------------------------


    POTLOK:  cpu time    1.10: real time    2.45
    SETDIJ:  cpu time    0.04: real time    0.08
     EDDAV:  cpu time  290.51: real time  722.35
 BZINTS: Fermi energy:  4.598839;128.000000 electrons
         Band energy:-576.561161;  BLOECHL correction:  0.000000
       DOS:  cpu time    0.04: real time    0.08
    CHARGE:  cpu time    6.53: real time   15.83
    MIXING:  cpu time    0.09: real time    0.21
    --------------------------------------------
      LOOP:  cpu time  298.31: real time  741.02

 eigenvalue-minimisations  : 14868
 total energy-change (2. order) : 0.3204975E-03  (-0.1861660E-03)
 number of electron     127.9999989 magnetization 
 augmentation part        3.0603489 magnetization 

 Broyden mixing:
  rms(total) = 0.83293E-02    rms(broyden)= 0.83293E-02
  rms(prec ) = 0.12149E-01
  weight for this iteration     100.00

 eigenvalues of (default mixing * dielectric matrix)
  average eigenvalue GAMMA=   1.2450
  2.8690  2.3540  1.9833  0.8664  0.6997  0.6997  0.3134  0.1744

 Free energy of the ion-electron system (eV)
  ---------------------------------------------------
  alpha Z        PSCENC =       292.79115404
  Ewald energy   TEWEN  =     -3645.74778869
  -Hartree energ DENC   =     -1494.14635355
  -exchange      EXHF   =         0.00000000
  -V(xc)+E(xc)   XCENC  =       461.05879722
  PAW double counting   =      2223.49994489    -2264.72140297
  entropy T*S    EENTRO =         0.00000000
  eigenvalues    EBANDS =      -576.56116128
  atomic energy  EATOM  =      4708.94155045
  ---------------------------------------------------
  free energy    TOTEN  =      -294.88525989 eV

  energy without entropy =     -294.88525989  energy(sigma->0) =     -294.88525989


--------------------------------------------------------------------------------------------------------




----------------------------------------- Iteration    1(  14)  ---------------------------------------


    POTLOK:  cpu time    1.14: real time    2.54
    SETDIJ:  cpu time    0.03: real time    0.06
     EDDAV:  cpu time  365.50: real time  919.44
 BZINTS: Fermi energy:  4.603504;128.000000 electrons
         Band energy:-576.191080;  BLOECHL correction:  0.000000
       DOS:  cpu time    0.03: real time    0.05
    CHARGE:  cpu time    6.22: real time   15.15
    MIXING:  cpu time    0.06: real time    0.15
    --------------------------------------------
      LOOP:  cpu time  372.97: real time  937.41

 eigenvalue-minimisations  : 21084
 total energy-change (2. order) :-0.1019449E-02  (-0.1395281E-02)
 number of electron     127.9999989 magnetization 
 augmentation part        3.0602347 magnetization 

 Broyden mixing:
  rms(total) = 0.15123E-01    rms(broyden)= 0.15123E-01
  rms(prec ) = 0.26746E-01
  weight for this iteration     100.00

 eigenvalues of (default mixing * dielectric matrix)
  average eigenvalue GAMMA=   1.1317
  2.8908  2.3162  1.9972  0.8040  0.7289  0.7289  0.3259  0.2140  0.1798

 Free energy of the ion-electron system (eV)
  ---------------------------------------------------
  alpha Z        PSCENC =       292.79115404
  Ewald energy   TEWEN  =     -3645.74778869
  -Hartree energ DENC   =     -1494.54947501
  -exchange      EXHF   =         0.00000000
  -V(xc)+E(xc)   XCENC  =       461.08889400
  PAW double counting   =      2223.07579021    -2264.29532398
  entropy T*S    EENTRO =         0.00000000
  eigenvalues    EBANDS =      -576.19108034
  atomic energy  EATOM  =      4708.94155045
  ---------------------------------------------------
  free energy    TOTEN  =      -294.88627934 eV

  energy without entropy =     -294.88627934  energy(sigma->0) =     -294.88627934


--------------------------------------------------------------------------------------------------------




----------------------------------------- Iteration    1(  15)  ---------------------------------------


    POTLOK:  cpu time    0.86: real time    2.41
    SETDIJ:  cpu time    0.07: real time    0.14
     EDDAV:  cpu time  282.81: real time  703.48
 BZINTS: Fermi energy:  4.603682;128.000000 electrons
         Band energy:-576.172475;  BLOECHL correction:  0.000000
       DOS:  cpu time    0.03: real time    0.07
    CHARGE:  cpu time    6.16: real time   15.57
    MIXING:  cpu time    0.07: real time    0.17
    --------------------------------------------
      LOOP:  cpu time  289.99: real time  721.88

 eigenvalue-minimisations  : 14508
 total energy-change (2. order) : 0.2022582E-03  (-0.7333616E-04)
 number of electron     127.9999989 magnetization 
 augmentation part        3.0601960 magnetization 

 Broyden mixing:
  rms(total) = 0.11834E-01    rms(broyden)= 0.11834E-01
  rms(prec ) = 0.19773E-01
  weight for this iteration     100.00

 eigenvalues of (default mixing * dielectric matrix)
  average eigenvalue GAMMA=   1.1188
  2.9182  2.4266  1.9468  0.8829  0.8423  0.8423  0.4489  0.4489  0.2539  0.1773

 Free energy of the ion-electron system (eV)
  ---------------------------------------------------
  alpha Z        PSCENC =       292.79115404
  Ewald energy   TEWEN  =     -3645.74778869
  -Hartree energ DENC   =     -1494.56942576
  -exchange      EXHF   =         0.00000000
  -V(xc)+E(xc)   XCENC  =       461.09025552
  PAW double counting   =      2223.15443735    -2264.37378540
  entropy T*S    EENTRO =         0.00000000
  eigenvalues    EBANDS =      -576.17247458
  atomic energy  EATOM  =      4708.94155045
  ---------------------------------------------------
  free energy    TOTEN  =      -294.88607708 eV

  energy without entropy =     -294.88607708  energy(sigma->0) =     -294.88607708


--------------------------------------------------------------------------------------------------------




----------------------------------------- Iteration    1(  16)  ---------------------------------------


    POTLOK:  cpu time    1.19: real time    2.89
    SETDIJ:  cpu time    0.03: real time    0.09
     EDDAV:  cpu time  350.06: real time  869.26
 BZINTS: Fermi energy:  4.604069;128.000000 electrons
         Band energy:-576.228131;  BLOECHL correction:  0.000000
       DOS:  cpu time    0.03: real time    0.10
    CHARGE:  cpu time    6.79: real time   15.41
    MIXING:  cpu time    0.13: real time    0.31
    --------------------------------------------
      LOOP:  cpu time  358.24: real time  888.09

 eigenvalue-minimisations  : 19752
 total energy-change (2. order) : 0.2589728E-03  (-0.8362180E-04)
 number of electron     127.9999989 magnetization 
 augmentation part        3.0602502 magnetization 

 Broyden mixing:
  rms(total) = 0.11156E-01    rms(broyden)= 0.11156E-01
  rms(prec ) = 0.19113E-01
  weight for this iteration     100.00

 eigenvalues of (default mixing * dielectric matrix)
  average eigenvalue GAMMA=   1.1114
  2.8948  2.4915  1.9237  1.0268  0.8276  0.8276  0.6492  0.6492  0.4861  0.2721
  0.1771

 Free energy of the ion-electron system (eV)
  ---------------------------------------------------
  alpha Z        PSCENC =       292.79115404
  Ewald energy   TEWEN  =     -3645.74778869
  -Hartree energ DENC   =     -1494.51200771
  -exchange      EXHF   =         0.00000000
  -V(xc)+E(xc)   XCENC  =       461.08643407
  PAW double counting   =      2222.75207645    -2263.96910603
  entropy T*S    EENTRO =         0.00000000
  eigenvalues    EBANDS =      -576.22813069
  atomic energy  EATOM  =      4708.94155045
  ---------------------------------------------------
  free energy    TOTEN  =      -294.88581811 eV

  energy without entropy =     -294.88581811  energy(sigma->0) =     -294.88581811


--------------------------------------------------------------------------------------------------------




----------------------------------------- Iteration    1(  17)  ---------------------------------------


    POTLOK:  cpu time    0.92: real time    2.11
    SETDIJ:  cpu time    0.03: real time    0.08
     EDDAV:  cpu time  371.53: real time  925.13
 BZINTS: Fermi energy:  4.601487;128.000000 electrons
         Band energy:-576.219361;  BLOECHL correction:  0.000000
       DOS:  cpu time    0.03: real time    0.08
    CHARGE:  cpu time    5.97: real time   14.70
    MIXING:  cpu time    0.13: real time    0.29
    --------------------------------------------
      LOOP:  cpu time  378.62: real time  942.44

 eigenvalue-minimisations  : 21552
 total energy-change (2. order) : 0.3585129E-03  (-0.2702542E-03)
 number of electron     127.9999989 magnetization 
 augmentation part        3.0602670 magnetization 

 Broyden mixing:
  rms(total) = 0.50479E-02    rms(broyden)= 0.50472E-02
  rms(prec ) = 0.94187E-02
  weight for this iteration     100.00

 eigenvalues of (default mixing * dielectric matrix)
  average eigenvalue GAMMA=   1.0328
  2.8887  2.4892  1.9203  1.0425  0.7622  0.7622  0.6135  0.6135  0.5639  0.1771
  0.3088  0.2520

 Free energy of the ion-electron system (eV)
  ---------------------------------------------------
  alpha Z        PSCENC =       292.79115404
  Ewald energy   TEWEN  =     -3645.74778869
  -Hartree energ DENC   =     -1494.52098204
  -exchange      EXHF   =         0.00000000
  -V(xc)+E(xc)   XCENC  =       461.08686378
  PAW double counting   =      2222.70190327    -2263.91879929
  entropy T*S    EENTRO =         0.00000000
  eigenvalues    EBANDS =      -576.21936111
  atomic energy  EATOM  =      4708.94155045
  ---------------------------------------------------
  free energy    TOTEN  =      -294.88545959 eV

  energy without entropy =     -294.88545959  energy(sigma->0) =     -294.88545959


--------------------------------------------------------------------------------------------------------




----------------------------------------- Iteration    1(  18)  ---------------------------------------


    POTLOK:  cpu time    0.92: real time    2.30
    SETDIJ:  cpu time    0.03: real time    0.09
     EDDAV:  cpu time  283.63: real time  706.97
 BZINTS: Fermi energy:  4.601340;128.000000 electrons
         Band energy:-576.218471;  BLOECHL correction:  0.000000
       DOS:  cpu time    0.04: real time    0.11
    CHARGE:  cpu time    5.96: real time   15.17
    MIXING:  cpu time    0.08: real time    0.23
    --------------------------------------------
      LOOP:  cpu time  290.67: real time  724.89

 eigenvalue-minimisations  : 14472
 total energy-change (2. order) : 0.1512416E-04  (-0.6756684E-04)
 number of electron     127.9999989 magnetization 
 augmentation part        3.0602838 magnetization 

 Broyden mixing:
  rms(total) = 0.26409E-02    rms(broyden)= 0.26408E-02
  rms(prec ) = 0.48257E-02
  weight for this iteration     100.00

 eigenvalues of (default mixing * dielectric matrix)
  average eigenvalue GAMMA=   1.0161
  2.8932  2.4882  1.9117  1.2196  0.8369  0.6903  0.6903  0.6144  0.5121  0.5121
  0.3936  0.2703  0.1771

 Free energy of the ion-electron system (eV)
  ---------------------------------------------------
  alpha Z        PSCENC =       292.79115404
  Ewald energy   TEWEN  =     -3645.74778869
  -Hartree energ DENC   =     -1494.52185473
  -exchange      EXHF   =         0.00000000
  -V(xc)+E(xc)   XCENC  =       461.08690604
  PAW double counting   =      2222.70266437    -2263.91960500
  entropy T*S    EENTRO =         0.00000000
  eigenvalues    EBANDS =      -576.21847094
  atomic energy  EATOM  =      4708.94155045
  ---------------------------------------------------
  free energy    TOTEN  =      -294.88544447 eV

  energy without entropy =     -294.88544447  energy(sigma->0) =     -294.88544447


--------------------------------------------------------------------------------------------------------




----------------------------------------- Iteration    1(  19)  ---------------------------------------


    POTLOK:  cpu time    0.93: real time    2.56
    SETDIJ:  cpu time    0.04: real time    0.12
     EDDAV:  cpu time  287.93: real time  714.71
 BZINTS: Fermi energy:  4.601412;128.000000 electrons
         Band energy:-576.213326;  BLOECHL correction:  0.000000
       DOS:  cpu time    0.04: real time    0.07
    CHARGE:  cpu time    5.95: real time   15.16
    MIXING:  cpu time    0.09: real time    0.26
    --------------------------------------------
      LOOP:  cpu time  294.96: real time  732.91

 eigenvalue-minimisations  : 15108
 total energy-change (2. order) :-0.4227345E-05  (-0.4244590E-04)
 number of electron     127.9999989 magnetization 
 augmentation part        3.0602826 magnetization 

 Broyden mixing:
  rms(total) = 0.33449E-02    rms(broyden)= 0.33448E-02
  rms(prec ) = 0.57008E-02
  weight for this iteration     100.00

 eigenvalues of (default mixing * dielectric matrix)
  average eigenvalue GAMMA=   1.0263
  2.8848  2.4950  1.8702  1.4623  0.6799  0.6799  0.8474  0.7769  0.7769  0.6006
  0.6006  0.1771  0.2585  0.2585

 Free energy of the ion-electron system (eV)
  ---------------------------------------------------
  alpha Z        PSCENC =       292.79115404
  Ewald energy   TEWEN  =     -3645.74778869
  -Hartree energ DENC   =     -1494.52734775
  -exchange      EXHF   =         0.00000000
  -V(xc)+E(xc)   XCENC  =       461.08716750
  PAW double counting   =      2222.69319936    -2263.91005758
  entropy T*S    EENTRO =         0.00000000
  eigenvalues    EBANDS =      -576.21332603
  atomic energy  EATOM  =      4708.94155045
  ---------------------------------------------------
  free energy    TOTEN  =      -294.88544870 eV

  energy without entropy =     -294.88544870  energy(sigma->0) =     -294.88544870


--------------------------------------------------------------------------------------------------------




----------------------------------------- Iteration    1(  20)  ---------------------------------------


    POTLOK:  cpu time    0.92: real time    2.26
    SETDIJ:  cpu time    0.06: real time    0.12
     EDDAV:  cpu time  282.70: real time  706.05
 BZINTS: Fermi energy:  4.601288;128.000000 electrons
         Band energy:-576.215641;  BLOECHL correction:  0.000000
       DOS:  cpu time    0.04: real time    0.08
    CHARGE:  cpu time    6.02: real time   14.60
    MIXING:  cpu time    0.13: real time    0.32
    --------------------------------------------
      LOOP:  cpu time  289.87: real time  723.45

 eigenvalue-minimisations  : 14736
 total energy-change (2. order) : 0.1227531E-04  (-0.1155956E-04)
 number of electron     127.9999989 magnetization 
 augmentation part        3.0602869 magnetization 

 Broyden mixing:
  rms(total) = 0.13073E-02    rms(broyden)= 0.13073E-02
  rms(prec ) = 0.24483E-02
  weight for this iteration     100.00

 eigenvalues of (default mixing * dielectric matrix)
  average eigenvalue GAMMA=   1.0819
  2.9197  2.4726  2.1848  2.0492  0.9417  0.9089  0.9089  0.6679  0.6679  0.6363
  0.6363  0.5389  0.1771  0.2591  0.2591

 Free energy of the ion-electron system (eV)
  ---------------------------------------------------
  alpha Z        PSCENC =       292.79115404
  Ewald energy   TEWEN  =     -3645.74778869
  -Hartree energ DENC   =     -1494.52492968
  -exchange      EXHF   =         0.00000000
  -V(xc)+E(xc)   XCENC  =       461.08691592
  PAW double counting   =      2222.66889454    -2263.88559246
  entropy T*S    EENTRO =         0.00000000
  eigenvalues    EBANDS =      -576.21564055
  atomic energy  EATOM  =      4708.94155045
  ---------------------------------------------------
  free energy    TOTEN  =      -294.88543642 eV

  energy without entropy =     -294.88543642  energy(sigma->0) =     -294.88543642


--------------------------------------------------------------------------------------------------------




----------------------------------------- Iteration    1(  21)  ---------------------------------------


    POTLOK:  cpu time    0.88: real time    2.40
    SETDIJ:  cpu time    0.03: real time    0.08
     EDDAV:  cpu time  315.23: real time  788.87
 BZINTS: Fermi energy:  4.601234;128.000000 electrons
         Band energy:-576.207918;  BLOECHL correction:  0.000000
       DOS:  cpu time    0.03: real time    0.06
    CHARGE:  cpu time    6.31: real time   15.34
    MIXING:  cpu time    0.04: real time    0.13
    --------------------------------------------
      LOOP:  cpu time  322.54: real time  806.95

 eigenvalue-minimisations  : 16956
 total energy-change (2. order) : 0.6368764E-06  (-0.2359402E-05)
 number of electron     127.9999989 magnetization 
 augmentation part        3.0602838 magnetization 

 Broyden mixing:
  rms(total) = 0.10707E-02    rms(broyden)= 0.10706E-02
  rms(prec ) = 0.20786E-02
  weight for this iteration     100.00

 eigenvalues of (default mixing * dielectric matrix)
  average eigenvalue GAMMA=   1.0955
  3.1065  2.5205  2.5205  1.9417  0.6553  0.6553  0.9470  0.9470  0.8418  0.8418
  0.6182  0.6182  0.6161  0.1771  0.2606  0.2606

 Free energy of the ion-electron system (eV)
  ---------------------------------------------------
  alpha Z        PSCENC =       292.79115404
  Ewald energy   TEWEN  =     -3645.74778869
  -Hartree energ DENC   =     -1494.53298525
  -exchange      EXHF   =         0.00000000
  -V(xc)+E(xc)   XCENC  =       461.08734572
[...]
     79      12.0922      0.00000
     80      12.0962      0.00000
     81      12.5428      0.00000
     82      12.5447      0.00000
     83      12.8301      0.00000
     84      12.8322      0.00000

 k-point    75 :       0.3333    0.5000    0.5000
  band No.  band energies     occupation 
      1     -13.8305      2.00000
      2     -13.8303      2.00000
      3     -13.6453      2.00000
      4     -13.6450      2.00000
      5     -12.8600      2.00000
      6     -12.8598      2.00000
      7     -12.6865      2.00000
      8     -12.6862      2.00000
      9     -11.9009      2.00000
     10     -11.9007      2.00000
     11     -11.7390      2.00000
     12     -11.7387      2.00000
     13      -9.2260      2.00000
     14      -9.2255      2.00000
     15      -9.1066      2.00000
     16      -9.1061      2.00000
     17      -7.3512      2.00000
     18      -7.3487      2.00000
     19      -7.2711      2.00000
     20      -7.2685      2.00000
     21      -5.0515      2.00000
     22      -5.0492      2.00000
     23      -4.9886      2.00000
     24      -4.9865      2.00000
     25      -4.8839      2.00000
     26      -4.8825      2.00000
     27      -4.8154      2.00000
     28      -4.8139      2.00000
     29      -3.9090      2.00000
     30      -3.9070      2.00000
     31      -3.8359      2.00000
     32      -3.8341      2.00000
     33      -2.8511      2.00000
     34      -2.8493      2.00000
     35      -2.8035      2.00000
     36      -2.8020      2.00000
     37      -2.2477      2.00000
     38      -2.2467      2.00000
     39      -1.8222      2.00000
     40      -1.8180      2.00000
     41      -1.7759      2.00000
     42      -1.7723      2.00000
     43      -1.2996      2.00000
     44      -1.2973      2.00000
     45      -1.2608      2.00000
     46      -1.2582      2.00000
     47      -1.1039      2.00000
     48      -1.1028      2.00000
     49      -0.9941      2.00000
     50      -0.9927      2.00000
     51      -0.4107      2.00000
     52      -0.4069      2.00000
     53      -0.3816      2.00000
     54      -0.3766      2.00000
     55       0.0081      2.00000
     56       0.0092      2.00000
     57       0.0789      2.00000
     58       0.0803      2.00000
     59       1.1100      2.00000
     60       1.1113      2.00000
     61       2.9041      2.00000
     62       2.9063      2.00000
     63       3.5936      2.00000
     64       3.5963      2.00000
     65       5.7436      0.00000
     66       5.7469      0.00000
     67       6.1040      0.00000
     68       6.1074      0.00000
     69       8.8276      0.00000
     70       8.8292      0.00000
     71       9.2464      0.00000
     72       9.2484      0.00000
     73      10.2949      0.00000
     74      10.2980      0.00000
     75      10.7743      0.00000
     76      10.7766      0.00000
     77      10.9278      0.00000
     78      10.9296      0.00000
     79      12.0892      0.00000
     80      12.0931      0.00000
     81      12.5388      0.00000
     82      12.5412      0.00000
     83      12.8279      0.00000
     84      12.8303      0.00000

 k-point    76 :       0.5000    0.5000    0.5000
  band No.  band energies     occupation 
      1     -13.5083      2.00000
      2     -13.5054      2.00000
      3     -13.5054      2.00000
      4     -13.5027      2.00000
      5     -13.3269      2.00000
      6     -13.3241      2.00000
      7     -13.3241      2.00000
      8     -13.3213      2.00000
      9     -10.6643      2.00000
     10     -10.6626      2.00000
     11     -10.6626      2.00000
     12     -10.6608      2.00000
     13     -10.5180      2.00000
     14     -10.5164      2.00000
     15     -10.5164      2.00000
     16     -10.5145      2.00000
     17      -5.9145      2.00000
     18      -5.9145      2.00000
     19      -5.9142      2.00000
     20      -5.9105      2.00000
     21      -5.8650      2.00000
     22      -5.8650      2.00000
     23      -5.8646      2.00000
     24      -5.8601      2.00000
     25      -4.3308      2.00000
     26      -4.3277      2.00000
     27      -4.3264      2.00000
     28      -4.3264      2.00000
     29      -4.2931      2.00000
     30      -4.2908      2.00000
     31      -4.2896      2.00000
     32      -4.2896      2.00000
     33      -2.8292      2.00000
     34      -2.8231      2.00000
     35      -2.8231      2.00000
     36      -2.8227      2.00000
     37      -2.7627      2.00000
     38      -2.7576      2.00000
     39      -2.7576      2.00000
     40      -2.7572      2.00000
     41      -1.8647      2.00000
     42      -1.8625      2.00000
     43      -1.8625      2.00000
     44      -1.8597      2.00000
     45      -0.6341      2.00000
     46      -0.6318      2.00000
     47      -0.6317      2.00000
     48      -0.6284      2.00000
     49      -0.4063      2.00000
     50      -0.4046      2.00000
     51      -0.4046      2.00000
     52      -0.3984      2.00000
     53      -0.3748      2.00000
     54      -0.3733      2.00000
     55      -0.3733      2.00000
     56      -0.3632      2.00000
     57       1.4045      2.00000
     58       1.4077      2.00000
     59       1.4079      2.00000
     60       1.4091      2.00000
     61       2.3752      2.00000
     62       2.3790      2.00000
     63       2.3792      2.00000
     64       2.3804      2.00000
     65       7.2217      0.00000
     66       7.2226      0.00000
     67       7.2228      0.00000
     68       7.2271      0.00000
     69       7.6197      0.00000
     70       7.6206      0.00000
     71       7.6208      0.00000
     72       7.6259      0.00000
     73      11.2244      0.00000
     74      11.2321      0.00000
     75      11.2333      0.00000
     76      11.2392      0.00000
     77      11.6981      0.00000
     78      11.7077      0.00000
     79      11.7088      0.00000
     80      11.7166      0.00000
     81      12.0406      0.00000
     82      12.0453      0.00000
     83      12.0459      0.00000
     84      12.0478      0.00000


--------------------------------------------------------------------------------------------------------


 soft charge-density along one line, spin component           1
         0         1         2         3         4         5         6         7         8         9
 total charge-density along one line
 
 pseudopotential strength for first ion, spin component:           1
  9.777   0.005  -0.000  -0.000   0.000   0.000   0.000  -0.000
  0.005  -0.002   0.000   0.000   0.000   0.000   0.000  -0.000
 -0.000   0.000  -3.949   0.000   0.000  -0.015   0.000   0.000
 -0.000   0.000   0.000  -3.943   0.000   0.000  -0.012   0.000
  0.000   0.000   0.000   0.000  -3.949   0.000   0.000  -0.015
  0.000   0.000  -0.015   0.000   0.000  -0.764   0.000   0.000
  0.000   0.000   0.000  -0.012   0.000   0.000  -0.763  -0.000
 -0.000  -0.000   0.000   0.000  -0.015   0.000  -0.000  -0.764
 total augmentation occupancy for first ion, spin component:           1
  1.469  -1.121   0.000   0.000   0.003   0.000  -0.001   0.001
 -1.121   1.059  -0.000   0.007  -0.002  -0.000   0.002  -0.001
  0.000  -0.000   1.222   0.000  -0.002   0.228  -0.000  -0.001
  0.000   0.007   0.000   0.927  -0.000  -0.000   0.105  -0.000
  0.003  -0.002  -0.002  -0.000   1.221  -0.001  -0.000   0.228
  0.000  -0.000   0.228  -0.000  -0.001   0.048  -0.000  -0.000
 -0.001   0.002  -0.000   0.105  -0.000  -0.000   0.013  -0.000
  0.001  -0.001  -0.001  -0.000   0.228  -0.000  -0.000   0.048


------------------------ aborting loop because EDIFF is reached ----------------------------------------


    CHARGE:  cpu time    5.92: real time   14.56
    FORLOC:  cpu time    0.08: real time    0.21
    FORNL :  cpu time   34.61: real time   85.75
    STRESS:  cpu time   59.31: real time  149.22
    FORHAR:  cpu time    0.30: real time    0.76
    MIXING:  cpu time    0.10: real time    0.26
    OFIELD:  cpu time    0.00: real time    0.00

 ---------------------------------------------------------------------------------------------

         DFTD3 V3.0 Rev 1        
 IVDW         = 12
 DF pbe       
 parameters
 VDW_S6       =    1.0000
 VDW_S8       =    0.7875
 VDW_A1       =    0.4289
 VDW_A2       =    4.4407
 k1-k3        =   16.0000    1.3333   -4.0000
 VDW_RADIUS   =   50.2022 A
 VDW_CNRADIUS =   21.1671 A
 Edisp (eV)   -4.95427

 E6    (eV) :    -3.5519
 E8    (eV) :    -1.4024
 % E8        : 28.31
    FORVDW:  cpu time    0.25: real time    0.68

  FORCE on cell =-STRESS in cart. coord.  units (eV):
  Direction    XX          YY          ZZ          XY          YZ          ZX
  --------------------------------------------------------------------------------------
  Alpha Z   292.79115   292.79115   292.79115
  Ewald     657.80622   657.32870 -4960.90184    -1.16376    -0.00059    -0.00706
  Hartree  1314.11302  1314.12160 -1133.69068    -0.09781    -0.00022    -0.00140
  E(xc)    -467.59892  -467.60568  -484.81978    -0.00880    -0.00004     0.00003
  Local   -3595.04819 -3594.68242  4202.42417     1.03239     0.00005     0.00747
  n-local  -111.71295  -111.82588  -102.44990    -0.10295    -0.00067     0.00077
  augment   -12.36423   -12.36331   -11.33427     0.00197     0.00001    -0.00000
  Kinetic  1922.25700  1923.02502  2203.21131     0.79491     0.00892    -0.00889
  Fock        0.00000     0.00000     0.00000     0.00000     0.00000     0.00000
  vdW        -0.76913    -0.75936    -5.93808     0.00885     0.00000    -0.00002
  -------------------------------------------------------------------------------------
  Total      -0.52602     0.02982    -0.70791     0.46480     0.00747    -0.00910
  in kB      -2.95747     0.16765    -3.98011     2.61324     0.04199    -0.05114
  external pressure =       -2.26 kB  Pullay stress =        0.00 kB


 VOLUME and BASIS-vectors are now :
 -----------------------------------------------------------------------------
  energy-cutoff  :      800.00
  volume of cell :      284.97
      direct lattice vectors                 reciprocal lattice vectors
     4.932874498 -0.001919286  0.000000000     0.202767147  0.117172881  0.000000000
    -2.468099399  4.271034986  0.000000000     0.000091118  0.234187941  0.000000000
     0.000000000  0.000000000 13.528771485     0.000000000  0.000000000  0.073916542

  length of vectors
     4.932874871  4.932874871 13.528771485     0.234187958  0.234187958  0.073916542


 FORCES acting on ions
    electron-ion (+dipol)            ewald-force                    non-local-force                 convergence-correction
 -----------------------------------------------------------------------------------------------
   0.636E+00 0.635E-01 -.174E+01   -.756E+00 -.579E-01 0.177E+01   -.982E-01 0.312E-02 -.171E+00   -.596E-04 0.171E-04 -.838E-03
   -.309E+00 0.669E-01 0.388E+00   0.324E+00 -.621E-01 -.369E+00   0.144E-01 0.303E-02 -.203E-01   -.503E-04 0.168E-04 -.794E-03
   -.136E+00 0.167E+00 0.388E+00   0.126E+00 -.176E+00 -.369E+00   0.368E-02 -.321E-02 -.204E-01   -.569E-04 0.126E-04 -.795E-03
   -.136E+00 -.332E-01 0.388E+00   0.126E+00 0.524E-01 -.369E+00   0.376E-02 0.910E-02 -.203E-01   -.568E-04 0.194E-04 -.793E-03
   -.118E+00 0.665E-01 -.962E-01   0.107E+00 -.620E-01 0.960E-01   -.568E-02 0.285E-02 0.377E-02   0.462E-04 0.248E-04 0.788E-03
   -.118E+00 0.665E-01 -.955E-01   0.108E+00 -.620E-01 0.953E-01   -.569E-02 0.285E-02 0.379E-02   0.486E-04 0.238E-04 0.788E-03
   -.118E+00 0.666E-01 -.955E-01   0.107E+00 -.621E-01 0.953E-01   -.568E-02 0.285E-02 0.379E-02   0.482E-04 0.235E-04 0.788E-03
   -.118E+00 0.665E-01 -.955E-01   0.107E+00 -.620E-01 0.953E-01   -.568E-02 0.284E-02 0.379E-02   0.469E-04 0.247E-04 0.788E-03
   0.116E+00 -.718E-01 -.834E-01   -.107E+00 0.660E-01 0.822E-01   0.519E-02 -.338E-02 -.381E-02   -.383E-04 0.217E-04 0.576E-03
   0.116E+00 -.641E-01 -.831E-01   -.107E+00 0.581E-01 0.821E-01   0.507E-02 -.323E-02 -.406E-02   -.374E-04 0.200E-04 0.576E-03
   0.109E+00 -.678E-01 -.832E-01   -.100E+00 0.620E-01 0.821E-01   0.500E-02 -.320E-02 -.393E-02   -.370E-04 0.214E-04 0.576E-03
   0.123E+00 -.678E-01 -.138E+00   -.115E+00 0.619E-01 0.138E+00   0.522E-02 -.327E-02 -.374E-02   -.392E-04 0.221E-04 0.575E-03
   0.116E+00 -.697E-01 -.822E-01   -.107E+00 0.659E-01 0.824E-01   0.515E-02 -.269E-02 -.409E-02   -.289E-04 0.210E-04 -.560E-03
   0.116E+00 -.619E-01 -.824E-01   -.107E+00 0.580E-01 0.823E-01   0.526E-02 -.253E-02 -.383E-02   -.311E-04 0.211E-04 -.560E-03
   0.109E+00 -.659E-01 -.823E-01   -.100E+00 0.620E-01 0.824E-01   0.507E-02 -.270E-02 -.396E-02   -.301E-04 0.209E-04 -.560E-03
   0.124E+00 -.660E-01 -.137E+00   -.115E+00 0.621E-01 0.137E+00   0.529E-02 -.264E-02 -.357E-02   -.300E-04 0.199E-04 -.561E-03
   0.321E-01 -.661E-01 0.325E+00   -.309E-01 0.621E-01 -.322E+00   0.369E-02 -.253E-02 0.986E-02   0.590E-04 -.169E-04 -.798E-03
   0.342E+00 -.577E-01 0.848E+00   -.338E+00 0.528E-01 -.879E+00   0.282E-01 -.232E-02 0.791E-01   0.550E-04 -.168E-04 -.792E-03
   -.224E+00 -.391E+00 0.844E+00   0.281E+00 0.418E+00 -.875E+00   0.203E-01 -.699E-02 0.788E-01   0.542E-04 -.170E-04 -.792E-03
   -.213E+00 0.256E+00 0.851E+00   0.269E+00 -.290E+00 -.883E+00   0.214E-01 0.148E-02 0.795E-01   0.546E-04 -.171E-04 -.792E-03
   0.116E+00 -.656E-01 -.956E-01   -.107E+00 0.618E-01 0.952E-01   0.500E-02 -.248E-02 -.992E-03   -.481E-04 -.235E-04 0.789E-03
   0.116E+00 -.656E-01 -.959E-01   -.107E+00 0.618E-01 0.955E-01   0.500E-02 -.248E-02 -.985E-03   -.496E-04 -.226E-04 0.788E-03
   0.116E+00 -.656E-01 -.959E-01   -.107E+00 0.618E-01 0.955E-01   0.500E-02 -.248E-02 -.987E-03   -.497E-04 -.222E-04 0.789E-03
   0.116E+00 -.655E-01 -.959E-01   -.107E+00 0.618E-01 0.955E-01   0.500E-02 -.248E-02 -.981E-03   -.477E-04 -.232E-04 0.789E-03
   -.952E-01 0.578E-01 -.950E-01   0.874E-01 -.526E-01 0.941E-01   -.458E-02 0.295E-02 0.146E-02   0.387E-04 -.211E-04 0.575E-03
   -.134E+00 0.535E-01 -.109E+00   0.127E+00 -.481E-01 0.108E+00   -.458E-02 0.284E-02 0.112E-02   0.371E-04 -.206E-04 0.575E-03
   -.111E+00 0.894E-01 -.102E+00   0.103E+00 -.846E-01 0.101E+00   -.449E-02 0.290E-02 0.130E-02   0.369E-04 -.208E-04 0.575E-03
   -.118E+00 0.668E-01 -.781E-01   0.110E+00 -.617E-01 0.771E-01   -.471E-02 0.289E-02 0.802E-03   0.384E-04 -.216E-04 0.575E-03
   -.134E+00 0.781E-01 -.108E+00   0.127E+00 -.753E-01 0.108E+00   -.435E-02 0.228E-02 0.115E-02   0.315E-04 -.213E-04 -.559E-03
   -.950E-01 0.738E-01 -.938E-01   0.877E-01 -.707E-01 0.940E-01   -.438E-02 0.218E-02 0.147E-02   0.338E-04 -.212E-04 -.559E-03
   -.111E+00 0.425E-01 -.101E+00   0.103E+00 -.393E-01 0.101E+00   -.428E-02 0.225E-02 0.129E-02   0.326E-04 -.228E-04 -.559E-03
   -.117E+00 0.649E-01 -.773E-01   0.110E+00 -.618E-01 0.774E-01   -.451E-02 0.224E-02 0.834E-03   0.326E-04 -.213E-04 -.559E-03
 -----------------------------------------------------------------------------------------------
   0.635E-04 -.929E-05 -.485E-02   -.232E-13 -.306E-13 -.141E-13   -.315E-04 0.338E-05 0.489E-02   0.379E-05 0.812E-06 0.348E-04
 
 
 POSITION                                       TOTAL-FORCE (eV/Angst)
 -----------------------------------------------------------------------------------
      2.46744      0.00044      1.70049        -0.219310      0.008759     -0.131954
      4.93046     -0.00052      1.69110         0.030408      0.007810     -0.002710
      1.22997      2.13595      1.69110        -0.005923     -0.013190     -0.002639
      3.69641      2.13499      1.69110        -0.006032      0.028921     -0.002868
      2.46402      0.00044      8.45548        -0.015912      0.007396      0.004327
      4.93046     -0.00052      8.45548        -0.015882      0.007397      0.004353
      1.22997      2.13595      8.45548        -0.015894      0.007389      0.004353
      3.69641      2.13499      8.45548        -0.015893      0.007402      0.004353
     -1.23163      2.13412      5.07329         0.013846     -0.009160     -0.004410
      1.23481      2.13316      5.07329         0.013658     -0.009248     -0.004475
     -2.46568      4.26964      5.07329         0.013828     -0.009039     -0.004440
      0.00076      4.26868      5.07329         0.013669     -0.009162     -0.003941
     -1.23163      2.13412     11.83768         0.013852     -0.006436     -0.004513
      1.23481      2.13316     11.83768         0.014010     -0.006510     -0.004453
     -2.46568      4.26964     11.83768         0.013992     -0.006618     -0.004484
      0.00076      4.26868     11.83768         0.013836     -0.006530     -0.003808
     -0.00332      1.42496      1.69110         0.005130     -0.006594      0.011832
      2.46311      1.42400      1.69110         0.032277     -0.007295      0.046960
     -1.23737      3.56047      1.69110         0.077490      0.019402      0.047359
      1.22906      3.55952      1.69110         0.077639     -0.032815      0.046486
     -0.00332      1.42496      8.45548         0.013881     -0.006330     -0.000624
      2.46311      1.42400      8.45548         0.013881     -0.006329     -0.000608
     -1.23737      3.56047      8.45548         0.013883     -0.006329     -0.000610
      1.22906      3.55952      8.45548         0.013882     -0.006331     -0.000604
      1.23571      0.70960      5.07329        -0.012411      0.008155      0.001047
      3.70215      0.70864      5.07329        -0.011850      0.008250      0.001073
      0.00166      2.84512      5.07329        -0.012213      0.007731      0.001069
      2.46810      2.84416      5.07329        -0.012048      0.008041      0.000376
      1.23571      0.70960     11.83768        -0.011229      0.005140      0.001082
      3.70215      0.70864     11.83768        -0.011652      0.005243      0.001037
      0.00166      2.84512     11.83768        -0.011533      0.005563      0.001043
      2.46810      2.84416     11.83768        -0.011378      0.005317      0.000393
 -----------------------------------------------------------------------------------
    total drift:                                0.000036     -0.000005      0.000076


--------------------------------------------------------------------------------------------------------



  FREE ENERGIE OF THE ION-ELECTRON SYSTEM (eV)
  ---------------------------------------------------
  free  energy   TOTEN  =      -299.83970762 eV

  energy  without entropy=     -299.83970762  energy(sigma->0) =     -299.83970762
 


--------------------------------------------------------------------------------------------------------


    POTLOK:  cpu time    1.01: real time    2.32


--------------------------------------------------------------------------------------------------------


     LOOP+:  cpu time 8029.57: real time20013.62
    4ORBIT:  cpu time    0.00: real time    0.00
 BZINTS: Fermi energy:  4.600635;128.000000 electrons
         Band energy:-576.197610;  BLOECHL correction:  0.000000

 total amount of memory used by VASP on root node   408477. kBytes
========================================================================

   base      :      30000. kBytes
   nonl-proj :      79059. kBytes
   fftplans  :      14247. kBytes
   grid      :      30326. kBytes
   one-center:         98. kBytes
   wavefun   :     254747. kBytes
 
  
  
 General timing and accounting informations for this job:
 ========================================================
  
                  Total CPU time used (sec):     8127.370
                            User time (sec):     4200.247
                          System time (sec):     3927.122
                         Elapsed time (sec):    20258.693
  
                   Maximum memory used (kb):      500104.
                   Average memory used (kb):           0.
  
                          Minor page faults:     49354027
                          Major page faults:            0
                 Voluntary context switches:         1157
