diamond                                 
           1
     5.052010    0.000000    0.000000
     2.526005    4.375169    0.000000
     2.526005    1.458390    4.124949
   C 
  16
Direct configuration=     1
   0.00197941  0.00000000  0.00000000
   0.50000000  0.00000000  0.00000000
   0.00000000  0.50000000  0.00000000
   0.50000000  0.50000000  0.00000000
   0.00000000  0.00000000  0.50000000
   0.50000000  0.00000000  0.50000000
   0.00000000  0.50000000  0.50000000
   0.50000000  0.50000000  0.50000000
   0.12500000  0.12500000  0.12499999
   0.62500000  0.12500000  0.12499999
   0.12500000  0.62500000  0.12499999
   0.62500000  0.62500000  0.12499999
   0.12500000  0.12500000  0.62499999
   0.62500000  0.12500000  0.62499999
   0.12500000  0.62500000  0.62499999
   0.62500000  0.62500000  0.62499999
