   32   32    1    1
  0.9079817E+01  0.4932875E-09  0.4932875E-09  0.1379404E-08  0.5000000E-15
  1.000000000000000E-004
  CAR 
 graphite                                
    128     76     84
 
  0.0000000E+00  0.0000000E+00  0.0000000E+00  0.6944444E-02
    1      -15.168332
    2      -15.051017
    3      -15.050579
    4      -14.926605
    5       -9.862725
    6       -9.852286
    7       -9.849456
    8       -9.816230
    9       -9.814647
   10       -9.804553
   11       -9.803055
   12       -9.803048
   13       -9.799257
   14       -9.774540
   15       -9.762058
   16       -9.759471
   17       -8.792859
   18       -8.791806
   19       -8.790495
   20       -8.766428
   21       -8.765792
   22       -8.763675
   23       -8.763045
   24       -8.763036
   25       -8.760769
   26       -8.724968
   27       -8.724113
   28       -8.721751
   29       -3.952738
   30       -3.179329
   31       -3.177756
   32       -2.247930
   33       -1.967250
   34       -1.965075
   35       -1.949802
   36       -1.946090
   37       -1.945628
   38       -1.945624
   39       -1.941801
   40       -1.929129
   41       -1.926876
   42       -1.924576
   43       -1.921837
   44       -1.906575
   45        1.424897
   46        1.430860
   47        1.431199
   48        1.435470
   49        1.442635
   50        1.446986
   51        1.447111
   52        1.452818
   53        1.740183
   54        1.743640
   55        1.745696
   56        2.076096
   57        2.078695
   58        2.085881
   59        2.086263
   60        2.086313
   61        2.090135
   62        2.322146
   63        2.338548
   64        2.340340
   65        5.943221
   66        5.945417
   67        5.950050
   68        6.093400
   69        6.096091
   70        6.098133
   71        6.100521
   72        6.100827
   73        6.103964
   74        6.546921
   75        6.553193
   76        6.556400
   77        8.525592
   78       10.951541
   79       10.954257
   80       11.667387
   81       11.671226
   82       11.703035
   83       11.826749
   84       11.829367
 
  0.1666667E+00  0.0000000E+00  0.0000000E+00  0.1388889E-01
    1      -15.002957
    2      -14.886792
    3      -14.886361
    4      -14.763711
    5      -11.154630
    6      -11.066476
    7      -11.066102
    8      -10.974464
    9      -10.285058
   10      -10.277770
   11      -10.207947
   12      -10.207298
   13      -10.200269
   14      -10.199439
   15      -10.128050
   16      -10.120207
   17       -8.165312
   18       -8.159231
   19       -8.104495
   20       -8.102508
   21       -8.097399
   22       -8.096679
   23       -8.037953
   24       -8.031586
   25       -7.320924
   26       -7.258289
   27       -7.256869
   28       -7.192086
   29       -3.752100
   30       -2.983589
   31       -2.982021
   32       -2.457321
   33       -2.440706
   34       -2.431012
   35       -2.430799
   36       -2.415045
   37       -2.413076
   38       -2.404149
   39       -2.387383
   40       -2.059039
   41       -1.802849
   42       -1.783332
   43       -1.780575
   44       -1.760807
   45        0.676303
   46        0.775306
   47        0.787395
   48        0.791259
   49        0.802616
   50        1.087066
   51        1.096234
   52        1.100397
   53        1.111166
   54        1.238927
   55        1.240998
   56        1.524683
   57        1.529488
   58        1.849251
   59        1.968824
   60        1.971303
   61        1.977446
   62        1.978224
   63        2.384138
   64        2.396407
   65        6.145313
   66        6.147230
   67        6.374748
   68        6.378063
   69        6.380375
   70        6.383786
   71        6.825436
   72        6.832139
   73        6.852287
   74        7.198569
   75        7.202329
   76        7.709876
   77        8.727934
   78       11.132420
   79       11.135118
   80       11.758891
   81       11.910440
   82       11.911775
   83       12.061491
   84       12.406392
 
  0.3333333E+00  0.0000000E+00  0.0000000E+00  0.1388889E-01
    1      -14.508588
    2      -14.395928
    3      -14.395520
    4      -14.276790
    5      -12.562915
    6      -12.463942
    7      -12.463592
    8      -12.360078
    9      -10.706266
   10      -10.702610
   11      -10.621892
   12      -10.621325
   13      -10.618115
   14      -10.617015
   15      -10.533447
   16      -10.529649
   17       -6.992527
   18       -6.983441
   19       -6.936234
   20       -6.934206
   21       -6.926522
   22       -6.925507
   23       -6.875999
   24       -6.867049
   25       -5.207538
   26       -5.156355
   27       -5.154676
   28       -5.102272
   29       -3.612524
   30       -3.598453
   31       -3.577839
   32       -3.577456
   33       -3.564373
   34       -3.562390
   35       -3.541551
   36       -3.527328
   37       -3.154604
   38       -2.401540
   39       -2.399977
   40       -1.498645
   41       -1.329033
   42       -1.310460
   43       -1.307494
   44       -1.288626
   45       -0.875825
   46       -0.859062
   47       -0.849336
   48       -0.848255
   49       -0.824635
   50       -0.184554
   51       -0.182940
   52        0.289322
   53        0.303023
   54        0.307008
   55        0.321411
   56        0.601330
   57        1.230699
   58        1.234147
   59        1.780487
   60        1.782962
   61        1.786125
   62        1.786960
   63        2.380515
   64        2.386763
   65        6.668334
   66        6.671557
   67        6.950518
   68        6.952665
   69        6.955122
   70        6.958340
   71        7.310155
   72        7.313726
   73        9.005906
   74        9.330045
   75        9.340835
   76        9.345353
   77        9.772890
   78       11.660686
   79       11.663551
   80       11.681096
   81       12.056430
   82       12.136812
   83       12.138482
   84       12.383314
 
  0.5000000E+00  0.0000000E+00  0.0000000E+00  0.6944444E-02
    1      -13.692540
    2      -13.689818
    3      -13.586693
    4      -13.584155
    5      -13.584139
    6      -13.581195
    7      -13.472894
    8      -13.470107
    9      -10.854528
   10      -10.852852
   11      -10.768778
   12      -10.767393
   13      -10.767371
   14      -10.765355
   15      -10.678290
   16      -10.676563
   17       -6.086189
   18       -6.084529
   19       -6.055692
   20       -6.055690
   21       -6.055035
   22       -6.051109
   23       -6.025866
   24       -6.023373
   25       -4.501154
   26       -4.499448
   27       -4.482029
   28       -4.479508
   29       -4.478483
   30       -4.478481
   31       -4.455726
   32       -4.454647
   33       -2.990637
   34       -2.987206
   35       -2.954352
   36       -2.949186
   37       -2.949181
   38       -2.948558
   39       -2.912220
   40       -2.909655
   41       -2.177268
   42       -2.175043
   43       -1.453560
   44       -1.451416
   45       -1.451269
   46       -1.448097
   47       -0.595919
   48       -0.592685
   49       -0.591551
   50       -0.589019
   51       -0.578278
   52       -0.577066
   53       -0.577046
   54       -0.570091
   55       -0.559259
   56       -0.551593
   57        1.114517
   58        1.116542
   59        1.696462
   60        1.699642
   61        1.699869
   62        1.701194
   63        2.355777
   64        2.358057
   65        7.001251
   66        7.003709
   67        7.256538
   68        7.256775
   69        7.256795
   70        7.261548
   71        7.513969
   72        7.516476
   73       10.343892
   74       10.344759
   75       11.427152
   76       11.430484
   77       11.601338
   78       11.609425
   79       11.610066
   80       11.615052
   81       11.959787
   82       11.963350
   83       12.346755
   84       12.348206
 
  0.0000000E+00  0.1666667E+00  0.0000000E+00  0.1388889E-01
    1      -15.002953
    2      -14.886790
    3      -14.886355
    4      -14.763707
    5      -11.154643
    6      -11.066482
    7      -11.066130
    8      -10.974487
    9      -10.285146
   10      -10.277545
   11      -10.208163
   12      -10.207305
   13      -10.200261
   14      -10.198841
   15      -10.128093
   16      -10.119917
   17       -8.165649
   18       -8.160105
   19       -8.104504
   20       -8.103767
   21       -8.097581
   22       -8.097336
   23       -8.038196
   24       -8.032255
   25       -7.320034
   26       -7.256901
   27       -7.256525
   28       -7.191240
   29       -3.752110
   30       -2.983599
   31       -2.982035
   32       -2.456211
   33       -2.440540
   34       -2.431001
   35       -2.428511
   36       -2.415039
   37       -2.413076
   38       -2.402913
   39       -2.387408
   40       -2.059053
   41       -1.803881
   42       -1.783338
   43       -1.782985
   44       -1.762281
   45        0.675701
   46        0.778779
   47        0.791263
   48        0.791644
   49        0.804273
   50        1.085609
   51        1.096228
   52        1.096409
   53        1.106911
   54        1.238718
   55        1.239736
   56        1.524832
   57        1.530442
   58        1.848366
   59        1.969178
   60        1.971295
   61        1.977489
   62        1.980213
   63        2.384237
   64        2.397516
   65        6.143663
   66        6.146929
   67        6.374176
   68        6.376542
   69        6.379978
   70        6.382210
   71        6.825011
   72        6.830487
   73        6.853859
   74        7.200715
   75        7.203167
   76        7.711353
   77        8.727925
   78       11.132381
   79       11.135079
   80       11.758285
   81       11.910295
   82       11.910669
   83       12.060846
   84       12.412088
 
  0.1666667E+00  0.1666667E+00  0.0000000E+00  0.1388889E-01
    1      -14.672842
    2      -14.559023
    3      -14.558606
    4      -14.438557
    5      -11.775687
    6      -11.772831
    7      -11.683524
    8      -11.680913
    9      -11.680896
   10      -11.677759
   11      -11.584810
   12      -11.581884
   13       -9.437745
   14       -9.393164
   15       -9.391996
   16       -9.353576
   17       -8.388774
   18       -8.366394
   19       -8.362986
   20       -8.329492
   21       -6.212854
   22       -6.209442
   23       -6.157842
   24       -6.154078
   25       -6.154060
   26       -6.151188
   27       -6.097577
   28       -6.094272
   29       -3.784374
   30       -3.748585
   31       -3.746783
   32       -3.709932
   33       -3.352679
   34       -2.594343
   35       -2.592783
   36       -2.129358
   37       -2.126843
   38       -2.104778
   39       -2.103303
   40       -2.103298
   41       -2.099269
   42       -2.078404
   43       -2.075198
   44       -1.683983
   45       -0.258829
   46       -0.246835
   47       -0.242947
   48       -0.232454
   49        0.038046
   50        0.040017
   51        0.410306
   52        0.417480
   53        0.421495
   54        0.431432
   55        0.663881
   56        0.665784
   57        0.665888
   58        0.668986
   59        1.379730
   60        1.382101
   61        2.339652
   62        2.673916
   63        2.676201
   64        2.909732
   65        5.854562
   66        5.880261
   67        5.884928
   68        6.135340
   69        7.808051
   70        7.810484
   71        8.149842
   72        8.153762
   73        8.154209
   74        8.156085
   75        8.589453
   76        8.592159
   77        9.134874
   78       11.496162
   79       11.498885
   80       12.521096
   81       12.524956
   82       12.715786
   83       12.720077
   84       12.725437
 
  0.3333333E+00  0.1666667E+00  0.0000000E+00  0.1388889E-01
    1      -14.016705
    2      -13.907503
    3      -13.907121
    4      -13.792272
    5      -13.045130
    6      -12.942793
    7      -12.942414
    8      -12.835140
    9      -12.090731
   10      -11.995219
   11      -11.994754
   12      -11.895040
   13       -9.417804
   14       -9.347165
   15       -9.346849
   16       -9.274666
   17       -7.526177
   18       -7.480014
   19       -7.477217
   20       -7.429482
   21       -5.218616
   22       -5.183267
   23       -5.181339
   24       -5.143174
   25       -5.054888
   26       -5.015005
   27       -5.013324
   28       -4.973044
   29       -4.073016
   30       -4.030998
   31       -4.029352
   32       -3.986476
   33       -3.028691
   34       -3.001949
   35       -3.000607
   36       -2.972439
   37       -2.563610
   38       -1.985489
   39       -1.961380
   40       -1.957849
   41       -1.931825
   42       -1.825913
   43       -1.824593
   44       -1.489947
   45       -1.468582
   46       -1.465912
   47       -1.444050
   48       -1.411713
   49       -0.947739
   50       -0.713673
   51       -0.712203
   52       -0.594053
   53       -0.579103
   54       -0.574726
   55       -0.558715
   56       -0.295824
   57        0.110141
   58        0.358197
   59        0.359431
   60        1.118616
   61        2.639612
   62        3.082490
   63        3.084494
   64        3.504669
   65        5.545770
   66        5.737113
   67        5.740551
   68        6.009170
   69        8.611123
   70        8.868317
   71        8.870145
   72        9.143252
   73        9.947795
   74       10.098773
   75       10.360394
   76       10.363032
   77       10.686172
   78       11.152858
   79       12.162660
   80       12.170199
   81       12.346759
   82       12.360201
   83       12.554141
   84       12.560996
 
  0.5000000E+00  0.1666667E+00  0.0000000E+00  0.1388889E-01
    1      -14.017901
    2      -13.908704
    3      -13.908306
    4      -13.793461
    5      -13.043447
    6      -12.941104
    7      -12.940742
    8      -12.833463
    9      -12.091939
   10      -11.996445
   11      -11.995971
   12      -11.896266
   13       -9.414940
   14       -9.344057
   15       -9.343796
   16       -9.271311
   17       -7.521496
   18       -7.474437
   19       -7.473329
   20       -7.424790
   21       -5.226831
   22       -5.191044
   23       -5.190540
   24       -5.151906
   25       -5.064255
   26       -5.024712
   27       -5.021684
   28       -4.981699
   29       -4.076696
   30       -4.035021
   31       -4.032686
   32       -3.990161
   33       -3.017604
   34       -2.991297
   35       -2.988406
   36       -2.960748
   37       -2.564902
   38       -1.983405
   39       -1.958665
   40       -1.956978
   41       -1.930145
   42       -1.827143
   43       -1.825877
   44       -1.486505
   45       -1.465483
   46       -1.462017
   47       -1.440428
   48       -1.409989
   49       -0.949004
   50       -0.712015
   51       -0.710473
   52       -0.595832
   53       -0.580245
   54       -0.577788
   55       -0.561599
   56       -0.297108
   57        0.111787
   58        0.356739
   59        0.358036
   60        1.116929
   61        2.640876
   62        3.086533
   63        3.087401
   64        3.512388
   65        5.542892
   66        5.737731
   67        5.739498
   68        6.008853
   69        8.607355
   70        8.864927
   71        8.867428
   72        9.141887
   73        9.946090
   74       10.099009
   75       10.359066
   76       10.362157
   77       10.683931
   78       11.155211
   79       12.162108
   80       12.169570
   81       12.344613
   82       12.358637
   83       12.552668
   84       12.559368
 
 -0.3333333E+00  0.1666667E+00  0.0000000E+00  0.1388889E-01
    1      -14.673556
    2      -14.559741
    3      -14.559312
    4      -14.439266
    5      -11.777863
    6      -11.772067
    7      -11.684677
    8      -11.684225
    9      -11.678813
   10      -11.678477
   11      -11.587113
   12      -11.581276
   13       -9.427138
   14       -9.381204
   15       -9.380908
   16       -9.341080
   17       -8.389171
   18       -8.364787
   19       -8.364492
   20       -8.329022
   21       -6.220757
   22       -6.215119
   23       -6.165023
   24       -6.162806
   25       -6.159206
   26       -6.157577
   27       -6.105539
   28       -6.100150
   29       -3.797864
   30       -3.761405
   31       -3.761067
   32       -3.723528
   33       -3.353474
   34       -2.595125
   35       -2.593578
   36       -2.124881
   37       -2.111892
   38       -2.100948
   39       -2.098052
   40       -2.087687
   41       -2.085336
   42       -2.073716
   43       -2.060853
   44       -1.684767
   45       -0.263400
   46       -0.250690
   47       -0.250443
   48       -0.238336
   49        0.035131
   50        0.041251
   51        0.416586
   52        0.425112
   53        0.425282
   54        0.434583
   55        0.660965
   56        0.662289
   57        0.667422
   58        0.669246
   59        1.375485
   60        1.382932
   61        2.342327
   62        2.682958
   63        2.683266
   64        2.925491
   65        5.848951
   66        5.881941
   67        5.883968
   68        6.138304
   69        7.804359
   70        7.807684
   71        8.145932
   72        8.149360
   73        8.149641
   74        8.152911
   75        8.586367
   76        8.587538
   77        9.133816
   78       11.495051
   79       11.497768
   80       12.522243
   81       12.542615
   82       12.718044
   83       12.722580
   84       12.737028
 
 -0.1666667E+00  0.1666667E+00  0.0000000E+00  0.1388889E-01
    1      -15.003192
    2      -14.887029
    3      -14.886589
    4      -14.763943
    5      -11.160943
    6      -11.072835
    7      -11.072479
    8      -10.980907
    9      -10.276440
   10      -10.274447
   11      -10.199498
   12      -10.197916
   13      -10.197901
   14      -10.195438
   15      -10.118982
   16      -10.116923
   17       -8.163522
   18       -8.161729
   19       -8.102705
   20       -8.100219
   21       -8.100206
   22       -8.099216
   23       -8.035923
   24       -8.034225
   25       -7.327341
   26       -7.264996
   27       -7.262941
   28       -7.198435
   29       -3.752377
   30       -2.983863
   31       -2.982302
   32       -2.456852
   33       -2.454860
   34       -2.430924
   35       -2.430165
   36       -2.430160
   37       -2.426442
   38       -2.403952
   39       -2.401323
   40       -2.059318
   41       -1.786811
   42       -1.767048
   43       -1.764860
   44       -1.744995
   45        0.670120
   46        0.767405
   47        0.778552
   48        0.783021
   49        0.795564
   50        1.094432
   51        1.105121
   52        1.109068
   53        1.118142
   54        1.231795
   55        1.233239
   56        1.530326
   57        1.532383
   58        1.839595
   59        1.977881
   60        1.978580
   61        1.978689
   62        1.982378
   63        2.396474
   64        2.398567
   65        6.143260
   66        6.145736
   67        6.374654
   68        6.379883
   69        6.380142
   70        6.381715
   71        6.827497
   72        6.830399
   73        6.850845
   74        7.194420
   75        7.198384
   76        7.705421
   77        8.727560
   78       11.131977
   79       11.134675
   80       11.791198
   81       11.942954
   82       11.944000
   83       12.093557
   84       12.400973
 
  0.2710505E-19  0.3333333E+00  0.0000000E+00  0.1388889E-01
    1      -14.508572
    2      -14.395921
    3      -14.395494
    4      -14.276773
    5      -12.562880
    6      -12.463927
    7      -12.463535
    8      -12.360041
    9      -10.706585
   10      -10.702359
   11      -10.622665
   12      -10.621344
   13      -10.618109
   14      -10.616228
   15      -10.533701
   16      -10.529329
   17       -6.993033
   18       -6.984342
   19       -6.936245
   20       -6.935640
   21       -6.926614
   22       -6.926433
   23       -6.876387
   24       -6.867737
   25       -5.206522
   26       -5.154700
   27       -5.154364
   28       -5.101315
   29       -3.611391
   30       -3.598148
   31       -3.577464
   32       -3.575494
   33       -3.563806
   34       -3.562388
   35       -3.540259
   36       -3.527080
   37       -3.154648
   38       -2.401581
   39       -2.400037
   40       -1.498706
   41       -1.330170
   42       -1.310466
   43       -1.310181
   44       -1.290306
   45       -0.873603
   46       -0.858946
   47       -0.848253
   48       -0.846380
   49       -0.823008
   50       -0.184732
   51       -0.183406
   52        0.287887
   53        0.303017
   54        0.303298
   55        0.318561
   56        0.600931
   57        1.230774
   58        1.234992
   59        1.780772
   60        1.782920
   61        1.786153
   62        1.788770
   63        2.380731
   64        2.387748
   65        6.667232
   66        6.670485
   67        6.949135
   68        6.951045
   69        6.955130
   70        6.957164
   71        7.308726
   72        7.313153
   73        9.007036
   74        9.330770
   75        9.340867
   76        9.346553
   77        9.773860
   78       11.660534
   79       11.663382
   80       11.680951
   81       12.055722
   82       12.136806
   83       12.136961
   84       12.382675
 
  0.1666667E+00  0.3333333E+00  0.0000000E+00  0.1388889E-01
    1      -14.016691
    2      -13.907496
    3      -13.907099
    4      -13.792256
    5      -13.045095
    6      -12.942780
    7      -12.942354
    8      -12.835101
    9      -12.090776
   10      -11.995231
   11      -11.994834
   12      -11.895087
   13       -9.417742
   14       -9.347060
   15       -9.346822
   16       -9.274596
   17       -7.526528
   18       -7.480016
   19       -7.478040
   20       -7.429968
   21       -5.218186
   22       -5.182530
   23       -5.181336
   24       -5.142852
   25       -5.056212
   26       -5.016030
   27       -5.015003
   28       -4.974433
   29       -4.071684
   30       -4.029357
   31       -4.028374
   32       -3.985180
   33       -3.027121
   34       -3.000606
   35       -2.998795
   36       -2.970824
   37       -2.563647
   38       -1.984255
   39       -1.959597
   40       -1.957841
   41       -1.931105
   42       -1.825923
   43       -1.824648
   44       -1.491367
   45       -1.469037
   46       -1.468582
   47       -1.445825
   48       -1.411926
   49       -0.947789
   50       -0.713870
   51       -0.712509
   52       -0.594710
   53       -0.579106
   54       -0.576707
   55       -0.560555
   56       -0.295509
   57        0.109841
   58        0.358500
   59        0.359854
   60        1.119055
   61        2.640073
   62        3.083394
   63        3.084519
   64        3.505079
   65        5.545265
   66        5.737077
   67        5.739216
   68        6.008391
   69        8.609868
   70        8.867478
   71        8.868718
   72        9.142229
   73        9.947801
   74       10.099876
   75       10.361381
   76       10.363960
   77       10.687099
   78       11.152811
   79       12.162362
   80       12.169960
   81       12.347062
   82       12.360264
   83       12.554689
   84       12.561390
 
  0.3333333E+00  0.3333333E+00  0.0000000E+00  0.1388889E-01
    1      -13.209258
    2      -13.206641
    3      -13.204146
    4      -13.107205
    5      -13.104056
    6      -13.104039
    7      -13.102499
    8      -13.101153
    9      -13.098733
   10      -12.996773
   11      -12.994199
   12      -12.991626
   13       -8.201274
   14       -8.132507
   15       -8.130802
   16       -8.124686
   17       -8.122624
   18       -8.118545
   19       -8.116309
   20       -8.049973
   21       -6.081193
   22       -6.080906
   23       -6.078342
   24       -6.077638
   25       -3.316458
   26       -3.313011
   27       -3.311463
   28       -3.296225
   29       -3.291837
   30       -3.291828
   31       -3.291234
   32       -3.290870
   33       -3.286368
   34       -3.272417
   35       -3.270431
   36       -3.266597
   37       -1.957932
   38       -1.953723
   39       -1.951330
   40       -1.943229
   41       -1.940414
   42       -1.938662
   43       -1.937836
   44       -1.937820
   45       -1.933320
   46       -1.923662
   47       -1.922320
   48       -1.917218
   49       -1.600813
   50       -1.598667
   51       -1.596084
   52       -0.896093
   53       -0.892914
   54       -0.892759
   55       -0.891468
   56       -0.890174
   57       -0.887415
   58       -0.059221
   59       -0.056922
   60       -0.054227
   61        3.899090
   62        4.422071
   63        4.428891
   64        4.434256
   65        4.434565
   66        4.450756
   67        4.452158
   68        5.042629
   69       10.612264
   70       10.615197
   71       10.618673
   72       10.806183
   73       10.811863
   74       10.812090
   75       10.813067
   76       10.813753
   77       10.815120
   78       10.960426
   79       10.961305
   80       10.964765
   81       11.016602
   82       11.019604
   83       11.024712
   84       13.079069
 
  0.5000000E+00  0.3333333E+00  0.0000000E+00  0.1388889E-01
    1      -14.018598
    2      -13.909415
    3      -13.908990
    4      -13.794155
    5      -13.046984
    6      -12.944697
    7      -12.944211
    8      -12.836985
    9      -12.086932
   10      -11.991373
   11      -11.991037
   12      -11.891247
   13       -9.407603
   14       -9.336854
   15       -9.336409
   16       -9.264096
   17       -7.529832
   18       -7.482963
   19       -7.482391
   20       -7.434020
   21       -5.225121
   22       -5.189701
   23       -5.188644
   24       -5.150358
   25       -5.062650
   26       -5.023207
   27       -5.020801
   28       -4.981006
   29       -4.083531
   30       -4.041938
   31       -4.039057
   32       -3.996568
   33       -3.023225
   34       -2.997475
   35       -2.994032
   36       -2.966740
   37       -2.565734
   38       -1.992424
   39       -1.967606
   40       -1.965388
   41       -1.938596
   42       -1.828054
   43       -1.826836
   44       -1.476192
   45       -1.454824
   46       -1.451877
   47       -1.430198
   48       -1.413994
   49       -0.949883
   50       -0.716024
   51       -0.714655
   52       -0.585841
   53       -0.569904
   54       -0.567964
   55       -0.551584
   56       -0.291768
   57        0.107527
   58        0.362047
   59        0.363650
   60        1.122617
   61        2.646316
   62        3.091202
   63        3.092456
   64        3.515425
   65        5.545682
   66        5.733770
   67        5.735265
   68        5.998827
   69        8.611189
   70        8.864955
   71        8.867445
   72        9.136862
   73        9.945160
   74       10.093270
   75       10.355182
   76       10.358326
   77       10.683511
   78       11.150569
   79       12.158491
   80       12.166202
   81       12.342033
   82       12.364220
   83       12.554256
   84       12.561230
 
 -0.3333333E+00  0.3333333E+00  0.0000000E+00  0.1388889E-01
    1      -14.509522
    2      -14.396877
    3      -14.396433
    4      -14.277718
    5      -12.566721
    6      -12.467794
    7      -12.467329
    8      -12.363872
    9      -10.698984
   10      -10.697242
   11      -10.614888
   12      -10.613383
   13      -10.613364
   14      -10.611341
   15      -10.526069
   16      -10.524280
   17       -6.991629
   18       -6.989731
   19       -6.935739
   20       -6.932978
   21       -6.932964
   22       -6.932077
   23       -6.875380
   24       -6.873613
   25       -5.216536
   26       -5.165534
   27       -5.163280
   28       -5.111051
   29       -3.609906
   30       -3.608229
   31       -3.575193
   32       -3.575064
   33       -3.575045
   34       -3.571388
   35       -3.539190
   36       -3.537016
   37       -3.155710
   38       -2.402634
   39       -2.401104
   40       -1.499774
   41       -1.314111
   42       -1.295281
   43       -1.292800
   44       -1.273920
   45       -0.885313
   46       -0.864407
   47       -0.861638
   48       -0.855368
   49       -0.833856
   50       -0.188959
   51       -0.187641
   52        0.299855
   53        0.314141
   54        0.317674
   55        0.331573
   56        0.596319
   57        1.237210
   58        1.239155
   59        1.788541
   60        1.789427
   61        1.789570
   62        1.793162
   63        2.388995
   64        2.391245
   65        6.668481
   66        6.671124
   67        6.947893
   68        6.952701
   69        6.952874
   70        6.953990
   71        7.305234
   72        7.307879
   73        9.000084
   74        9.327506
   75        9.333301
   76        9.342487
   77        9.768751
   78       11.659296
   79       11.662143
   80       11.680901
   81       12.085479
   82       12.166170
   83       12.167439
   84       12.410055
 
 -0.1666667E+00  0.3333333E+00  0.0000000E+00  0.1388889E-01
    1      -14.673545
    2      -14.559736
    3      -14.559293
    4      -14.439254
    5      -11.778266
    6      -11.771773
    7      -11.685515
    8      -11.684608
    9      -11.678749
   10      -11.677317
   11      -11.587421
   12      -11.580859
   13       -9.426439
   14       -9.381188
   15       -9.379483
   16       -9.340349
   17       -8.390883
   18       -8.367518
   19       -8.364785
   20       -8.330451
   21       -6.221290
   22       -6.214028
   23       -6.165030
   24       -6.164468
   25       -6.157586
   26       -6.156076
   27       -6.105954
   28       -6.098809
   29       -3.796920
   30       -3.761393
   31       -3.759026
   32       -3.722403
   33       -3.353504
   34       -2.595157
   35       -2.593617
   36       -2.126077
   37       -2.111956
   38       -2.100954
   39       -2.100511
   40       -2.087141
   41       -2.085336
   42       -2.074873
   43       -2.060568
   44       -1.684810
   45       -0.261931
   46       -0.250685
   47       -0.246560
   48       -0.234782
   49        0.034998