       N       E                     dE             d eps       ncg     rms          rms(c)
DAV:   1     0.717591269932E+03    0.71759E+03   -0.83629E+04 12768   0.200E+03
DAV:   2    -0.253323257057E+03   -0.97091E+03   -0.93508E+03 15960   0.341E+02
DAV:   3    -0.312881834567E+03   -0.59559E+02   -0.58968E+02 15576   0.833E+01
DAV:   4    -0.314066845923E+03   -0.11850E+01   -0.11826E+01 16140   0.127E+01
DAV:   5    -0.314102353374E+03   -0.35507E-01   -0.35495E-01 16500   0.203E+00    0.221E+01
DAV:   6    -0.299560918383E+03    0.14541E+02   -0.14961E+01 14592   0.107E+01    0.116E+01
DAV:   7    -0.294922164976E+03    0.46388E+01   -0.16016E+01 14424   0.110E+01    0.199E+00
DAV:   8    -0.294988370836E+03   -0.66206E-01   -0.76750E-01 15660   0.230E+00    0.953E-01
DAV:   9    -0.294989243788E+03   -0.87295E-03   -0.71044E-02 14268   0.910E-01    0.432E-01
DAV:  10    -0.294984729700E+03    0.45141E-02   -0.10075E-01 20448   0.665E-01    0.334E-01
DAV:  11    -0.294983886564E+03    0.84314E-03   -0.56088E-02 14604   0.450E-01    0.269E-01
DAV:  12    -0.294984050393E+03   -0.16383E-03   -0.42163E-02 14520   0.343E-01    0.269E-01
DAV:  13    -0.294983326975E+03    0.72342E-03   -0.20687E-02 14544   0.244E-01    0.192E-01
DAV:  14    -0.294983359567E+03   -0.32592E-04   -0.13929E-02 14580   0.164E-01    0.177E-01
DAV:  15    -0.294983231832E+03    0.12773E-03   -0.28090E-04 15120   0.541E-02    0.160E-01
DAV:  16    -0.294983110875E+03    0.12096E-03   -0.13287E-04 17424   0.241E-02    0.127E-01
DAV:  17    -0.294983096585E+03    0.14291E-04   -0.21184E-05 14676   0.107E-02    0.116E-01
DAV:  18    -0.294982997623E+03    0.98962E-04   -0.37084E-04 23580   0.249E-02    0.526E-02
DAV:  19    -0.294983007756E+03   -0.10133E-04   -0.12029E-05 14652   0.665E-03    0.613E-02
DAV:  20    -0.294983014044E+03   -0.62883E-05   -0.39604E-04 22536   0.165E-02    0.586E-02
DAV:  21    -0.294982993142E+03    0.20903E-04   -0.33124E-04 22236   0.229E-02    0.439E-02
DAV:  22    -0.294982982992E+03    0.10150E-04   -0.84776E-05 15648   0.108E-02    0.238E-02
DAV:  23    -0.294982987196E+03   -0.42036E-05   -0.42785E-05 16956   0.812E-03    0.361E-02
DAV:  24    -0.294982980650E+03    0.65458E-05   -0.67513E-05 16956   0.849E-03    0.137E-02
DAV:  25    -0.294982982122E+03   -0.14719E-05   -0.11959E-05 14460   0.386E-03    0.281E-02
DAV:  26    -0.294982981233E+03    0.88872E-06   -0.63286E-05 16872   0.511E-03    0.233E-02
DAV:  27    -0.294982982140E+03   -0.90750E-06   -0.76090E-05 18168   0.630E-03    0.288E-02
DAV:  28    -0.294982979829E+03    0.23114E-05   -0.33115E-05 15972   0.423E-03    0.105E-02
DAV:  29    -0.294982979668E+03    0.16061E-06   -0.16635E-06 14508   0.140E-03    0.262E-03
DAV:  30    -0.294982979807E+03   -0.13868E-06   -0.10814E-06  9756   0.750E-04    0.922E-03
DAV:  31    -0.294982979678E+03    0.12925E-06   -0.79716E-07  9972   0.554E-04    0.305E-03
DAV:  32    -0.294982979732E+03   -0.54268E-07   -0.27773E-07  9540   0.581E-04    0.550E-03
DAV:  33    -0.294982979687E+03    0.45472E-07   -0.57657E-07 12252   0.613E-04    0.925E-04
DAV:  34    -0.294982979725E+03   -0.38318E-07   -0.22597E-07 10572   0.481E-04    0.317E-03
DAV:  35    -0.294982979710E+03    0.15450E-07   -0.23257E-07  9420   0.377E-04    0.522E-04
DAV:  36    -0.294982979741E+03   -0.31593E-07   -0.11923E-08  8976   0.231E-04    0.985E-04
DAV:  37    -0.294982979715E+03    0.25838E-07   -0.36403E-09  8808   0.119E-04    0.647E-04
DAV:  38    -0.294982979728E+03   -0.13069E-07   -0.57916E-10  8784   0.607E-05    0.648E-04
DAV:  39    -0.294982979735E+03   -0.62737E-08   -0.20032E-08  8796   0.785E-05
   1 F= -.29982312E+03 E0= -.29982312E+03  d E =0.000000E+00
