  32  32   0   0
  0.9341735E+01  0.4932875E-09  0.4932875E-09  0.1419195E-08  0.5000000E-15
  1.000000000000000E-004
  CAR 
 graphite                                
     14.52588259    -17.38717526  301      4.19809294      1.00000000
    -17.387  0.0000E+00  0.0000E+00
    -17.281  0.0000E+00  0.0000E+00
    -17.174  0.0000E+00  0.0000E+00
    -17.068  0.0000E+00  0.0000E+00
    -16.962  0.0000E+00  0.0000E+00
    -16.855  0.0000E+00  0.0000E+00
    -16.749  0.0000E+00  0.0000E+00
    -16.643  0.0000E+00  0.0000E+00
    -16.536  0.0000E+00  0.0000E+00
    -16.430  0.0000E+00  0.0000E+00
    -16.323  0.0000E+00  0.0000E+00
    -16.217  0.0000E+00  0.0000E+00
    -16.111  0.0000E+00  0.0000E+00
    -16.004  0.0000E+00  0.0000E+00
    -15.898  0.0000E+00  0.0000E+00
    -15.792  0.0000E+00  0.0000E+00
    -15.685  0.0000E+00  0.0000E+00
    -15.579  0.0000E+00  0.0000E+00
    -15.472  0.0000E+00  0.0000E+00
    -15.366  0.1389E+00  0.1113E-02
    -15.260  0.2377E+01  0.1170E+00
    -15.153  0.4351E+01  0.4902E+00
    -15.047  0.5022E+01  0.1014E+01
    -14.941  0.4854E+01  0.1512E+01
    -14.834  0.5165E+01  0.2049E+01
    -14.728  0.5045E+01  0.2596E+01
    -14.621  0.4780E+01  0.3117E+01
    -14.515  0.4832E+01  0.3624E+01
    -14.409  0.5045E+01  0.4149E+01
    -14.302  0.5259E+01  0.4697E+01
    -14.196  0.7000E+01  0.5312E+01
    -14.089  0.8186E+01  0.6127E+01
    -13.983  0.6397E+01  0.6987E+01
    -13.877  0.2656E+01  0.7453E+01
    -13.770  0.1892E+01  0.7678E+01
    -13.664  0.2160E+01  0.7890E+01
    -13.558  0.2512E+01  0.8139E+01
    -13.451  0.2863E+01  0.8424E+01
    -13.345  0.5670E+01  0.8798E+01
    -13.238  0.1047E+02  0.9885E+01
    -13.132  0.7497E+01  0.1088E+02
    -13.026  0.3974E+01  0.1137E+02
    -12.919  0.4071E+01  0.1180E+02
    -12.813  0.4167E+01  0.1223E+02
    -12.707  0.4282E+01  0.1268E+02
    -12.600  0.4410E+01  0.1315E+02
    -12.494  0.4532E+01  0.1362E+02
    -12.387  0.4655E+01  0.1411E+02
    -12.281  0.5263E+01  0.1462E+02
    -12.175  0.6247E+01  0.1523E+02
    -12.068  0.6263E+01  0.1592E+02
    -11.962  0.5697E+01  0.1656E+02
    -11.856  0.5363E+01  0.1714E+02
    -11.749  0.5516E+01  0.1772E+02
    -11.643  0.5678E+01  0.1831E+02
    -11.536  0.5840E+01  0.1893E+02
    -11.430  0.6002E+01  0.1956E+02
    -11.324  0.5668E+01  0.2019E+02
    -11.217  0.5281E+01  0.2077E+02
    -11.111  0.5329E+01  0.2133E+02
    -11.005  0.4714E+01  0.2188E+02
    -10.898  0.4270E+01  0.2234E+02
    -10.792  0.4983E+01  0.2284E+02
    -10.685  0.5158E+01  0.2338E+02
    -10.579  0.5332E+01  0.2393E+02
    -10.473  0.6910E+01  0.2454E+02
    -10.366  0.1186E+02  0.2552E+02
    -10.260  0.9601E+01  0.2666E+02
    -10.154  0.7339E+01  0.2756E+02
    -10.047  0.5154E+01  0.2822E+02
     -9.941  0.4463E+01  0.2872E+02
     -9.834  0.4021E+01  0.2917E+02
     -9.728  0.3579E+01  0.2958E+02
     -9.622  0.7696E+01  0.3016E+02
     -9.515  0.2100E+01  0.3082E+02
     -9.409  0.1901E+01  0.3103E+02
     -9.303  0.1703E+01  0.3122E+02
     -9.196  0.1505E+01  0.3139E+02
     -9.090  0.1307E+01  0.3154E+02
     -8.983  0.1309E+01  0.3167E+02
     -8.877  0.1804E+01  0.3184E+02
     -8.771  0.2300E+01  0.3206E+02
     -8.664  0.2796E+01  0.3233E+02
     -8.558  0.5098E+01  0.3270E+02
     -8.452  0.9530E+01  0.3348E+02
     -8.345  0.5194E+01  0.3447E+02
     -8.239  0.5071E+01  0.3499E+02
     -8.132  0.6188E+01  0.3559E+02
     -8.026  0.7305E+01  0.3631E+02
     -7.920  0.8423E+01  0.3715E+02
     -7.813  0.9540E+01  0.3810E+02
     -7.707  0.7298E+01  0.3907E+02
     -7.601  0.5557E+01  0.3969E+02
     -7.494  0.5593E+01  0.4028E+02
     -7.388  0.5594E+01  0.4088E+02
     -7.281  0.5447E+01  0.4147E+02
     -7.175  0.5285E+01  0.4204E+02
     -7.069  0.5145E+01  0.4259E+02
     -6.962  0.5026E+01  0.4313E+02
     -6.856  0.4908E+01  0.4366E+02
     -6.749  0.4789E+01  0.4418E+02
     -6.643  0.4671E+01  0.4468E+02
     -6.537  0.4553E+01  0.4517E+02
     -6.430  0.4434E+01  0.4565E+02
     -6.324  0.4425E+01  0.4612E+02
     -6.218  0.5040E+01  0.4662E+02
     -6.111  0.5613E+01  0.4719E+02
     -6.005  0.6185E+01  0.4781E+02
     -5.898  0.6758E+01  0.4850E+02
     -5.792  0.7330E+01  0.4925E+02
     -5.686  0.7903E+01  0.5006E+02
     -5.579  0.8475E+01  0.5093E+02
     -5.473  0.9048E+01  0.5187E+02
     -5.367  0.3866E+01  0.5248E+02
     -5.260  0.6415E+01  0.5299E+02
     -5.154  0.6627E+01  0.5375E+02
     -5.047  0.5222E+01  0.5438E+02
     -4.941  0.3817E+01  0.5486E+02
     -4.835  0.2411E+01  0.5519E+02
     -4.728  0.1075E+01  0.5537E+02
     -4.622  0.2249E+01  0.5554E+02
     -4.516  0.3663E+01  0.5585E+02
     -4.409  0.5077E+01  0.5632E+02
     -4.303  0.7596E+01  0.5694E+02
     -4.196  0.1140E+02  0.5804E+02
     -4.090  0.1053E+02  0.5921E+02
     -3.984  0.1086E+02  0.6032E+02
     -3.877  0.1073E+02  0.6150E+02
     -3.771  0.5390E+01  0.6224E+02
     -3.665  0.5655E+01  0.6282E+02
     -3.558  0.6489E+01  0.6346E+02
     -3.452  0.1029E+02  0.6430E+02
     -3.345  0.1545E+02  0.6567E+02
     -3.239  0.2743E+02  0.6777E+02
     -3.133  0.6539E+01  0.6902E+02
     -3.026  0.6682E+01  0.6972E+02
     -2.920  0.7009E+01  0.7045E+02
     -2.814  0.7590E+01  0.7122E+02
     -2.707  0.9355E+01  0.7211E+02
     -2.601  0.1681E+02  0.7371E+02
     -2.494  0.1447E+02  0.7537E+02
     -2.388  0.1171E+02  0.7681E+02
     -2.282  0.1589E+02  0.7808E+02
     -2.175  0.1543E+02  0.8131E+02
     -2.069  0.2071E+02  0.8312E+02
     -1.963  0.1251E+02  0.8498E+02
     -1.856  0.1396E+02  0.8638E+02
     -1.750  0.1496E+02  0.8795E+02
     -1.643  0.9165E+01  0.8927E+02
     -1.537  0.6479E+01  0.9008E+02
     -1.431  0.8295E+01  0.9086E+02
     -1.324  0.8380E+01  0.9176E+02
     -1.218  0.9268E+01  0.9270E+02
     -1.112  0.9845E+01  0.9373E+02
     -1.005  0.9558E+01  0.9475E+02
     -0.899  0.1104E+02  0.9584E+02
     -0.792  0.1192E+02  0.9764E+02
     -0.686  0.1119E+02  0.9889E+02
     -0.580  0.1155E+02  0.1001E+03
     -0.473  0.1178E+02  0.1013E+03
     -0.367  0.1037E+02  0.1025E+03
     -0.261  0.1007E+02  0.1036E+03
     -0.154  0.9815E+01  0.1047E+03
     -0.048  0.9586E+01  0.1057E+03
      0.059  0.9507E+01  0.1067E+03
      0.165  0.9540E+01  0.1077E+03
      0.271  0.9149E+01  0.1087E+03
      0.378  0.8992E+01  0.1097E+03
      0.484  0.9021E+01  0.1106E+03
      0.591  0.9787E+01  0.1116E+03
      0.697  0.9846E+01  0.1127E+03
      0.803  0.1019E+02  0.1138E+03
      0.910  0.1062E+02  0.1149E+03
      1.016  0.9578E+01  0.1160E+03
      1.122  0.8131E+01  0.1169E+03
      1.229  0.6645E+01  0.1177E+03
      1.335  0.5578E+01  0.1183E+03
      1.442  0.4971E+01  0.1189E+03
      1.548  0.3962E+01  0.1194E+03
      1.654  0.2939E+01  0.1197E+03
      1.761  0.3530E+01  0.1201E+03
      1.867  0.5334E+01  0.1205E+03
      1.973  0.7907E+01  0.1213E+03
      2.080  0.1438E+02  0.1223E+03
      2.186  0.7499E+01  0.1233E+03
      2.293  0.6410E+01  0.1240E+03
      2.399  0.5690E+01  0.1247E+03
      2.505  0.4662E+01  0.1252E+03
      2.612  0.3754E+01  0.1257E+03
      2.718  0.3282E+01  0.1260E+03
      2.824  0.2939E+01  0.1264E+03
      2.931  0.2584E+01  0.1267E+03
      3.037  0.2247E+01  0.1269E+03
      3.144  0.1922E+01  0.1271E+03
      3.250  0.1558E+01  0.1273E+03
      3.356  0.1358E+01  0.1275E+03
      3.463  0.1157E+01  0.1276E+03
      3.569  0.9557E+00  0.1277E+03
      3.675  0.7547E+00  0.1278E+03
      3.782  0.5576E+00  0.1279E+03
      3.888  0.3910E+00  0.1279E+03
      3.995  0.2428E+00  0.1280E+03
      4.101  0.1089E+00  0.1280E+03
      4.207  0.2859E-02  0.1280E+03
      4.314  0.1104E+00  0.1280E+03
      4.420  0.2326E+00  0.1280E+03
      4.526  0.3715E+00  0.1281E+03
      4.633  0.5312E+00  0.1281E+03
      4.739  0.7297E+00  0.1282E+03
      4.846  0.9458E+00  0.1283E+03
      4.952  0.1162E+01  0.1284E+03
      5.058  0.1378E+01  0.1285E+03
      5.165  0.1595E+01  0.1287E+03
      5.271  0.1812E+01  0.1288E+03
      5.377  0.2970E+01  0.1291E+03
      5.484  0.3850E+01  0.1294E+03
      5.590  0.4001E+01  0.1299E+03
      5.697  0.5428E+01  0.1304E+03
      5.803  0.8063E+01  0.1311E+03
      5.909  0.1264E+02  0.1322E+03
      6.016  0.9158E+01  0.1333E+03
      6.122  0.7200E+01  0.1342E+03
      6.228  0.6372E+01  0.1349E+03
      6.335  0.5979E+01  0.1355E+03
      6.441  0.5465E+01  0.1362E+03
      6.548  0.4670E+01  0.1367E+03
      6.654  0.4509E+01  0.1372E+03
      6.760  0.4032E+01  0.1376E+03
      6.867  0.3792E+01  0.1380E+03
      6.973  0.3992E+01  0.1385E+03
      7.080  0.4467E+01  0.1389E+03
      7.186  0.4787E+01  0.1394E+03
      7.292  0.4746E+01  0.1399E+03
      7.399  0.4653E+01  0.1404E+03
      7.505  0.4481E+01  0.1409E+03
      7.611  0.4309E+01  0.1414E+03
      7.718  0.4177E+01  0.1418E+03
      7.824  0.4092E+01  0.1423E+03
      7.931  0.4039E+01  0.1427E+03
      8.037  0.4003E+01  0.1431E+03
      8.143  0.4017E+01  0.1435E+03
      8.250  0.4295E+01  0.1440E+03
      8.356  0.4571E+01  0.1445E+03
      8.462  0.4278E+01  0.1449E+03
      8.569  0.4130E+01  0.1454E+03
      8.675  0.4057E+01  0.1458E+03
      8.782  0.3984E+01  0.1462E+03
      8.888  0.3867E+01  0.1467E+03
      8.994  0.3911E+01  0.1471E+03
      9.101  0.3967E+01  0.1475E+03
      9.207  0.4017E+01  0.1479E+03
      9.313  0.4068E+01  0.1483E+03
      9.420  0.4101E+01  0.1488E+03
      9.526  0.4140E+01  0.1492E+03
      9.633  0.4577E+01  0.1497E+03
      9.739  0.4755E+01  0.1502E+03
      9.845  0.4761E+01  0.1507E+03
      9.952  0.6500E+01  0.1513E+03
     10.058  0.5299E+01  0.1519E+03
     10.164  0.6094E+01  0.1525E+03
     10.271  0.5753E+01  0.1532E+03
     10.377  0.5948E+01  0.1537E+03
     10.484  0.5139E+01  0.1544E+03
     10.590  0.3408E+01  0.1548E+03
     10.696  0.4045E+01  0.1552E+03
     10.803  0.3222E+01  0.1557E+03
     10.909  0.2949E+01  0.1560E+03
     11.015  0.3049E+01  0.1563E+03
     11.122  0.3224E+01  0.1566E+03
     11.228  0.3340E+01  0.1570E+03
     11.335  0.4004E+01  0.1573E+03
     11.441  0.4632E+01  0.1578E+03
     11.547  0.8684E+01  0.1585E+03
     11.654  0.8579E+01  0.1593E+03
     11.760  0.9773E+01  0.1603E+03
     11.866  0.1176E+02  0.1614E+03
     11.973  0.1278E+02  0.1628E+03
     12.079  0.1271E+02  0.1641E+03
     12.186  0.1303E+02  0.1655E+03
     12.292  0.1152E+02  0.1668E+03
     12.398  0.5420E+01  0.1678E+03
     12.505  0.7400E-01  0.1680E+03
     12.611  0.0000E+00  0.1680E+03
     12.717  0.0000E+00  0.1680E+03
     12.824  0.0000E+00  0.1680E+03
     12.930  0.0000E+00  0.1680E+03
     13.037  0.0000E+00  0.1680E+03
     13.143  0.0000E+00  0.1680E+03
     13.249  0.0000E+00  0.1680E+03
     13.356  0.0000E+00  0.1680E+03
     13.462  0.0000E+00  0.1680E+03
     13.568  0.0000E+00  0.1680E+03
     13.675  0.0000E+00  0.1680E+03
     13.781  0.0000E+00  0.1680E+03
     13.888  0.0000E+00  0.1680E+03
     13.994  0.0000E+00  0.1680E+03
     14.100  0.0000E+00  0.1680E+03
     14.207  0.0000E+00  0.1680E+03
     14.313  0.0000E+00  0.1680E+03
     14.420  0.0000E+00  0.1680E+03
     14.526  0.0000E+00  0.1680E+03
