   32   32    1    1
  0.9341735E+01  0.4932875E-09  0.4932875E-09  0.1419195E-08  0.5000000E-15
  1.000000000000000E-004
  CAR 
 graphite                                
    128     76     84
 
  0.0000000E+00  0.0000000E+00  0.0000000E+00  0.6944444E-02
    1      -15.387175
    2      -15.294216
    3      -15.292570
    4      -15.195306
    5      -10.095965
    6      -10.084717
    7      -10.082052
    8      -10.060072
    9      -10.059111
   10      -10.049658
   11      -10.044930
   12      -10.044899
   13      -10.044308
   14      -10.026906
   15      -10.014024
   16      -10.011206
   17       -9.032614
   18       -9.030280
   19       -9.029103
   20       -9.010853
   21       -9.007958
   22       -9.007687
   23       -9.007672
   24       -9.005638
   25       -9.004467
   26       -8.978222
   27       -8.976380
   28       -8.975795
   29       -4.088649
   30       -3.419555
   31       -3.417695
   32       -2.624053
   33       -2.207080
   34       -2.204077
   35       -2.193063
   36       -2.190409
   37       -2.188057
   38       -2.187975
   39       -2.187968
   40       -2.174701
   41       -2.174354
   42       -2.173846
   43       -2.171440
   44       -2.157856
   45        1.179444
   46        1.190044
   47        1.190554
   48        1.194111
   49        1.195057
   50        1.197001
   51        1.197613
   52        1.206024
   53        1.557630
   54        1.562986
   55        1.564987
   56        1.835905
   57        1.837221
   58        1.844237
   59        1.848830
   60        1.849216
   61        1.849854
   62        2.051597
   63        2.068121
   64        2.070647
   65        5.704014
   66        5.706944
   67        5.712817
   68        5.858393
   69        5.861977
   70        5.862761
   71        5.862793
   72        5.865381
   73        5.866860
   74        6.243877
   75        6.247438
   76        6.249703
   77        8.089822
   78       10.314414
   79       10.317539
   80       11.455870
   81       11.459627
   82       11.490968
   83       11.584127
   84       11.605187
 
  0.1666667E+00  0.0000000E+00  0.0000000E+00  0.1388889E-01
    1      -15.222026
    2      -15.130025
    3      -15.128386
    4      -15.032198
    5      -11.379408
    6      -11.310515
    7      -11.308855
    8      -11.237719
    9      -10.512173
   10      -10.504500
   11      -10.452232
   12      -10.450408
   13      -10.443761
   14      -10.442589
   15      -10.388981
   16      -10.380792
   17       -8.395119
   18       -8.391111
   19       -8.348413
   20       -8.344557
   21       -8.342930
   22       -8.341584
   23       -8.295521
   24       -8.291360
   25       -7.550550
   26       -7.501108
   27       -7.500967
   28       -7.450188
   29       -3.888504
   30       -3.223730
   31       -3.221855
   32       -2.694272
   33       -2.680315
   34       -2.674921
   35       -2.673338
   36       -2.660264
   37       -2.659709
   38       -2.653691
   39       -2.639574
   40       -2.434239
   41       -2.043496
   42       -2.029542
   43       -2.025567
   44       -2.011670
   45        0.517582
   46        0.535141
   47        0.543885
   48        0.546629
   49        0.556633
   50        0.841384
   51        0.850416
   52        0.855316
   53        0.861251
   54        0.998772
   55        1.001729
   56        1.353703
   57        1.360646
   58        1.520330
   59        1.729219
   60        1.730254
   61        1.739023
   62        1.740619
   63        2.087167
   64        2.101244
   65        5.924772
   66        5.929954
   67        6.138077
   68        6.142601
   69        6.143579
   70        6.144957
   71        6.520990
   72        6.524156
   73        6.660026
   74        6.963841
   75        6.965756
   76        7.395404
   77        8.294394
   78       10.501678
   79       10.504738
   80       11.545361
   81       11.666430
   82       11.669194
   83       11.786898
   84       12.193481
 
  0.3333333E+00  0.0000000E+00  0.0000000E+00  0.1388889E-01
    1      -14.728355
    2      -14.639257
    3      -14.637635
    4      -14.544627
    5      -12.785457
    6      -12.707638
    7      -12.706083
    8      -12.625379
    9      -10.931818
   10      -10.928094
   11      -10.866280
   12      -10.863919
   13      -10.861500
   14      -10.860528
   15      -10.796028
   16      -10.792204
   17       -7.223438
   18       -7.216119
   19       -7.180588
   20       -7.176768
   21       -7.172204
   22       -7.170451
   23       -7.132710
   24       -7.125591
   25       -5.439577
   26       -5.399367
   27       -5.399119
   28       -5.358118
   29       -3.847575
   30       -3.835678
   31       -3.821340
   32       -3.820067
   33       -3.809034
   34       -3.808237
   35       -3.793014
   36       -3.780961
   37       -3.292428
   38       -2.641529
   39       -2.639610
   40       -1.870995
   41       -1.570123
   42       -1.556788
   43       -1.552555
   44       -1.539402
   45       -1.113074
   46       -1.094792
   47       -1.093268
   48       -1.074826
   49       -1.002823
   50       -0.424371
   51       -0.422102
   52        0.046298
   53        0.056734
   54        0.061734
   55        0.071192
   56        0.245057
   57        1.071677
   58        1.075969
   59        1.541745
   60        1.542739
   61        1.547459
   62        1.548881
   63        2.052549
   64        2.059827
   65        6.469835
   66        6.472214
   67        6.711310
   68        6.716548
   69        6.717689
   70        6.718220
   71        7.016368
   72        7.018975
   73        8.820198
   74        8.909069
   75        9.102093
   76        9.103901
   77        9.467465
   78       11.054501
   79       11.057328
   80       11.304877
   81       11.826984
   82       11.887604
   83       11.890671
   84       12.094526
 
  0.5000000E+00  0.0000000E+00  0.0000000E+00  0.6944444E-02
    1      -13.913459
    2      -13.910759
    3      -13.830384
    4      -13.826160
    5      -13.826131
    6      -13.825015
    7      -13.739621
    8      -13.736933
    9      -11.079751
   10      -11.078077
   11      -11.013205
   12      -11.009982
   13      -11.009842
   14      -11.009747
   15      -10.941170
   16      -10.939517
   17       -6.324529
   18       -6.321960
   19       -6.303036
   20       -6.299249
   21       -6.297326
   22       -6.297320
   23       -6.276944
   24       -6.275408
   25       -4.740037
   26       -4.739063
   27       -4.724101
   28       -4.723641
   29       -4.723625
   30       -4.721488
   31       -4.705340
   32       -4.703620
   33       -3.225191
   34       -3.222688
   35       -3.196689
   36       -3.194570
   37       -3.194557
   38       -3.190885
   39       -3.165554
   40       -3.162045
   41       -2.317832
   42       -2.315683
   43       -1.694016
   44       -1.690237
   45       -1.689902
   46       -1.688731
   47       -0.958385
   48       -0.955947
   49       -0.841195
   50       -0.832646
   51       -0.826088
   52       -0.819019
   53       -0.818813
   54       -0.818804
   55       -0.807930
   56       -0.805087
   57        0.959629
   58        0.961450
   59        1.458136
   60        1.460198
   61        1.460751
   62        1.462884
   63        2.018193
   64        2.020456
   65        6.804585
   66        6.807109
   67        7.014328
   68        7.019431
   69        7.020800
   70        7.021134
   71        7.232414
   72        7.235039
   73        9.928478
   74        9.929293
   75       11.229510
   76       11.232622
   77       11.336228
   78       11.341427
   79       11.343584
   80       11.349845
   81       11.670260
   82       11.673047
   83       11.963016
   84       11.967243
 
  0.0000000E+00  0.1666667E+00  0.0000000E+00  0.1388889E-01
    1      -15.222029
    2      -15.130032
    3      -15.128386
    4      -15.032201
    5      -11.379417
    6      -11.310528
    7      -11.308853
    8      -11.237721
    9      -10.512256
   10      -10.504594
   11      -10.452452
   12      -10.450408
   13      -10.443814
   14      -10.442594
   15      -10.388993
   16      -10.380898
   17       -8.395389
   18       -8.389980
   19       -8.348936
   20       -8.344556
   21       -8.341580
   22       -8.340416
   23       -8.295681
   24       -8.290075
   25       -7.551370
   26       -7.502690
   27       -7.501050
   28       -7.451032
   29       -3.888494
   30       -3.223709
   31       -3.221852
   32       -2.695590
   33       -2.680266
   34       -2.677091
   35       -2.673342
   36       -2.660265
   37       -2.659786
   38       -2.654827
   39       -2.639734
   40       -2.434225
   41       -2.041912
   42       -2.027165
   43       -2.025563
   44       -2.010683
   45        0.517660
   46        0.533935
   47        0.542685
   48        0.543878
   49        0.552729
   50        0.846625
   51        0.853772
   52        0.855323
   53        0.862510
   54        1.000076
   55        1.001834
   56        1.353558
   57        1.359803
   58        1.521205
   59        1.729031
   60        1.730232
   61        1.737233
   62        1.740349
   63        2.087139
   64        2.099965
   65        5.926746
   66        5.930000
   67        6.138976
   68        6.143200
   69        6.144649
   70        6.146343
   71        6.521158
   72        6.525958
   73        6.658425
   74        6.962304
   75        6.964394
   76        7.394019
   77        8.294401
   78       10.501707
   79       10.504765
   80       11.545860
   81       11.667394
   82       11.669206
   83       11.787374
   84       12.194282
 
  0.1666667E+00  0.1666667E+00  0.0000000E+00  0.1388889E-01
    1      -14.892392
    2      -14.802332
    3      -14.800706
    4      -14.706642
    5      -11.999442
    6      -11.996582
    7      -11.927682
    8      -11.923250
    9      -11.923230
   10      -11.922022
   11      -11.848989
   12      -11.846164
   13       -9.671608
   14       -9.637100
   15       -9.636692
   16       -9.605883
   17       -8.627248
   18       -8.609259
   19       -8.604958
   20       -8.580314
   21       -6.444675
   22       -6.441440
   23       -6.402511
   24       -6.398316
   25       -6.398296
   26       -6.395986
   27       -6.355175
   28       -6.351808
   29       -4.021363
   30       -3.993277
   31       -3.992967
   32       -3.964220
   33       -3.489961
   34       -2.834306
   35       -2.832404
   36       -2.368287
   37       -2.364977
   38       -2.350911
   39       -2.345733
   40       -2.345727
   41       -2.345639
   42       -2.328622
   43       -2.326274
   44       -2.057248
   45       -0.502161
   46       -0.493306
   47       -0.491250
   48       -0.481913
   49       -0.112672
   50       -0.110364
   51        0.167423
   52        0.175684
   53        0.180072
   54        0.185131
   55        0.423881
   56        0.427435
   57        0.427811
   58        0.429017
   59        1.034285
   60        1.036650
   61        2.157254
   62        2.433612
   63        2.435163
   64        2.641527
   65        5.601141
   66        5.644446
   67        5.649675
   68        5.861357
   69        7.620032
   70        7.622456
   71        7.912973
   72        7.915902
   73        7.916468
   74        7.918406
   75        8.283762
   76        8.286023
   77        8.705572
   78       10.877480
   79       10.880402
   80       12.235896
   81       12.238698
   82       12.426226
   83       12.440508
   84       12.477085
 
  0.3333333E+00  0.1666667E+00  0.0000000E+00  0.1388889E-01
    1      -14.237187
    2      -14.150956
    3      -14.149354
    4      -14.059499
    5      -13.266958
    6      -13.186375
    7      -13.184783
    8      -13.101055
    9      -12.314034
   10      -12.239090
   11      -12.237378
   12      -12.159762
   13       -9.646332
   14       -9.591452
   15       -9.590230
   16       -9.534345
   17       -7.759308
   18       -7.724101
   19       -7.720180
   20       -7.684033
   21       -5.455229
   22       -5.427108
   23       -5.426682
   24       -5.396840
   25       -5.291351
   26       -5.261337
   27       -5.258325
   28       -5.228059
   29       -4.306700
   30       -4.273703
   31       -4.273472
   32       -4.239992
   33       -3.265466
   34       -3.244384
   35       -3.244301
   36       -3.222285
   37       -2.702922
   38       -2.224170
   39       -2.205235
   40       -2.203288
   41       -2.183108
   42       -2.066315
   43       -2.064210
   44       -1.730851
   45       -1.715339
   46       -1.711323
   47       -1.695794
   48       -1.555016
   49       -1.316862
   50       -0.953542
   51       -0.951468
   52       -0.835330
   53       -0.823795
   54       -0.818550
   55       -0.807859
   56       -0.443204
   57       -0.251689
   58        0.119239
   59        0.120720
   60        0.766239
   61        2.469343
   62        2.843278
   63        2.844584
   64        3.206491
   65        5.334403
   66        5.498382
   67        5.503112
   68        5.723471
   69        8.414086
   70        8.628605
   71        8.632059
   72        8.859653
   73        9.526871
   74        9.905416
   75       10.122697
   76       10.124867
   77       10.396541
   78       10.745689
   79       11.597248
   80       11.600841
   81       11.962040
   82       12.141658
   83       12.300469
   84       12.304258
 
  0.5000000E+00  0.1666667E+00  0.0000000E+00  0.1388889E-01
    1      -14.238341
    2      -14.152126
    3      -14.150485
    4      -14.060646
    5      -13.265327
    6      -13.184719
    7      -13.183182
    8      -13.099431
    9      -12.315227
   10      -12.240301
   11      -12.238556
   12      -12.160959
   13       -9.643044
   14       -9.588118
   15       -9.586588
   16       -9.530616
   17       -7.756534
   18       -7.720529
   19       -7.718077
   20       -7.681156
   21       -5.461894
   22       -5.434194
   23       -5.433279
   24       -5.403878
   25       -5.299128
   26       -5.269413
   27       -5.265258
   28       -5.235293
   29       -4.311128
   30       -4.278430
   31       -4.277615
   32       -4.244455
   33       -3.256072
   34       -3.235416
   35       -3.234074
   36       -3.212460
   37       -2.704342
   38       -2.219979
   39       -2.200329
   40       -2.200080
   41       -2.179231
   42       -2.067668
   43       -2.065654
   44       -1.726566
   45       -1.711186
   46       -1.706534
   47       -1.691307
   48       -1.553107
   49       -1.318298
   50       -0.951708
   51       -0.949492
   52       -0.839134
   53       -0.827917
   54       -0.824198
   55       -0.812908
   56       -0.444751
   57       -0.249799
   58        0.117575
   59        0.118927
   60        0.764236
   61        2.472028
   62        2.848193
   63        2.849481
   64        3.215220
   65        5.329385
   66        5.496898
   67        5.500025
   68        5.721758
   69        8.411527
   70        8.626064
   71        8.630193
   72        8.858700
   73        9.525107
   74        9.904570
   75       10.120701
   76       10.122749
   77       10.393477
   78       10.748152
   79       11.595800
   80       11.599333
   81       11.960711
   82       12.140612
   83       12.300220
   84       12.304079
 
 -0.3333333E+00  0.1666667E+00  0.0000000E+00  0.1388889E-01
    1      -14.893080
    2      -14.803029
    3      -14.801380
    4      -14.707325
    5      -12.001589
    6      -11.995816
    7      -11.928578
    8      -11.926839
    9      -11.922706
   10      -11.921153
   11      -11.851331
   12      -11.845546
   13       -9.659288
   14       -9.624617
   15       -9.623033
   16       -9.592046
   17       -8.630827
   18       -8.611402
   19       -8.609679
   20       -8.583391
   21       -6.451659
   22       -6.446303
   23       -6.409112
   24       -6.405696
   25       -6.402278
   26       -6.402066
   27       -6.362152
   28       -6.357042
   29       -4.032491
   30       -4.005094
   31       -4.003482
   32       -3.975418
   33       -3.490829
   34       -2.835152
   35       -2.833301
   36       -2.364377
   37       -2.351658
   38       -2.346900
   39       -2.342764
   40       -2.332756
   41       -2.331932
   42       -2.325325
   43       -2.312898
   44       -2.058132
   45       -0.502031
   46       -0.493269
   47       -0.491475
   48       -0.483050
   49       -0.115869
   50       -0.109506
   51        0.170182
   52        0.175887
   53        0.177571
   54        0.183703
   55        0.421483
   56        0.422699
   57        0.427717
   58        0.430270
   59        1.029690
   60        1.037181
   61        2.163341
   62        2.444419
   63        2.446312
   64        2.658923
   65        5.592125
   66        5.641945
   67        5.644011
   68        5.859868
   69        7.617568
   70        7.620276
   71        7.909079
   72        7.913179
   73        7.913563
   74        7.915094
   75        8.281014
   76        8.282218
   77        8.704475
   78       10.876211
   79       10.879127
   80       12.238715
   81       12.245592
   82       12.427058
   83       12.475461
   84       12.484577
 
 -0.1666667E+00  0.1666667E+00  0.0000000E+00  0.1388889E-01
    1      -15.222260
    2      -15.130264
    3      -15.128610
    4      -15.032429
    5      -11.385715
    6      -11.316877
    7      -11.315203
    8      -11.244151
    9      -10.503342
   10      -10.501394
   11      -10.444036
   12      -10.440326
   13      -10.440298
   14      -10.440095
   15      -10.379730
   16      -10.377757
   17       -8.394398
   18       -8.392720
   19       -8.346878
   20       -8.344494
   21       -8.344478
   22       -8.343452
   23       -8.294766
   24       -8.293020
   25       -7.556740
   26       -7.508802
   27       -7.505598
   28       -7.456284
   29       -3.888786
   30       -3.223996
   31       -3.222156
   32       -2.695361
   33       -2.692691
   34       -2.677213
   35       -2.672968
   36       -2.672344
   37       -2.672338
   38       -2.654320
   39       -2.652473
   40       -2.434522
   41       -2.027712
   42       -2.012413
   43       -2.011710
   44       -1.996263
   45        0.510136
   46        0.527694
   47        0.536365
   48        0.541184
   49        0.548825
   50        0.850497
   51        0.857813
   52        0.860062
   53        0.868828
   54        0.991940
   55        0.993133
   56        1.360792
   57        1.362792
   58        1.510822
   59        1.736695
   60        1.741176
   61        1.741663
   62        1.742147
   63        2.100151
   64        2.102565
   65        5.924042
   66        5.926763
   67        6.139272
   68        6.141293
   69        6.141601
   70        6.144999
   71        6.521267
   72        6.523727
   73        6.658866
   74        6.958972
   75        6.963611
   76        7.391279
   77        8.294024
   78       10.501262
   79       10.504318
   80       11.577496
   81       11.699659
   82       11.700468
   83       11.818812
   84       12.187592
 
  0.0000000E+00  0.3333333E+00  0.0000000E+00  0.1388889E-01
    1      -14.728368
    2      -14.639283
    3      -14.637635
    4      -14.544640
    5      -12.785509
    6      -12.707740
    7      -12.706083
    8      -12.625429
    9      -10.932094
   10      -10.927861
   11      -10.866968
   12      -10.863920
   13      -10.860767
   14      -10.860508
   15      -10.796208
   16      -10.791926
   17       -7.223558
   18       -7.215034
   19       -7.180848
   20       -7.176766
   21       -7.170449
   22       -7.169583
   23       -7.132646
   24       -7.124266
   25       -5.440495
   26       -5.401025
   27       -5.399356
   28       -5.359095
   29       -3.848927
   30       -3.835925
   31       -3.823690
   32       -3.820073
   33       -3.809037
   34       -3.808743
   35       -3.794104
   36       -3.781253
   37       -3.292384
   38       -2.641438
   39       -2.639598
   40       -1.870931
   41       -1.568318
   42       -1.554219
   43       -1.552551
   44       -1.538360
   45       -1.114598
   46       -1.096708
   47       -1.094797
   48       -1.076810
   49       -1.002598
   50       -0.423820
   51       -0.422042
   52        0.049511
   53        0.060093
   54        0.061739
   55        0.072466
   56        0.245436
   57        1.071185
   58        1.075586
   59        1.540556
   60        1.542727
   61        1.547035
   62        1.548501
   63        2.052177
   64        2.059015
   65        6.470273
   66        6.473714
   67        6.711962
   68        6.717515
   69        6.717829
   70        6.720515
   71        7.016734
   72        7.020778
   73        8.819102
   74        8.909085
   75        9.100914
   76        9.103172
   77        9.466526
   78       11.054616
   79       11.057438
   80       11.304956
   81       11.827655
   82       11.888924
   83       11.890702
   84       12.095137
 
  0.1666667E+00  0.3333333E+00  0.0000000E+00  0.1388889E-01
    1      -14.237194
    2      -14.150971
    3      -14.149354
    4      -14.059506
    5      -13.267015
    6      -13.186487
    7      -13.184783
    8      -13.101110
    9      -12.313977
   10      -12.238978
   11      -12.237378
   12      -12.159707
   13       -9.646376
   14       -9.591547
   15       -9.590232
   16       -9.534397
   17       -7.758895
   18       -7.723345
   19       -7.720175
   20       -7.683670
   21       -5.455582
   22       -5.427437
   23       -5.427106
   24       -5.397240
   25       -5.289981
   26       -5.258681
   27       -5.258312
   28       -5.226756
   29       -4.307944
   30       -4.276012
   31       -4.273699
   32       -4.241285
   33       -3.267124
   34       -3.247509
   35       -3.244318
   36       -3.223789
   37       -2.702884
   38       -2.224930
   39       -2.205292
   40       -2.205131
   41       -2.184339
   42       -2.066234
   43       -2.064207
   44       -1.728893
   45       -1.712136
   46       -1.711316
   47       -1.694392
   48       -1.554816
   49       -1.316809
   50       -0.953136
   51       -0.951417
   52       -0.833345
   53       -0.822088
   54       -0.818547
   55       -0.807241
   56       -0.443502
   57       -0.251407
   58        0.118638
   59        0.120621
   60        0.765813
   61        2.468916
   62        2.842884
   63        2.844082
   64        3.206068
   65        5.334778
   66        5.499676
   67        5.503140
   68        5.724365
   69        8.415195
   70        8.630659
   71        8.632217
   72        8.860792
   73        9.526870
   74        9.904395
   75       10.121212
   76       10.124511
   77       10.395586
   78       10.745726
   79       11.597414
   80       11.600996
   81       11.962012
   82       12.141346
   83       12.300051
   84       12.303941
 
  0.3333333E+00  0.3333333E+00  0.0000000E+00  0.1388889E-01
    1      -13.430885
    2      -13.428274
    3      -13.425817
    4      -13.351055
    5      -13.346496
    6      -13.346053
    7      -13.346020
    8      -13.343330
    9      -13.342706
   10      -13.262835
   11      -13.260376
   12      -13.257842
   13       -8.428509
   14       -8.376354
   15       -8.375908
   16       -8.369204
   17       -8.366456
   18       -8.362372
   19       -8.359504
   20       -8.310027
   21       -6.325745
   22       -6.324144
   23       -6.323916
   24       -6.322242
   25       -3.556068
   26       -3.553911
   27       -3.549872
   28       -3.540249
   29       -3.539053
   30       -3.537739
   31       -3.533136
   32       -3.533117
   33       -3.532146
   34       -3.522318
   35       -3.519318
   36       -3.515945
   37       -2.200482
   38       -2.194887
   39       -2.193449
   40       -2.188004
   41       -2.184174
   42       -2.184163
   43       -2.183261
   44       -2.179942
   45       -2.179131
   46       -2.173224
   47       -2.169208
   48       -2.166566
   49       -1.743128
   50       -1.741038
   51       -1.738277
   52       -1.135894
   53       -1.132230
   54       -1.131670
   55       -1.131076
   56       -1.128752
   57       -1.127333
   58       -0.422616
   59       -0.420255
   60       -0.417458
   61        3.745617
   62        4.188493
   63        4.193879
   64        4.195844
   65        4.197542
   66        4.210180
   67        4.212702
   68        4.704266
   69       10.408180
   70       10.411828
   71       10.413944
   72       10.537200
   73       10.549617
   74       10.552413
   75       10.573887
   76       10.574600
   77       10.574949
   78       10.576798
   79       10.576894
   80       10.589054
   81       10.742105
   82       10.745524
   83       10.748564
   84       12.516103
 
  0.5000000E+00  0.3333333E+00  0.0000000E+00  0.1388889E-01
    1      -14.239036
    2      -14.152841
    3      -14.151157
    4      -14.061337
    5      -13.268844
    6      -13.188323
    7      -13.186599
    8      -13.102933
    9      -12.310246
   10      -12.235219
   11      -12.233684
   12      -12.155986
   13       -9.635712
   14       -9.580915
   15       -9.579195
   16       -9.523377
   17       -7.765051
   18       -7.728659
   19       -7.727696
   20       -7.690404
   21       -5.460114
   22       -5.433171
   23       -5.430832
   24       -5.402198
   25       -5.297961
   26       -5.267046
   27       -5.266121
   28       -5.234922
   29       -4.317587
   30       -4.286300
   31       -4.282199
   32       -4.250468
   33       -3.261453
   34       -3.242347
   35       -3.237755
   36       -3.217907
   37       -2.705191
   38       -2.228741
   39       -2.210341
   40       -2.206860
   41       -2.187401
   42       -2.068520
   43       -2.066647
   44       -1.716491
   45       -1.699847
   46       -1.698471
   47       -1.681586
   48       -1.557208
   49       -1.319193
   50       -0.955537
   51       -0.954022
   52       -0.829291
   53       -0.816651
   54       -0.816195
   55       -0.803274
   56       -0.439273
   57       -0.254121
   58        0.122659
   59        0.125025
   60        0.770014
   61        2.477605
   62        2.852549
   63        2.855185
   64        3.218797
   65        5.330886
   66        5.493521
   67        5.494720
   68        5.712271
   69        8.414390
   70        8.627153
   71        8.628402
   72        8.854119
   73        9.524173
   74        9.899593
   75       10.116046
   76       10.120231
   77       10.392732
   78       10.743488
   79       11.593582
   80       11.597251
   81       11.967401
   82       12.137191
   83       12.299804
   84       12.304439
 
 -0.3333333E+00  0.3333333E+00  0.0000000E+00  0.1388889E-01
    1      -14.729283
    2      -14.640210
    3      -14.638530
    4      -14.545549
    5      -12.789229
    6      -12.711500
    7      -12.709767
    8      -12.629149
    9      -10.924495
   10      -10.922784
   11      -10.859246
   12      -10.855970
   13      -10.855927
   14      -10.855782
   15      -10.788627
   16      -10.786917
   17       -7.223500
   18       -7.221785
   19       -7.180046
   20       -7.177742
   21       -7.177733
   22       -7.176471
   23       -7.133196
   24       -7.131328
   25       -5.448285
   26       -5.409561
   27       -5.406084
   28       -5.366582
   29       -3.846131
   30       -3.843973
   31       -3.821367
   32       -3.817759
   33       -3.816560
   34       -3.816555
   35       -3.791227
   36       -3.789632
   37       -3.293553
   38       -2.642582
   39       -2.640813
   40       -1.872140
   41       -1.555397
   42       -1.540799
   43       -1.539891
   44       -1.525148
   45       -1.122761
   46       -1.105653
   47       -1.100564
   48       -1.083719
   49       -1.007332
   50       -0.428588
   51       -0.427200
   52        0.057034
   53        0.067820
   54        0.069759
   55        0.081073
   56        0.240008
   57        1.078822
   58        1.080771
   59        1.547842
   60        1.552102
   61        1.552622
   62        1.553157
   63        2.061668
   64        2.063976
   65        6.468916
   66        6.471372
   67        6.710853
   68        6.712829
   69        6.713085
   70        6.716328
   71        7.011247
   72        7.013769
   73        8.814904
   74        8.907718
   75        9.095641
   76        9.099406
   77        9.463234
   78       11.053016
   79       11.055847
   80       11.302667
   81       11.856688
   82       11.917517
   83       11.918288
   84       12.122252
 
 -0.1666667E+00  0.3333333E+00  0.0000000E+00  0.1388889E-01
    1      -14.893091
    2      -14.803049
    3      -14.801380
    4      -14.707336
    5      -12.001964
    6      -11.995578
    7      -11.929660
    8      -11.926841
    9      -11.921628
   10      -11.921140
   11      -11.851565
   12      -11.845182
   13       -9.660004
   14       -9.625990
   15       -9.623044
   16       -9.592704
   17       -8.629457
   18       -8.609666
   19       -8.608385
   20       -8.581791
   21       -6.452251
   22       -6.446704
   23       -6.410334
   24       -6.405695
   25       -6.402317
   26       -6.402217
   27       -6.362404
   28       -6.357287
   29       -4.033637
   30       -4.007119
   31       -4.003486
   32       -3.976338
   33       -3.490798
   34       -2.835089
   35       -2.833292
   36       -2.363190
   37       -2.352023
   38       -2.344893
   39       -2.342760
   40       -2.332757
   41       -2.332006
   42       -2.324160
   43       -2.312759
   44       -2.058088
   45       -0.506108
   46       -0.496598
   47       -0.491484
   48       -0.484260
   49       -0.116099