<?xml version="1.0" encoding="ISO-8859-1"?>
<modeling>
 <generator>
  <i name="program" type="string">vasp </i>
  <i name="version" type="string">5.3.5  </i>
  <i name="subversion" type="string">31Mar14 (build Nov 02 2014 15:17:37) complex                          parallel </i>
  <i name="platform" type="string">ion-Intel-MKL </i>
  <i name="date" type="string">2016 10 16 </i>
  <i name="time" type="string">19:57:15 </i>
 </generator>
 <incar>
  <i type="string" name="SYSTEM">graphite</i>
  <i type="string" name="PREC">accurate</i>
  <i type="int" name="NELM">   200</i>
  <i type="int" name="IBRION">    -1</i>
  <i name="EDIFF">      0.00000001</i>
  <i name="EDIFFG">      0.00100000</i>
  <i type="int" name="NSW">     0</i>
  <i type="int" name="ISIF">     2</i>
  <i name="ENCUT">    800.00000000</i>
  <i type="int" name="ISMEAR">    -5</i>
  <i type="logical" name="LWAVE"> F  </i>
  <i type="logical" name="LCHARG"> F  </i>
  <i type="int" name="NELM">   200</i>
  <i type="string" name="GGA">PE</i>
 </incar>
 <kpoints>
  <generation param="Gamma">
   <v type="int" name="divisions">       6        6        4 </v>
   <v name="usershift">      0.00000000       0.00000000       0.00000000 </v>
   <v name="genvec1">      0.16666667       0.00000000       0.00000000 </v>
   <v name="genvec2">     -0.00000000       0.16666667       0.00000000 </v>
   <v name="genvec3">      0.00000000       0.00000000       0.25000000 </v>
   <v name="shift">      0.00000000       0.00000000       0.00000000 </v>
  </generation>
  <varray name="kpointlist" >
   <v>       0.00000000       0.00000000       0.00000000 </v>
   <v>       0.16666667       0.00000000       0.00000000 </v>
   <v>       0.33333333       0.00000000       0.00000000 </v>
   <v>       0.50000000       0.00000000       0.00000000 </v>
   <v>       0.00000000       0.16666667       0.00000000 </v>
   <v>       0.16666667       0.16666667       0.00000000 </v>
   <v>       0.33333333       0.16666667       0.00000000 </v>
   <v>       0.50000000       0.16666667       0.00000000 </v>
   <v>      -0.33333333       0.16666667       0.00000000 </v>
   <v>      -0.16666667       0.16666667       0.00000000 </v>
   <v>       0.00000000       0.33333333       0.00000000 </v>
   <v>       0.16666667       0.33333333       0.00000000 </v>
   <v>       0.33333333       0.33333333       0.00000000 </v>
   <v>       0.50000000       0.33333333       0.00000000 </v>
   <v>      -0.33333333       0.33333333       0.00000000 </v>
   <v>      -0.16666667       0.33333333       0.00000000 </v>
   <v>       0.00000000       0.50000000       0.00000000 </v>
   <v>       0.16666667       0.50000000       0.00000000 </v>
   <v>       0.33333333       0.50000000       0.00000000 </v>
   <v>       0.50000000       0.50000000       0.00000000 </v>
   <v>       0.00000000       0.00000000       0.25000000 </v>
   <v>       0.16666667       0.00000000       0.25000000 </v>
   <v>       0.33333333       0.00000000       0.25000000 </v>
   <v>       0.50000000       0.00000000       0.25000000 </v>
   <v>      -0.33333333       0.00000000       0.25000000 </v>
   <v>      -0.16666667       0.00000000       0.25000000 </v>
   <v>       0.00000000       0.16666667       0.25000000 </v>
   <v>       0.16666667       0.16666667       0.25000000 </v>
   <v>       0.33333333       0.16666667       0.25000000 </v>
   <v>       0.50000000       0.16666667       0.25000000 </v>
   <v>      -0.33333333       0.16666667       0.25000000 </v>
   <v>      -0.16666667       0.16666667       0.25000000 </v>
   <v>       0.00000000       0.33333333       0.25000000 </v>
   <v>       0.16666667       0.33333333       0.25000000 </v>
   <v>       0.33333333       0.33333333       0.25000000 </v>
   <v>       0.50000000       0.33333333       0.25000000 </v>
   <v>      -0.33333333       0.33333333       0.25000000 </v>
   <v>      -0.16666667       0.33333333       0.25000000 </v>
   <v>       0.00000000       0.50000000       0.25000000 </v>
   <v>       0.16666667       0.50000000       0.25000000 </v>
   <v>       0.33333333       0.50000000       0.25000000 </v>
   <v>       0.50000000       0.50000000       0.25000000 </v>
   <v>      -0.33333333       0.50000000       0.25000000 </v>
   <v>      -0.16666667       0.50000000       0.25000000 </v>
   <v>       0.00000000      -0.33333333       0.25000000 </v>
   <v>       0.16666667      -0.33333333       0.25000000 </v>
   <v>       0.33333333      -0.33333333       0.25000000 </v>
   <v>       0.50000000      -0.33333333       0.25000000 </v>
   <v>      -0.33333333      -0.33333333       0.25000000 </v>
   <v>      -0.16666667      -0.33333333       0.25000000 </v>
   <v>       0.00000000      -0.16666667       0.25000000 </v>
   <v>       0.16666667      -0.16666667       0.25000000 </v>
   <v>       0.33333333      -0.16666667       0.25000000 </v>
   <v>       0.50000000      -0.16666667       0.25000000 </v>
   <v>      -0.33333333      -0.16666667       0.25000000 </v>
   <v>      -0.16666667      -0.16666667       0.25000000 </v>
   <v>       0.00000000       0.00000000       0.50000000 </v>
   <v>       0.16666667       0.00000000       0.50000000 </v>
   <v>       0.33333333       0.00000000       0.50000000 </v>
   <v>       0.50000000       0.00000000       0.50000000 </v>
   <v>       0.00000000       0.16666667       0.50000000 </v>
   <v>       0.16666667       0.16666667       0.50000000 </v>
   <v>       0.33333333       0.16666667       0.50000000 </v>
   <v>       0.50000000       0.16666667       0.50000000 </v>
   <v>      -0.33333333       0.16666667       0.50000000 </v>
   <v>      -0.16666667       0.16666667       0.50000000 </v>
   <v>       0.00000000       0.33333333       0.50000000 </v>
   <v>       0.16666667       0.33333333       0.50000000 </v>
   <v>       0.33333333       0.33333333       0.50000000 </v>
   <v>       0.50000000       0.33333333       0.50000000 </v>
   <v>      -0.33333333       0.33333333       0.50000000 </v>
   <v>      -0.16666667       0.33333333       0.50000000 </v>
   <v>       0.00000000       0.50000000       0.50000000 </v>
   <v>       0.16666667       0.50000000       0.50000000 </v>
   <v>       0.33333333       0.50000000       0.50000000 </v>
   <v>       0.50000000       0.50000000       0.50000000 </v>
  </varray>
  <varray name="weights" >
   <v>       0.00694444 </v>
   <v>       0.01388889 </v>
   <v>       0.01388889 </v>
   <v>       0.00694444 </v>
   <v>       0.01388889 </v>
   <v>       0.01388889 </v>
   <v>       0.01388889 </v>
   <v>       0.01388889 </v>
   <v>       0.01388889 </v>
   <v>       0.01388889 </v>
   <v>       0.01388889 </v>
   <v>       0.01388889 </v>
   <v>       0.01388889 </v>
   <v>       0.01388889 </v>
   <v>       0.01388889 </v>
   <v>       0.01388889 </v>
   <v>       0.00694444 </v>
   <v>       0.01388889 </v>
   <v>       0.01388889 </v>
   <v>       0.00694444 </v>
   <v>       0.01388889 </v>
   <v>       0.01388889 </v>
   <v>       0.01388889 </v>
   <v>       0.01388889 </v>
   <v>       0.01388889 </v>
   <v>       0.01388889 </v>
   <v>       0.01388889 </v>
   <v>       0.01388889 </v>
   <v>       0.01388889 </v>
   <v>       0.01388889 </v>
   <v>       0.01388889 </v>
   <v>       0.01388889 </v>
   <v>       0.01388889 </v>
   <v>       0.01388889 </v>
   <v>       0.01388889 </v>
   <v>       0.01388889 </v>
   <v>       0.01388889 </v>
   <v>       0.01388889 </v>
   <v>       0.01388889 </v>
   <v>       0.01388889 </v>
   <v>       0.01388889 </v>
   <v>       0.01388889 </v>
   <v>       0.01388889 </v>
   <v>       0.01388889 </v>
   <v>       0.01388889 </v>
   <v>       0.01388889 </v>
   <v>       0.01388889 </v>
   <v>       0.01388889 </v>
   <v>       0.01388889 </v>
   <v>       0.01388889 </v>
   <v>       0.01388889 </v>
   <v>       0.01388889 </v>
   <v>       0.01388889 </v>
   <v>       0.01388889 </v>
   <v>       0.01388889 </v>
   <v>       0.01388889 </v>
   <v>       0.00694444 </v>
   <v>       0.01388889 </v>
   <v>       0.01388889 </v>
   <v>       0.00694444 </v>
   <v>       0.01388889 </v>
   <v>       0.01388889 </v>
   <v>       0.01388889 </v>
   <v>       0.01388889 </v>
   <v>       0.01388889 </v>
   <v>       0.01388889 </v>
   <v>       0.01388889 </v>
   <v>       0.01388889 </v>
   <v>       0.01388889 </v>
   <v>       0.01388889 </v>
   <v>       0.01388889 </v>
   <v>       0.01388889 </v>
   <v>       0.00694444 </v>
   <v>       0.01388889 </v>
   <v>       0.01388889 </v>
   <v>       0.00694444 </v>
  </varray>
  <varray name="tetrahedronlist"  type="int" >
   <v type="int" >        2        2        5        6       27 </v>
   <v type="int" >        2        1        2        5       27 </v>
   <v type="int" >        2        1        2       21       27 </v>
   <v type="int" >        2        2        6       27       28 </v>
   <v type="int" >        2        2       22       27       28 </v>
   <v type="int" >        2        2       21       22       27 </v>
   <v type="int" >        2        3        6        7       28 </v>
   <v type="int" >        2        2        3        6       28 </v>
   <v type="int" >        2        2        3       22       28 </v>
   <v type="int" >        2        3        7       28       29 </v>
   <v type="int" >        2        3       23       28       29 </v>
   <v type="int" >        2        3       22       23       28 </v>
   <v type="int" >        2        4        7        8       29 </v>
   <v type="int" >        2        3        4        7       29 </v>
   <v type="int" >        2        3        4       23       29 </v>
   <v type="int" >        2        4        8       29       30 </v>
   <v type="int" >        2        4       24       29       30 </v>
   <v type="int" >        2        4       23       24       29 </v>
   <v type="int" >        2        3        8        9       30 </v>
   <v type="int" >        2        3        4        8       30 </v>
   <v type="int" >        2        3        4       24       30 </v>
   <v type="int" >        2        3        9       30       31 </v>
   <v type="int" >        2        3       25       30       31 </v>
   <v type="int" >        2        3       24       25       30 </v>
   <v type="int" >        2        2        9       10       31 </v>
   <v type="int" >        2        2        3        9       31 </v>
   <v type="int" >        2        2        3       25       31 </v>
   <v type="int" >        2        2       10       31       32 </v>
   <v type="int" >        2        2       26       31       32 </v>
   <v type="int" >        2        2       25       26       31 </v>
   <v type="int" >        2        1        5       10       32 </v>
   <v type="int" >        2        1        2       10       32 </v>
   <v type="int" >        2        1        2       26       32 </v>
   <v type="int" >        2        1        5       27       32 </v>
   <v type="int" >        2        1       21       27       32 </v>
   <v type="int" >        2        1       21       26       32 </v>
   <v type="int" >        2        6       11       12       33 </v>
   <v type="int" >        2        5        6       11       33 </v>
   <v type="int" >        2        5        6       27       33 </v>
   <v type="int" >        2        6       12       33       34 </v>
   <v type="int" >        2        6       28       33       34 </v>
   <v type="int" >        2        6       27       28       33 </v>
   <v type="int" >        2        7       12       13       34 </v>
   <v type="int" >        2        6        7       12       34 </v>
   <v type="int" >        2        6        7       28       34 </v>
   <v type="int" >        2        7       13       34       35 </v>
   <v type="int" >        2        7       29       34       35 </v>
   <v type="int" >        2        7       28       29       34 </v>
   <v type="int" >        2        8       13       14       35 </v>
   <v type="int" >        2        7        8       13       35 </v>
   <v type="int" >        2        7        8       29       35 </v>
   <v type="int" >        2        8       14       35       36 </v>
   <v type="int" >        2        8       30       35       36 </v>
   <v type="int" >        2        8       29       30       35 </v>
   <v type="int" >        2        9       14       15       36 </v>
   <v type="int" >        2        8        9       14       36 </v>
   <v type="int" >        2        8        9       30       36 </v>
   <v type="int" >        2        9       15       36       37 </v>
   <v type="int" >        2        9       31       36       37 </v>
   <v type="int" >        2        9       30       31       36 </v>
   <v type="int" >        2       10       15       16       37 </v>
   <v type="int" >        2        9       10       15       37 </v>
   <v type="int" >        2        9       10       31       37 </v>
   <v type="int" >        2       10       16       37       38 </v>
   <v type="int" >        2       10       32       37       38 </v>
   <v type="int" >        2       10       31       32       37 </v>
   <v type="int" >        2        5       11       16       38 </v>
   <v type="int" >        2        5       10       16       38 </v>
   <v type="int" >        2        5       10       32       38 </v>
   <v type="int" >        2        5       11       33       38 </v>
   <v type="int" >        2        5       27       33       38 </v>
   <v type="int" >        2        5       27       32       38 </v>
   <v type="int" >        2       12       17       18       39 </v>
   <v type="int" >        2       11       12       17       39 </v>
   <v type="int" >        2       11       12       33       39 </v>
   <v type="int" >        2       12       18       39       40 </v>
   <v type="int" >        2       12       34       39       40 </v>
   <v type="int" >        2       12       33       34       39 </v>
   <v type="int" >        2       13       18       19       40 </v>
   <v type="int" >        2       12       13       18       40 </v>
   <v type="int" >        2       12       13       34       40 </v>
   <v type="int" >        2       13       19       40       41 </v>
   <v type="int" >        2       13       35       40       41 </v>
   <v type="int" >        2       13       34       35       40 </v>
   <v type="int" >        2       14       19       20       41 </v>
   <v type="int" >        2       13       14       19       41 </v>
   <v type="int" >        2       13       14       35       41 </v>
   <v type="int" >        2       14       20       41       42 </v>
   <v type="int" >        2       14       36       41       42 </v>
   <v type="int" >        2       14       35       36       41 </v>
   <v type="int" >        2       15       19       20       42 </v>
   <v type="int" >        2       14       15       20       42 </v>
   <v type="int" >        2       14       15       36       42 </v>
   <v type="int" >        2       15       19       42       43 </v>
   <v type="int" >        2       15       37       42       43 </v>
   <v type="int" >        2       15       36       37       42 </v>
   <v type="int" >        2       16       18       19       43 </v>
   <v type="int" >        2       15       16       19       43 </v>
   <v type="int" >        2       15       16       37       43 </v>
   <v type="int" >        2       16       18       43       44 </v>
   <v type="int" >        2       16       38       43       44 </v>
   <v type="int" >        2       16       37       38       43 </v>
   <v type="int" >        2       11       17       18       44 </v>
   <v type="int" >        2       11       16       18       44 </v>
   <v type="int" >        2       11       16       38       44 </v>
   <v type="int" >        2       11       17       39       44 </v>
   <v type="int" >        2       11       33       39       44 </v>
   <v type="int" >        2       11       33       38       44 </v>
   <v type="int" >        2       11       16       18       45 </v>
   <v type="int" >        2       11       17       18       45 </v>
   <v type="int" >        2       17       18       39       45 </v>
   <v type="int" >        2       16       18       45       46 </v>
   <v type="int" >        2       18       40       45       46 </v>
   <v type="int" >        2       18       39       40       45 </v>
   <v type="int" >        2       15       16       19       46 </v>
   <v type="int" >        2       16       18       19       46 </v>
   <v type="int" >        2       18       19       40       46 </v>
   <v type="int" >        2       15       19       46       47 </v>
   <v type="int" >        2       19       41       46       47 </v>
   <v type="int" >        2       19       40       41       46 </v>
   <v type="int" >        2       14       15       20       47 </v>
   <v type="int" >        2       15       19       20       47 </v>
   <v type="int" >        2       19       20       41       47 </v>
   <v type="int" >        2       14       20       47       48 </v>
   <v type="int" >        2       20       42       47       48 </v>
   <v type="int" >        2       20       41       42       47 </v>
   <v type="int" >        2       13       14       19       48 </v>
   <v type="int" >        2       14       19       20       48 </v>
   <v type="int" >        2       19       20       42       48 </v>
   <v type="int" >        2       13       19       48       49 </v>
   <v type="int" >        2       19       43       48       49 </v>
   <v type="int" >        2       19       42       43       48 </v>
   <v type="int" >        2       12       13       18       49 </v>
   <v type="int" >        2       13       18       19       49 </v>
   <v type="int" >        2       18       19       43       49 </v>
   <v type="int" >        2       12       18       49       50 </v>
   <v type="int" >        2       18       44       49       50 </v>
   <v type="int" >        2       18       43       44       49 </v>
   <v type="int" >        2       11       12       17       50 </v>
   <v type="int" >        2       12       17       18       50 </v>
   <v type="int" >        2       17       18       44       50 </v>
   <v type="int" >        2       11       17       45       50 </v>
   <v type="int" >        2       17       39       45       50 </v>
   <v type="int" >        2       17       39       44       50 </v>
   <v type="int" >        2        5       10       16       51 </v>
   <v type="int" >        2        5       11       16       51 </v>
   <v type="int" >        2       11       16       45       51 </v>
   <v type="int" >        2       10       16       51       52 </v>
   <v type="int" >        2       16       46       51       52 </v>
   <v type="int" >        2       16       45       46       51 </v>
   <v type="int" >        2        9       10       15       52 </v>
   <v type="int" >        2       10       15       16       52 </v>
   <v type="int" >        2       15       16       46       52 </v>
   <v type="int" >        2        9       15       52       53 </v>
   <v type="int" >        2       15       47       52       53 </v>
   <v type="int" >        2       15       46       47       52 </v>
   <v type="int" >        2        8        9       14       53 </v>
   <v type="int" >        2        9       14       15       53 </v>
   <v type="int" >        2       14       15       47       53 </v>
   <v type="int" >        2        8       14       53       54 </v>
   <v type="int" >        2       14       48       53       54 </v>
   <v type="int" >        2       14       47       48       53 </v>
   <v type="int" >        2        7        8       13       54 </v>
   <v type="int" >        2        8       13       14       54 </v>
   <v type="int" >        2       13       14       48       54 </v>
   <v type="int" >        2        7       13       54       55 </v>
   <v type="int" >        2       13       49       54       55 </v>
   <v type="int" >        2       13       48       49       54 </v>
   <v type="int" >        2        6        7       12       55 </v>
   <v type="int" >        2        7       12       13       55 </v>
   <v type="int" >        2       12       13       49       55 </v>
   <v type="int" >        2        6       12       55       56 </v>
   <v type="int" >        2       12       50       55       56 </v>
   <v type="int" >        2       12       49       50       55 </v>
   <v type="int" >        2        5        6       11       56 </v>
   <v type="int" >        2        6       11       12       56 </v>
   <v type="int" >        2       11       12       50       56 </v>
   <v type="int" >        2        5       11       51       56 </v>
   <v type="int" >        2       11       45       51       56 </v>
   <v type="int" >        2       11       45       50       56 </v>
   <v type="int" >        2        1        2       10       21 </v>
   <v type="int" >        2        1        5       10       21 </v>
   <v type="int" >        2        5       10       21       51 </v>
   <v type="int" >        2        2       10       21       22 </v>
   <v type="int" >        2       10       21       22       52 </v>
   <v type="int" >        2       10       21       51       52 </v>
   <v type="int" >        2        2        3        9       22 </v>
   <v type="int" >        2        2        9       10       22 </v>
   <v type="int" >        2        9       10       22       52 </v>
   <v type="int" >        2        3        9       22       23 </v>
   <v type="int" >        2        9       22       23       53 </v>
   <v type="int" >        2        9       22       52       53 </v>
   <v type="int" >        2        3        4        8       23 </v>
   <v type="int" >        2        3        8        9       23 </v>
   <v type="int" >        2        8        9       23       53 </v>
   <v type="int" >        2        4        8       23       24 </v>
   <v type="int" >        2        8       23       24       54 </v>
   <v type="int" >        2        8       23       53       54 </v>
   <v type="int" >        2        3        4        7       24 </v>
   <v type="int" >        2        4        7        8       24 </v>
   <v type="int" >        2        7        8       24       54 </v>
   <v type="int" >        2        3        7       24       25 </v>
   <v type="int" >        2        7       24       25       55 </v>
   <v type="int" >        2        7       24       54       55 </v>
   <v type="int" >        2        2        3        6       25 </v>
   <v type="int" >        2        3        6        7       25 </v>
   <v type="int" >        2        6        7       25       55 </v>
   <v type="int" >        2        2        6       25       26 </v>
   <v type="int" >        2        6       25       26       56 </v>
   <v type="int" >        2        6       25       55       56 </v>
   <v type="int" >        2        1        2        5       26 </v>
   <v type="int" >        2        2        5        6       26 </v>
   <v type="int" >        2        5        6       26       56 </v>
   <v type="int" >        2        1        5       21       26 </v>
   <v type="int" >        2        5       21       26       51 </v>
   <v type="int" >        2        5       26       51       56 </v>
   <v type="int" >        2       22       27       28       61 </v>
   <v type="int" >        2       21       22       27       61 </v>
   <v type="int" >        2       21       22       57       61 </v>
   <v type="int" >        2       22       28       61       62 </v>
   <v type="int" >        2       22       58       61       62 </v>
   <v type="int" >        2       22       57       58       61 </v>
   <v type="int" >        2       23       28       29       62 </v>
   <v type="int" >        2       22       23       28       62 </v>
   <v type="int" >        2       22       23       58       62 </v>
   <v type="int" >        2       23       29       62       63 </v>
   <v type="int" >        2       23       59       62       63 </v>
   <v type="int" >        2       23       58       59       62 </v>
   <v type="int" >        2       24       29       30       63 </v>
   <v type="int" >        2       23       24       29       63 </v>
   <v type="int" >        2       23       24       59       63 </v>
   <v type="int" >        2       24       30       63       64 </v>
   <v type="int" >        2       24       60       63       64 </v>
   <v type="int" >        2       24       59       60       63 </v>
   <v type="int" >        2       25       30       31       64 </v>
   <v type="int" >        2       24       25       30       64 </v>
   <v type="int" >        2       24       25       60       64 </v>
   <v type="int" >        2       25       31       64       65 </v>
   <v type="int" >        2       25       59       64       65 </v>
   <v type="int" >        2       25       59       60       64 </v>
   <v type="int" >        2       26       31       32       65 </v>
   <v type="int" >        2       25       26       31       65 </v>
   <v type="int" >        2       25       26       59       65 </v>
   <v type="int" >        2       26       32       65       66 </v>
   <v type="int" >        2       26       58       65       66 </v>
   <v type="int" >        2       26       58       59       65 </v>
   <v type="int" >        2       21       27       32       66 </v>
   <v type="int" >        2       21       26       32       66 </v>
   <v type="int" >        2       21       26       58       66 </v>
   <v type="int" >        2       21       27       61       66 </v>
   <v type="int" >        2       21       57       61       66 </v>
   <v type="int" >        2       21       57       58       66 </v>
   <v type="int" >        2       28       33       34       67 </v>
   <v type="int" >        2       27       28       33       67 </v>
   <v type="int" >        2       27       28       61       67 </v>
   <v type="int" >        2       28       34       67       68 </v>
   <v type="int" >        2       28       62       67       68 </v>
   <v type="int" >        2       28       61       62       67 </v>
   <v type="int" >        2       29       34       35       68 </v>
   <v type="int" >        2       28       29       34       68 </v>
   <v type="int" >        2       28       29       62       68 </v>
   <v type="int" >        2       29       35       68       69 </v>
   <v type="int" >        2       29       63       68       69 </v>
   <v type="int" >        2       29       62       63       68 </v>
   <v type="int" >        2       30       35       36       69 </v>
   <v type="int" >        2       29       30       35       69 </v>
   <v type="int" >        2       29       30       63       69 </v>
   <v type="int" >        2       30       36       69       70 </v>
   <v type="int" >        2       30       64       69       70 </v>
   <v type="int" >        2       30       63       64       69 </v>
   <v type="int" >        2       31       36       37       70 </v>
   <v type="int" >        2       30       31       36       70 </v>
   <v type="int" >        2       30       31       64       70 </v>
   <v type="int" >        2       31       37       70       71 </v>
   <v type="int" >        2       31       65       70       71 </v>
   <v type="int" >        2       31       64       65       70 </v>
   <v type="int" >        2       32       37       38       71 </v>
   <v type="int" >        2       31       32       37       71 </v>
   <v type="int" >        2       31       32       65       71 </v>
   <v type="int" >        2       32       38       71       72 </v>
   <v type="int" >        2       32       66       71       72 </v>
   <v type="int" >        2       32       65       66       71 </v>
   <v type="int" >        2       27       33       38       72 </v>
   <v type="int" >        2       27       32       38       72 </v>
   <v type="int" >        2       27       32       66       72 </v>
   <v type="int" >        2       27       33       67       72 </v>
   <v type="int" >        2       27       61       67       72 </v>
   <v type="int" >        2       27       61       66       72 </v>
   <v type="int" >        2       34       39       40       73 </v>
   <v type="int" >        2       33       34       39       73 </v>
   <v type="int" >        2       33       34       67       73 </v>
   <v type="int" >        2       34       40       73       74 </v>
   <v type="int" >        2       34       68       73       74 </v>
   <v type="int" >        2       34       67       68       73 </v>
   <v type="int" >        2       35       40       41       74 </v>
   <v type="int" >        2       34       35       40       74 </v>
   <v type="int" >        2       34       35       68       74 </v>
   <v type="int" >        2       35       41       74       75 </v>
   <v type="int" >        2       35       69       74       75 </v>
   <v type="int" >        2       35       68       69       74 </v>
   <v type="int" >        2       36       41       42       75 </v>
   <v type="int" >        2       35       36       41       75 </v>
   <v type="int" >        2       35       36       69       75 </v>
   <v type="int" >        2       36       42       75       76 </v>
   <v type="int" >        2       36       70       75       76 </v>
   <v type="int" >        2       36       69       70       75 </v>
   <v type="int" >        2       37       42       43       76 </v>
   <v type="int" >        2       36       37       42       76 </v>
   <v type="int" >        2       36       37       70       76 </v>
   <v type="int" >        2       37       43       75       76 </v>
   <v type="int" >        2       37       71       75       76 </v>
   <v type="int" >        2       37       70       71       76 </v>
   <v type="int" >        2       38       43       44       75 </v>
   <v type="int" >        2       37       38       43       75 </v>
   <v type="int" >        2       37       38       71       75 </v>
   <v type="int" >        2       38       44       74       75 </v>
   <v type="int" >        2       38       72       74       75 </v>
   <v type="int" >        2       38       71       72       75 </v>
   <v type="int" >        2       33       39       44       74 </v>
   <v type="int" >        2       33       38       44       74 </v>
   <v type="int" >        2       33       38       72       74 </v>
   <v type="int" >        2       33       39       73       74 </v>
   <v type="int" >        2       33       67       73       74 </v>
   <v type="int" >        2       33       67       72       74 </v>
   <v type="int" >        2       40       45       46       67 </v>
   <v type="int" >        2       39       40       45       67 </v>
   <v type="int" >        2       39       40       67       73 </v>
   <v type="int" >        2       40       46       67       72 </v>
   <v type="int" >        2       40       67       72       74 </v>
   <v type="int" >        2       40       67       73       74 </v>
   <v type="int" >        2       41       46       47       72 </v>
   <v type="int" >        2       40       41       46       72 </v>
   <v type="int" >        2       40       41       72       74 </v>
   <v type="int" >        2       41       47       71       72 </v>
   <v type="int" >        2       41       71       72       75 </v>
   <v type="int" >        2       41       72       74       75 </v>
   <v type="int" >        2       42       47       48       71 </v>
   <v type="int" >        2       41       42       47       71 </v>
   <v type="int" >        2       41       42       71       75 </v>
   <v type="int" >        2       42       48       70       71 </v>
   <v type="int" >        2       42       70       71       76 </v>
   <v type="int" >        2       42       71       75       76 </v>
   <v type="int" >        2       43       48       49       70 </v>
   <v type="int" >        2       42       43       48       70 </v>
   <v type="int" >        2       42       43       70       76 </v>
   <v type="int" >        2       43       49       69       70 </v>
   <v type="int" >        2       43       69       70       75 </v>
   <v type="int" >        2       43       70       75       76 </v>
   <v type="int" >        2       44       49       50       69 </v>
   <v type="int" >        2       43       44       49       69 </v>
   <v type="int" >        2       43       44       69       75 </v>
   <v type="int" >        2       44       50       68       69 </v>
   <v type="int" >        2       44       68       69       74 </v>
   <v type="int" >        2       44       69       74       75 </v>
   <v type="int" >        2       39       45       50       68 </v>
   <v type="int" >        2       39       44       50       68 </v>
   <v type="int" >        2       39       44       68       74 </v>
   <v type="int" >        2       39       45       67       68 </v>
   <v type="int" >        2       39       67       68       73 </v>
   <v type="int" >        2       39       68       73       74 </v>
   <v type="int" >        2       46       51       52       61 </v>
   <v type="int" >        2       45       46       51       61 </v>
   <v type="int" >        2       45       46       61       67 </v>
   <v type="int" >        2       46       52       61       66 </v>
   <v type="int" >        2       46       61       66       72 </v>
   <v type="int" >        2       46       61       67       72 </v>
   <v type="int" >        2       47       52       53       66 </v>
   <v type="int" >        2       46       47       52       66 </v>
   <v type="int" >        2       46       47       66       72 </v>
   <v type="int" >        2       47       53       65       66 </v>
   <v type="int" >        2       47       65       66       71 </v>
   <v type="int" >        2       47       66       71       72 </v>
   <v type="int" >        2       48       53       54       65 </v>
   <v type="int" >        2       47       48       53       65 </v>
   <v type="int" >        2       47       48       65       71 </v>
   <v type="int" >        2       48       54       64       65 </v>
   <v type="int" >        2       48       64       65       70 </v>
   <v type="int" >        2       48       65       70       71 </v>
   <v type="int" >        2       49       54       55       64 </v>
   <v type="int" >        2       48       49       54       64 </v>
   <v type="int" >        2       48       49       64       70 </v>
   <v type="int" >        2       49       55       63       64 </v>
   <v type="int" >        2       49       63       64       69 </v>
   <v type="int" >        2       49       64       69       70 </v>
   <v type="int" >        2       50       55       56       63 </v>
   <v type="int" >        2       49       50       55       63 </v>
   <v type="int" >        2       49       50       63       69 </v>
   <v type="int" >        2       50       56       62       63 </v>
   <v type="int" >        2       50       62       63       68 </v>
   <v type="int" >        2       50       63       68       69 </v>
   <v type="int" >        2       45       51       56       62 </v>
   <v type="int" >        2       45       50       56       62 </v>
   <v type="int" >        2       45       50       62       68 </v>
   <v type="int" >        2       45       51       61       62 </v>
   <v type="int" >        2       45       61       62       67 </v>
   <v type="int" >        2       45       62       67       68 </v>
   <v type="int" >        2       21       22       52       57 </v>
   <v type="int" >        2       21       51       52       57 </v>
   <v type="int" >        2       51       52       57       61 </v>
   <v type="int" >        2       22       52       57       58 </v>
   <v type="int" >        2       52       57       58       66 </v>
   <v type="int" >        2       52       57       61       66 </v>
   <v type="int" >        2       22       23       53       58 </v>
   <v type="int" >        2       22       52       53       58 </v>
   <v type="int" >        2       52       53       58       66 </v>
   <v type="int" >        2       23       53       58       59 </v>
   <v type="int" >        2       53       58       59       65 </v>
   <v type="int" >        2       53       58       65       66 </v>
   <v type="int" >        2       23       24       54       59 </v>
   <v type="int" >        2       23       53       54       59 </v>
   <v type="int" >        2       53       54       59       65 </v>
   <v type="int" >        2       24       54       59       60 </v>
   <v type="int" >        2       54       59       60       64 </v>
   <v type="int" >        2       54       59       64       65 </v>
   <v type="int" >        2       24       25       55       60 </v>
   <v type="int" >        2       24       54       55       60 </v>
   <v type="int" >        2       54       55       60       64 </v>
   <v type="int" >        2       25       55       59       60 </v>
   <v type="int" >        2       55       59       60       63 </v>
   <v type="int" >        2       55       60       63       64 </v>
   <v type="int" >        2       25       26       56       59 </v>
   <v type="int" >        2       25       55       56       59 </v>
   <v type="int" >        2       55       56       59       63 </v>
   <v type="int" >        2       26       56       58       59 </v>
   <v type="int" >        2       56       58       59       62 </v>
   <v type="int" >        2       56       59       62       63 </v>
   <v type="int" >        2       21       26       51       58 </v>
   <v type="int" >        2       26       51       56       58 </v>
   <v type="int" >        2       51       56       58       62 </v>
   <v type="int" >        2       21       51       57       58 </v>
   <v type="int" >        2       51       57       58       61 </v>
   <v type="int" >        2       51       58       61       62 </v>
  </varray>
  <i name="volumeweight">      0.00115741 </i>
 </kpoints>
 <parameters>
  <separator name="general" >
   <i type="string" name="SYSTEM">graphite</i>
   <i type="logical" name="LCOMPAT"> F  </i>
  </separator>
  <separator name="electronic" >
   <i type="string" name="PREC">accura</i>
   <i name="ENMAX">    800.00000000</i>
   <i name="ENAUG">    644.87300000</i>
   <i name="EDIFF">      0.00000001</i>
   <i type="int" name="IALGO">    38</i>
   <i type="int" name="IWAVPR">    10</i>
   <i type="int" name="NBANDS">    84</i>
   <i name="NELECT">    128.00000000</i>
   <i type="int" name="TURBO">     0</i>
   <i type="int" name="IRESTART">     0</i>
   <i type="int" name="NREBOOT">     0</i>
   <i type="int" name="NMIN">     0</i>
   <i name="EREF">      0.00000000</i>
   <separator name="electronic smearing" >
    <i type="int" name="ISMEAR">    -5</i>
    <i name="SIGMA">      0.20000000</i>
    <i name="KSPACING">      0.50000000</i>
    <i type="logical" name="KGAMMA"> T  </i>
   </separator>
   <separator name="electronic projectors" >
    <i type="logical" name="LREAL"> F  </i>
    <v name="ROPT">      0.00000000</v>
    <i type="int" name="LMAXPAW">  -100</i>
    <i type="int" name="LMAXMIX">     2</i>
    <i type="logical" name="NLSPLINE"> F  </i>
   </separator>
   <separator name="electronic startup" >
    <i type="int" name="ISTART">     0</i>
    <i type="int" name="ICHARG">     2</i>
    <i type="int" name="INIWAV">     1</i>
   </separator>
   <separator name="electronic spin" >
    <i type="int" name="ISPIN">     1</i>
    <i type="logical" name="LNONCOLLINEAR"> F  </i>
    <v name="MAGMOM">      1.00000000      1.00000000      1.00000000      1.00000000      1.00000000      1.00000000      1.00000000      1.00000000      1.00000000      1.00000000      1.00000000      1.00000000      1.00000000      1.00000000      1.00000000      1.00000000      1.00000000      1.00000000      1.00000000      1.00000000
      1.00000000      1.00000000      1.00000000      1.00000000      1.00000000      1.00000000      1.00000000      1.00000000      1.00000000      1.00000000      1.00000000      1.00000000</v>
    <i name="NUPDOWN">     -1.00000000</i>
    <i type="logical" name="LSORBIT"> F  </i>
    <v name="SAXIS">      0.00000000      0.00000000      1.00000000</v>
    <i type="logical" name="LSPIRAL"> F  </i>
    <v name="QSPIRAL">      0.00000000      0.00000000      0.00000000</v>
    <i type="logical" name="LZEROZ"> F  </i>
   </separator>
   <separator name="electronic exchange-correlation" >
    <i type="logical" name="LASPH"> F  </i>
    <i type="logical" name="LMETAGGA"> F  </i>
   </separator>
   <separator name="electronic convergence" >
    <i type="int" name="NELM">   200</i>
    <i type="int" name="NELMDL">     0</i>
    <i type="int" name="NELMIN">     2</i>
    <i name="ENINI">    800.00000000</i>
    <separator name="electronic convergence detail" >
     <i type="logical" name="LDIAG"> T  </i>
     <i type="logical" name="LSUBROT"> F  </i>
     <i name="WEIMIN">      0.00000000</i>
     <i name="EBREAK">      0.00000000</i>
     <i name="DEPER">      0.30000000</i>
     <i type="int" name="NRMM">     4</i>
     <i name="TIME">      0.40000000</i>
    </separator>
   </separator>
   <separator name="electronic mixer" >
    <i name="AMIX">      0.40000000</i>
    <i name="BMIX">      1.00000000</i>
    <i name="AMIN">      0.10000000</i>
    <i name="AMIX_MAG">      1.60000000</i>
    <i name="BMIX_MAG">      1.00000000</i>
    <separator name="electronic mixer details" >
     <i type="int" name="IMIX">     4</i>
     <i type="int" name="MAXMIX">   -45</i>
     <i name="WC">    100.00000000</i>
     <i type="int" name="INIMIX">     1</i>
     <i type="int" name="MIXPRE">     1</i>
     <i type="int" name="MREMOVE">     5</i>
    </separator>
   </separator>
   <separator name="electronic dipolcorrection" >
    <i type="logical" name="LDIPOL"> F  </i>
    <i type="logical" name="LMONO"> F  </i>
    <i type="int" name="IDIPOL">     0</i>
    <i name="EPSILON">      1.00000000</i>
    <v name="DIPOL">   -100.00000000   -100.00000000   -100.00000000</v>
    <i name="EFIELD">      0.00000000</i>
   </separator>
  </separator>
  <separator name="grids" >
   <i type="int" name="NGX">    48</i>
   <i type="int" name="NGY">    48</i>
   <i type="int" name="NGZ">   140</i>
   <i type="int" name="NGXF">    96</i>
   <i type="int" name="NGYF">    96</i>
   <i type="int" name="NGZF">   280</i>
   <i type="logical" name="ADDGRID"> F  </i>
  </separator>
  <separator name="ionic" >
   <i type="int" name="NSW">     0</i>
   <i type="int" name="IBRION">    -1</i>
   <i type="int" name="ISIF">     2</i>
   <i name="PSTRESS">      0.00000000</i>
   <i name="EDIFFG">      0.00100000</i>
   <i type="int" name="NFREE">     0</i>
   <i name="POTIM">      0.50000000</i>
   <i name="SMASS">     -3.00000000</i>
   <i name="SCALEE">      1.00000000</i>
  </separator>
  <separator name="ionic md" >
   <i name="TEBEG">      0.00010000</i>
   <i name="TEEND">      0.00010000</i>
   <i type="int" name="NBLOCK">     1</i>
   <i type="int" name="KBLOCK">     1</i>
   <i type="int" name="NPACO">   256</i>
   <i name="APACO">     16.00000000</i>
  </separator>
  <separator name="symmetry" >
   <i type="int" name="ISYM">     2</i>
   <i name="SYMPREC">      0.00001000</i>
  </separator>
  <separator name="dos" >
   <i type="logical" name="LORBIT"> F  </i>
   <v name="RWIGS">     -1.00000000</v>
   <i type="int" name="NEDOS">   301</i>
   <i name="EMIN">     10.00000000</i>
   <i name="EMAX">    -10.00000000</i>
   <i name="EFERMI">      0.00000000</i>
  </separator>
  <separator name="writing" >
   <i type="int" name="NWRITE">     2</i>
   <i type="logical" name="LWAVE"> F  </i>
   <i type="logical" name="LCHARG"> F  </i>
   <i type="logical" name="LPARD"> F  </i>
   <i type="logical" name="LVTOT"> F  </i>
   <i type="logical" name="LVHAR"> F  </i>
   <i type="logical" name="LELF"> F  </i>
   <i type="logical" name="LOPTICS"> F  </i>
   <v name="STM">      0.00000000      0.00000000      0.00000000      0.00000000      0.00000000      0.00000000      0.00000000</v>
  </separator>
  <separator name="performance" >
   <i type="int" name="NPAR">     6</i>
   <i type="int" name="NSIM">     4</i>
   <i type="int" name="NBLK">    -1</i>
   <i type="logical" name="LPLANE"> T  </i>
   <i type="logical" name="LSCALAPACK"> T  </i>
   <i type="logical" name="LSCAAWARE"> F  </i>
   <i type="logical" name="LSCALU"> F  </i>
   <i type="logical" name="LASYNC"> F  </i>
   <i type="logical" name="LORBITALREAL"> F  </i>
  </separator>
  <separator name="miscellaneous" >
   <i type="int" name="IDIOT">     3</i>
   <i type="logical" name="LMUSIC"> F  </i>
   <v name="POMASS">     12.01100000</v>
   <v name="DARWINR">      0.00000000</v>
   <v name="DARWINV">      1.00000000</v>
   <i type="logical" name="LCORR"> T  </i>
  </separator>
  <i type="logical" name="GGA_COMPAT"> T  </i>
  <i type="logical" name="LBERRY"> F  </i>
  <i type="int" name="ICORELEVEL">     0</i>
  <i type="logical" name="LDAU"> F  </i>
  <i type="int" name="I_CONSTRAINED_M">     0</i>
  <separator name="electronic exchange-correlation" >
   <i type="string" name="GGA">PE</i>
   <i type="int" name="VOSKOWN">     0</i>
   <i type="logical" name="LHFCALC"> F  </i>
   <i type="string" name="PRECFOCK"></i>
   <i type="logical" name="LSYMGRAD"> F  </i>
   <i type="logical" name="LHFONE"> F  </i>
   <i type="logical" name="LRHFCALC"> F  </i>
   <i type="logical" name="LTHOMAS"> F  </i>
   <i type="logical" name="LMODELHF"> F  </i>
   <i name="ENCUT4O">     -1.00000000</i>
   <i type="int" name="EXXOEP">     0</i>
   <i type="int" name="FOURORBIT">     0</i>
   <i name="AEXX">      0.00000000</i>
   <i name="HFALPHA">      0.00000000</i>
   <i name="MCALPHA">      0.00000000</i>
   <i name="ALDAX">      1.00000000</i>
   <i name="AGGAX">      1.00000000</i>
   <i name="ALDAC">      1.00000000</i>
   <i name="AGGAC">      1.00000000</i>
   <i type="int" name="NKREDX">     1</i>
   <i type="int" name="NKREDY">     1</i>
   <i type="int" name="NKREDZ">     1</i>
   <i type="logical" name="SHIFTRED"> F  </i>
   <i type="logical" name="ODDONLY"> F  </i>
   <i type="logical" name="EVENONLY"> F  </i>
   <i type="int" name="LMAXFOCK">     0</i>
   <i type="int" name="NMAXFOCKAE">     0</i>
   <i type="logical" name="LFOCKAEDFT"> F  </i>
   <i name="HFSCREEN">      0.00000000</i>
   <i name="HFSCREENC">      0.00000000</i>
   <i type="int" name="NBANDSGWLOW">     0</i>
  </separator>
  <separator name="vdW DFT" >
   <i type="logical" name="LUSE_VDW"> F  </i>
   <i name="Zab_VDW">     -0.84910000</i>
   <i name="PARAM1">      0.12340000</i>
   <i name="PARAM2">      1.00000000</i>
   <i name="PARAM3">      0.00000000</i>
  </separator>
  <separator name="model GW" >
   <i type="int" name="MODEL_GW">     0</i>
   <i name="MODEL_EPS0">      5.60504079</i>
   <i name="MODEL_ALPHA">      1.00000000</i>
  </separator>
  <separator name="linear response parameters" >
   <i type="logical" name="LEPSILON"> F  </i>
   <i type="logical" name="LRPA"> F  </i>
   <i type="logical" name="LNABLA"> F  </i>
   <i type="logical" name="LVEL"> F  </i>
   <i type="int" name="KINTER">     0</i>
   <i name="CSHIFT">      0.10000000</i>
   <i name="OMEGAMAX">     -1.00000000</i>
   <i name="DEG_THRESHOLD">      0.00200000</i>
  </separator>
  <separator name="orbital magnetization" >
   <i type="logical" name="NUCIND"> F  </i>
   <v name="MAGPOS">      0.00000000      0.00000000      0.00000000</v>
   <i type="logical" name="LNICSALL"> T  </i>
   <i type="logical" name="ORBITALMAG"> F  </i>
   <i type="logical" name="LMAGBLOCH"> F  </i>
   <i type="logical" name="LCHIMAG"> F  </i>
   <i type="logical" name="LGAUGE"> T  </i>
   <i type="int" name="MAGATOM">     0</i>
   <v name="MAGDIPOL">      0.00000000      0.00000000      0.00000000</v>
   <v name="AVECCONST">      0.00000000      0.00000000      0.00000000</v>
  </separator>
  <separator name="response functions" >
   <i type="logical" name="LADDER"> F  </i>
   <i type="logical" name="LFXC"> F  </i>
   <i type="logical" name="LHARTREE"> T  </i>
   <i type="int" name="IBSE">     0</i>
   <i type="logical" name="LTCTE"> F  </i>
   <i type="logical" name="LTETE"> F  </i>
   <i type="logical" name="LTRIPLET"> F  </i>
   <i type="logical" name="LFXCEPS"> F  </i>
   <i type="logical" name="LFXHEG"> F  </i>
   <i type="logical" name="L2ORDER"> F  </i>
   <i type="logical" name="LUSEW"> F  </i>
   <i name="ENCUTGW">     -2.00000000</i>
   <i name="ENCUTGWSOFT">     -2.00000000</i>
   <i name="ENCUTLF">     -1.00000000</i>
   <i type="int" name="LMAXMP2">    -1</i>
   <i name="SCISSOR">      0.00000000</i>
   <i type="int" name="NOMEGA">     0</i>
   <i type="int" name="NOMEGAR">     0</i>
   <i type="int" name="NBANDSGW">    -1</i>
   <i type="int" name="NBANDSO">    -1</i>
   <i type="int" name="NBANDSV">    -1</i>
   <i type="int" name="NELM">   200</i>
   <i type="int" name="DIM">     3</i>
   <i type="int" name="ANTIRES">     0</i>
   <i name="OMEGAMAX">    -30.00000000</i>
   <i name="OMEGAMIN">    -30.00000000</i>
   <i name="OMEGATL">   -200.00000000</i>
   <i type="int" name="OMEGAGRID">     0</i>
   <i name="CSHIFT">     -0.10000000</i>
   <i type="logical" name="SELFENERGY"> F  </i>
   <i type="logical" name="LSPECTRAL"> F  </i>
   <i type="logical" name="ODDONLYGW"> F  </i>
   <i type="logical" name="EVENONLYGW"> F  </i>
   <i type="int" name="NKREDLFX">     1</i>
   <i type="int" name="NKREDLFY">     1</i>
   <i type="int" name="NKREDLFZ">     1</i>
   <i type="int" name="MAXMEM">  1800</i>
   <i type="int" name="TELESCOPE">     0</i>
   <i type="int" name="TAUPAR">     1</i>
  </separator>
  <separator name="External order field" >
   <i name="OFIELD_KAPPA">      0.00000000</i>
   <v name="OFIELD_K">      0.00000000      0.00000000      0.00000000</v>
   <i name="OFIELD_Q6_NEAR">      0.00000000</i>
   <i name="OFIELD_Q6_FAR">      0.00000000</i>
   <i name="OFIELD_A">      0.00000000</i>
  </separator>
 </parameters>
 <atominfo>
  <atoms>      32 </atoms>
  <types>       1 </types>
  <array name="atoms" >
   <dimension dim="1">ion</dimension>
   <field type="string">element</field>
   <field type="int">atomtype</field>
   <set>
    <rc><c>C </c><c>   1</c></rc>
    <rc><c>C </c><c>   1</c></rc>
    <rc><c>C </c><c>   1</c></rc>
    <rc><c>C </c><c>   1</c></rc>
    <rc><c>C </c><c>   1</c></rc>
    <rc><c>C </c><c>   1</c></rc>
    <rc><c>C </c><c>   1</c></rc>
    <rc><c>C </c><c>   1</c></rc>
    <rc><c>C </c><c>   1</c></rc>
    <rc><c>C </c><c>   1</c></rc>
    <rc><c>C </c><c>   1</c></rc>
    <rc><c>C </c><c>   1</c></rc>
    <rc><c>C </c><c>   1</c></rc>
    <rc><c>C </c><c>   1</c></rc>
    <rc><c>C </c><c>   1</c></rc>
    <rc><c>C </c><c>   1</c></rc>
    <rc><c>C </c><c>   1</c></rc>
    <rc><c>C </c><c>   1</c></rc>
    <rc><c>C </c><c>   1</c></rc>
    <rc><c>C </c><c>   1</c></rc>
    <rc><c>C </c><c>   1</c></rc>
    <rc><c>C </c><c>   1</c></rc>
    <rc><c>C </c><c>   1</c></rc>
    <rc><c>C </c><c>   1</c></rc>
    <rc><c>C </c><c>   1</c></rc>
    <rc><c>C </c><c>   1</c></rc>
    <rc><c>C </c><c>   1</c></rc>
    <rc><c>C </c><c>   1</c></rc>
    <rc><c>C </c><c>   1</c></rc>
    <rc><c>C </c><c>   1</c></rc>
    <rc><c>C </c><c>   1</c></rc>
    <rc><c>C </c><c>   1</c></rc>
   </set>
  </array>
  <array name="atomtypes" >
   <dimension dim="1">type</dimension>
   <field type="int">atomspertype</field>
   <field type="string">element</field>
   <field>mass</field>
   <field>valence</field>
   <field type="string">pseudopotential</field>
   <set>
    <rc><c>  32</c><c>C </c><c>     12.01100000</c><c>      4.00000000</c><c> PAW_PBE C 08Apr2002                    </c></rc>
   </set>
  </array>
 </atominfo>
 <structure name="initialpos" >
  <crystal>
   <varray name="basis" >
    <v>       4.93287450      -0.00191929       0.00000000 </v>
    <v>      -2.46809940       4.27103499       0.00000000 </v>
    <v>       0.00000000       0.00000000      14.19194656 </v>
   </varray>
   <i name="volume">    298.93550892 </i>
   <varray name="rec_basis" >
    <v>       0.20276715       0.11717288       0.00000000 </v>
    <v>       0.00009112       0.23418794       0.00000000 </v>
    <v>       0.00000000       0.00000000       0.07046250 </v>
   </varray>
  </crystal>
  <varray name="positions" >
   <v>       0.50030369       0.00036190       0.12566557 </v>
   <v>       0.99963812       0.00036190       0.12500000 </v>
   <v>       0.49963812       0.50036190       0.12500000 </v>
   <v>       0.99963812       0.50036190       0.12500000 </v>
   <v>       0.49963812       0.00036190       0.62500000 </v>
   <v>       0.99963812       0.00036190       0.62500000 </v>
   <v>       0.49963812       0.50036190       0.62500000 </v>
   <v>       0.99963812       0.50036190       0.62500000 </v>
   <v>       0.00036190       0.49963812       0.37500000 </v>
   <v>       0.50036190       0.49963812       0.37500000 </v>
   <v>       0.00036190       0.99963812       0.37500000 </v>
   <v>       0.50036190       0.99963812       0.37500000 </v>
   <v>       0.00036190       0.49963812       0.87500000 </v>
   <v>       0.50036190       0.49963812       0.87500000 </v>
   <v>       0.00036190       0.99963812       0.87500000 </v>
   <v>       0.50036190       0.99963812       0.87500000 </v>
   <v>       0.16631874       0.33368125       0.12500000 </v>
   <v>       0.66631874       0.33368125       0.12500000 </v>
   <v>       0.16631874       0.83368125       0.12500000 </v>
   <v>       0.66631874       0.83368125       0.12500000 </v>
   <v>       0.16631874       0.33368125       0.62500000 </v>
   <v>       0.66631874       0.33368125       0.62500000 </v>
   <v>       0.16631874       0.83368125       0.62500000 </v>
   <v>       0.66631874       0.83368125       0.62500000 </v>
   <v>       0.33368125       0.16631874       0.37500000 </v>
   <v>       0.83368125       0.16631874       0.37500000 </v>
   <v>       0.33368125       0.66631874       0.37500000 </v>
   <v>       0.83368125       0.66631874       0.37500000 </v>
   <v>       0.33368125       0.16631874       0.87500000 </v>
   <v>       0.83368125       0.16631874       0.87500000 </v>
   <v>       0.33368125       0.66631874       0.87500000 </v>
   <v>       0.83368125       0.66631874       0.87500000 </v>
  </varray>
 </structure>
 <calculation>
  <scstep>
   <time name="dav">  432.74 1088.98</time>
   <time name="total">  434.49 1093.26</time>
   <energy>
    <i name="alphaZ">    279.10932441 </i>
    <i name="ewald">  -3402.58642336 </i>
    <i name="hartreedc">  -1376.80293942 </i>
    <i name="XCdc">    442.42627909 </i>
    <i name="pawpsdc">   1210.60617908 </i>
    <i name="pawaedc">  -1247.42152856 </i>
    <i name="eentropy">      0.00000000 </i>
    <i name="bandstr">    119.61596906 </i>
    <i name="atom">   4708.94155045 </i>
    <i name="e_fr_energy">    733.88841076 </i>
    <i name="e_wo_entrp">    733.88841076 </i>
    <i name="e_0_energy">    733.88841076 </i>
   </energy>
  </scstep>
  <scstep>
   <time name="dav">  499.62 1245.67</time>
   <time name="total">  499.74 1245.98</time>
   <energy>
    <i name="e_fr_energy">   -251.31649777 </i>
    <i name="e_wo_entrp">   -251.31649777 </i>
    <i name="e_0_energy">   -251.31649777 </i>
   </energy>
  </scstep>
  <scstep>
   <time name="dav">  486.17 1209.87</time>
   <time name="total">  486.24 1210.05</time>
   <energy>
    <i name="e_fr_energy">   -313.09802234 </i>
    <i name="e_wo_entrp">   -313.09802234 </i>
    <i name="e_0_energy">   -313.09802234 </i>
   </energy>
  </scstep>
  <scstep>
   <time name="dav">  504.80 1256.35</time>
   <time name="total">  504.86 1256.49</time>
   <energy>
    <i name="e_fr_energy">   -314.34872908 </i>
    <i name="e_wo_entrp">   -314.34872908 </i>
    <i name="e_0_energy">   -314.34872908 </i>
   </energy>
  </scstep>
  <scstep>
   <time name="dav">  509.28 1269.34</time>
   <time name="total">  515.99 1286.65</time>
   <energy>
    <i name="e_fr_energy">   -314.38567290 </i>
    <i name="e_wo_entrp">   -314.38567290 </i>
    <i name="e_0_energy">   -314.38567290 </i>
   </energy>
  </scstep>
  <scstep>
   <time name="dav">  470.76 1173.97</time>
   <time name="total">  479.96 1197.97</time>
   <energy>
    <i name="e_fr_energy">   -299.73869242 </i>
    <i name="e_wo_entrp">   -299.73869242 </i>
    <i name="e_0_energy">   -299.73869242 </i>
   </energy>
  </scstep>
  <scstep>
   <time name="dav">  468.69 1168.68</time>
   <time name="total">  477.37 1191.09</time>
   <energy>
    <i name="e_fr_energy">   -295.03853168 </i>
    <i name="e_wo_entrp">   -295.03853168 </i>
    <i name="e_0_energy">   -295.03853168 </i>
   </energy>
  </scstep>
  <scstep>
   <time name="dav">  477.11 1201.35</time>
   <time name="total">  485.38 1221.71</time>
   <energy>
    <i name="e_fr_energy">   -295.07711880 </i>
    <i name="e_wo_entrp">   -295.07711880 </i>
    <i name="e_0_energy">   -295.07711880 </i>
   </energy>
  </scstep>
  <scstep>
   <time name="dav">  461.89 1150.79</time>
   <time name="total">  471.01 1170.34</time>
   <energy>
    <i name="e_fr_energy">   -295.08938177 </i>
    <i name="e_wo_entrp">   -295.08938177 </i>
    <i name="e_0_energy">   -295.08938177 </i>
   </energy>
  </scstep>
  <scstep>
   <time name="dav">  493.10 1216.05</time>
   <time name="total">  501.50 1236.95</time>
   <energy>
    <i name="e_fr_energy">   -295.09141969 </i>
    <i name="e_wo_entrp">   -295.09141969 </i>
    <i name="e_0_energy">   -295.09141969 </i>
   </energy>
  </scstep>
  <scstep>
   <time name="dav">  473.49 1177.55</time>
   <time name="total">  482.16 1197.34</time>
   <energy>
    <i name="e_fr_energy">   -295.09022981 </i>
    <i name="e_wo_entrp">   -295.09022981 </i>
    <i name="e_0_energy">   -295.09022981 </i>
   </energy>
  </scstep>
  <scstep>
   <time name="dav">  521.25 1295.92</time>
   <time name="total">  530.21 1318.21</time>
   <energy>
    <i name="e_fr_energy">   -295.09366802 </i>
    <i name="e_wo_entrp">   -295.09366802 </i>
    <i name="e_0_energy">   -295.09366802 </i>
   </energy>
  </scstep>
  <scstep>
   <time name="dav">  491.35 1229.30</time>
   <time name="total">  499.74 1250.22</time>
   <energy>
    <i name="e_fr_energy">   -295.09101463 </i>
    <i name="e_wo_entrp">   -295.09101463 </i>
    <i name="e_0_energy">   -295.09101463 </i>
   </energy>
  </scstep>
  <scstep>
   <time name="dav">  477.74 1196.26</time>
   <time name="total">  486.06 1216.81</time>
   <energy>
    <i name="e_fr_energy">   -295.09135882 </i>
    <i name="e_wo_entrp">   -295.09135882 </i>
    <i name="e_0_energy">   -295.09135882 </i>
   </energy>
  </scstep>
  <scstep>
   <time name="dav">  633.86 1583.66</time>
   <time name="total">  643.37 1606.83</time>
   <energy>
    <i name="e_fr_energy">   -295.09243556 </i>
    <i name="e_wo_entrp">   -295.09243556 </i>
    <i name="e_0_energy">   -295.09243556 </i>
   </energy>
  </scstep>
  <scstep>
   <time name="dav">  562.65 1413.70</time>
   <time name="total">  570.86 1433.88</time>
   <energy>
    <i name="e_fr_energy">   -295.09100113 </i>
    <i name="e_wo_entrp">   -295.09100113 </i>
    <i name="e_0_energy">   -295.09100113 </i>
   </energy>
  </scstep>
  <scstep>
   <time name="dav">  480.91 1210.23</time>
   <time name="total">  489.27 1233.32</time>
   <energy>
    <i name="e_fr_energy">   -295.09096228 </i>
    <i name="e_wo_entrp">   -295.09096228 </i>
    <i name="e_0_energy">   -295.09096228 </i>
   </energy>
  </scstep>
  <scstep>
   <time name="dav">  468.47 1178.37</time>
   <time name="total">  477.69 1199.77</time>
   <energy>
    <i name="e_fr_energy">   -295.09096988 </i>
    <i name="e_wo_entrp">   -295.09096988 </i>
    <i name="e_0_energy">   -295.09096988 </i>
   </energy>
  </scstep>
  <scstep>
   <time name="dav">  514.39 1284.83</time>
   <time name="total">  523.07 1306.24</time>
   <energy>
    <i name="e_fr_energy">   -295.09099568 </i>
    <i name="e_wo_entrp">   -295.09099568 </i>
    <i name="e_0_energy">   -295.09099568 </i>
   </energy>
  </scstep>
  <scstep>
   <time name="dav">  503.43 1262.65</time>
   <time name="total">  512.27 1285.04</time>
   <energy>
    <i name="e_fr_energy">   -295.09095551 </i>
    <i name="e_wo_entrp">   -295.09095551 </i>
    <i name="e_0_energy">   -295.09095551 </i>
   </energy>
  </scstep>
  <scstep>
   <time name="dav">  482.71 1204.48</time>
   <time name="total">  491.30 1226.06</time>
   <energy>
    <i name="e_fr_energy">   -295.09095877 </i>
    <i name="e_wo_entrp">   -295.09095877 </i>
    <i name="e_0_energy">   -295.09095877 </i>
   </energy>
  </scstep>
  <scstep>
   <time name="dav">  480.55 1203.87</time>
   <time name="total">  488.72 1224.70</time>
   <energy>
    <i name="e_fr_energy">   -295.09095420 </i>
    <i name="e_wo_entrp">   -295.09095420 </i>
    <i name="e_0_energy">   -295.09095420 </i>
   </energy>
  </scstep>
  <scstep>
   <time name="dav">  515.97 1289.54</time>
   <time name="total">  524.90 1311.63</time>
   <energy>
    <i name="e_fr_energy">   -295.09095362 </i>
    <i name="e_wo_entrp">   -295.09095362 </i>
    <i name="e_0_energy">   -295.09095362 </i>
   </energy>
  </scstep>
  <scstep>
   <time name="dav">  498.74 1244.98</time>
   <time name="total">  507.28 1266.23</time>
   <energy>
    <i name="e_fr_energy">   -295.09095401 </i>
    <i name="e_wo_entrp">   -295.09095401 </i>
    <i name="e_0_energy">   -295.09095401 </i>
   </energy>
  </scstep>
  <scstep>
   <time name="dav">  451.26 1132.20</time>
   <time name="total">  459.86 1153.29</time>
   <energy>
    <i name="e_fr_energy">   -295.09095385 </i>
    <i name="e_wo_entrp">   -295.09095385 </i>
    <i name="e_0_energy">   -295.09095385 </i>
   </energy>
  </scstep>
  <scstep>
   <time name="dav">  373.50  938.47</time>
   <time name="total">  382.22  959.54</time>
   <energy>
    <i name="e_fr_energy">   -295.09095380 </i>
    <i name="e_wo_entrp">   -295.09095380 </i>
    <i name="e_0_energy">   -295.09095380 </i>
   </energy>
  </scstep>
  <scstep>
   <time name="dav">  370.77  928.62</time>
   <time name="total">  379.80  951.71</time>
   <energy>
    <i name="e_fr_energy">   -295.09095367 </i>
    <i name="e_wo_entrp">   -295.09095367 </i>
    <i name="e_0_energy">   -295.09095367 </i>
   </energy>
  </scstep>
  <scstep>
   <time name="dav">  366.63  916.90</time>
   <time name="total">  375.18  938.14</time>
   <energy>
    <i name="e_fr_energy">   -295.09095365 </i>
    <i name="e_wo_entrp">   -295.09095365 </i>
    <i name="e_0_energy">   -295.09095365 </i>
   </energy>
  </scstep>
  <scstep>
   <time name="dav">  375.33  936.65</time>
   <time name="total">  383.92  957.02</time>
   <energy>
    <i name="e_fr_energy">   -295.09095368 </i>
    <i name="e_wo_entrp">   -295.09095368 </i>
    <i name="e_0_energy">   -295.09095368 </i>
   </energy>
  </scstep>
  <scstep>
   <time name="dav">  365.51  913.26</time>
   <time name="total">  367.02  917.08</time>
   <energy>
    <i name="alphaZ">    279.10932441 </i>
    <i name="ewald">  -3402.58642336 </i>
    <i name="hartreedc">  -1670.89980229 </i>
    <i name="XCdc">    460.78913517 </i>
    <i name="pawpsdc">   2222.13219074 </i>
    <i name="pawaedc">  -2263.34584072 </i>
    <i name="eentropy">      0.00000000 </i>
    <i name="bandstr">   -629.23108809 </i>
    <i name="atom">   4708.94155045 </i>
    <i name="e_fr_energy">   -295.09095368 </i>
    <i name="e_wo_entrp">   -295.09095368 </i>
    <i name="e_0_energy">   -295.09095368 </i>
   </energy>
  </scstep>
  <structure>
   <crystal>
    <varray name="basis" >
     <v>       4.93287450      -0.00191929       0.00000000 </v>
     <v>      -2.46809940       4.27103499       0.00000000 </v>
     <v>       0.00000000       0.00000000      14.19194656 </v>
    </varray>
    <i name="volume">    298.93550892 </i>
    <varray name="rec_basis" >
     <v>       0.20276715       0.11717288       0.00000000 </v>
     <v>       0.00009112       0.23418794       0.00000000 </v>
     <v>       0.00000000       0.00000000       0.07046250 </v>
    </varray>
   </crystal>
   <varray name="positions" >
    <v>       0.50030369       0.00036190       0.12566557 </v>
    <v>       0.99963812       0.00036190       0.12500000 </v>
    <v>       0.49963812       0.50036190       0.12500000 </v>
    <v>       0.99963812       0.50036190       0.12500000 </v>
    <v>       0.49963812       0.00036190       0.62500000 </v>
    <v>       0.99963812       0.00036190       0.62500000 </v>
    <v>       0.49963812       0.50036190       0.62500000 </v>
    <v>       0.99963812       0.50036190       0.62500000 </v>
    <v>       0.00036190       0.49963812       0.37500000 </v>
    <v>       0.50036190       0.49963812       0.37500000 </v>
    <v>       0.00036190       0.99963812       0.37500000 </v>
    <v>       0.50036190       0.99963812       0.37500000 </v>
    <v>       0.00036190       0.49963812       0.87500000 </v>
    <v>       0.50036190       0.49963812       0.87500000 </v>
    <v>       0.00036190       0.99963812       0.87500000 </v>
    <v>       0.50036190       0.99963812       0.87500000 </v>
    <v>       0.16631874       0.33368125       0.12500000 </v>
    <v>       0.66631874       0.33368125       0.12500000 </v>
    <v>       0.16631874       0.83368125       0.12500000 </v>
    <v>       0.66631874       0.83368125       0.12500000 </v>
    <v>       0.16631874       0.33368125       0.62500000 </v>
    <v>       0.66631874       0.33368125       0.62500000 </v>
    <v>       0.16631874       0.83368125       0.62500000 </v>
    <v>       0.66631874       0.83368125       0.62500000 </v>
    <v>       0.33368125       0.16631874       0.37500000 </v>
    <v>       0.83368125       0.16631874       0.37500000 </v>
    <v>       0.33368125       0.66631874       0.37500000 </v>
    <v>       0.83368125       0.66631874       0.37500000 </v>
    <v>       0.33368125       0.16631874       0.87500000 </v>
    <v>       0.83368125       0.16631874       0.87500000 </v>
    <v>       0.33368125       0.66631874       0.87500000 </v>
    <v>       0.83368125       0.66631874       0.87500000 </v>
   </varray>
  </structure>
  <varray name="forces" >
   <v>      -0.18192439      -0.00110329      -0.13400085 </v>
   <v>       0.05721911      -0.00170374      -0.00531619 </v>
   <v>       0.02259352      -0.02174932      -0.00523949 </v>
   <v>       0.02250407       0.01842820      -0.00543943 </v>
   <v>      -0.00569729      -0.00403072       0.00202577 </v>
   <v>      -0.00567862      -0.00403019       0.00203511 </v>
   <v>      -0.00568566      -0.00403540       0.00203512 </v>
   <v>      -0.00568534      -0.00402803       0.00203529 </v>
   <v>       0.00072154      -0.00397020      -0.00208834 </v>
   <v>       0.00061014      -0.00404338      -0.00212272 </v>
   <v>       0.00072770      -0.00391295      -0.00210230 </v>
   <v>       0.00060510      -0.00399510      -0.00187451 </v>
   <v>      -0.00151606       0.00501480      -0.00211904 </v>
   <v>      -0.00142413       0.00494885      -0.00208599 </v>
   <v>      -0.00141825       0.00489926      -0.00210247 </v>
   <v>      -0.00154081       0.00495539      -0.00177985 </v>
   <v>      -0.02345218       0.00298715       0.01202603 </v>
   <v>       0.00251505       0.00229919       0.04792918 </v>
   <v>       0.04615680       0.02808072       0.04827917 </v>
   <v>       0.04583161      -0.02200647       0.04763460 </v>
   <v>       0.00412355       0.00472252      -0.00028622 </v>
   <v>       0.00412329       0.00472219      -0.00028035 </v>
   <v>       0.00412556       0.00472410      -0.00028439 </v>
   <v>       0.00412440       0.00472145      -0.00027166 </v>
   <v>       0.00041147       0.00323417       0.00052287 </v>
   <v>       0.00073664       0.00329761       0.00053172 </v>
   <v>       0.00051842       0.00299939       0.00054827 </v>
   <v>       0.00063710       0.00317316       0.00010920 </v>
   <v>       0.00406096      -0.00625515       0.00052911 </v>
   <v>       0.00381413      -0.00618826       0.00051618 </v>
   <v>       0.00387463      -0.00600829       0.00052117 </v>
   <v>       0.00398793      -0.00614765       0.00011501 </v>
  </varray>
  <varray name="stress" >
   <v>      -1.52561676       2.33039102      -0.10313758 </v>
   <v>       2.33039101       1.21923468       0.06038393 </v>
   <v>      -0.10313759       0.06038391     -15.05806853 </v>
  </varray>
  <energy>
   <i name="e_fr_energy">   -299.76832446 </i>
   <i name="e_wo_entrp">   -299.76832446 </i>
   <i name="e_0_energy">      0.00000000 </i>
  </energy>
  <time name="totalsc">14537.4536328.99</time>
  <eigenvalues>
   <array>
    <dimension dim="1">band</dimension>
    <dimension dim="2">kpoint</dimension>
    <dimension dim="3">spin</dimension>
    <field>eigene</field>
    <field>occ</field>
    <set>
     <set comment="spin 1">
      <set comment="kpoint 1">
       <r>  -15.3872    1.0000 </r>
       <r>  -15.2942    1.0000 </r>
       <r>  -15.2926    1.0000 </r>
       <r>  -15.1953    1.0000 </r>
       <r>  -10.0960    1.0000 </r>
       <r>  -10.0847    1.0000 </r>
       <r>  -10.0821    1.0000 </r>
       <r>  -10.0601    1.0000 </r>
       <r>  -10.0591    1.0000 </r>
       <r>  -10.0497    1.0000 </r>
       <r>  -10.0449    1.0000 </r>
       <r>  -10.0449    1.0000 </r>
       <r>  -10.0443    1.0000 </r>
       <r>  -10.0269    1.0000 </r>
       <r>  -10.0140    1.0000 </r>
       <r>  -10.0112    1.0000 </r>
       <r>   -9.0326    1.0000 </r>
       <r>   -9.0303    1.0000 </r>
       <r>   -9.0291    1.0000 </r>
       <r>   -9.0109    1.0000 </r>
       <r>   -9.0080    1.0000 </r>
       <r>   -9.0077    1.0000 </r>
       <r>   -9.0077    1.0000 </r>
       <r>   -9.0056    1.0000 </r>
       <r>   -9.0045    1.0000 </r>
       <r>   -8.9782    1.0000 </r>
       <r>   -8.9764    1.0000 </r>
       <r>   -8.9758    1.0000 </r>
       <r>   -4.0886    1.0000 </r>
       <r>   -3.4196    1.0000 </r>
       <r>   -3.4177    1.0000 </r>
       <r>   -2.6241    1.0000 </r>
       <r>   -2.2071    1.0000 </r>
       <r>   -2.2041    1.0000 </r>
       <r>   -2.1931    1.0000 </r>
       <r>   -2.1904    1.0000 </r>
       <r>   -2.1881    1.0000 </r>
       <r>   -2.1880    1.0000 </r>
       <r>   -2.1880    1.0000 </r>
       <r>   -2.1747    1.0000 </r>
       <r>   -2.1744    1.0000 </r>
       <r>   -2.1738    1.0000 </r>
       <r>   -2.1714    1.0000 </r>
       <r>   -2.1579    1.0000 </r>
       <r>    1.1794    1.0000 </r>
       <r>    1.1900    1.0000 </r>
       <r>    1.1906    1.0000 </r>
       <r>    1.1941    1.0000 </r>
       <r>    1.1951    1.0000 </r>
       <r>    1.1970    1.0000 </r>
       <r>    1.1976    1.0000 </r>
       <r>    1.2060    1.0000 </r>
       <r>    1.5576    1.0000 </r>
       <r>    1.5630    1.0000 </r>
       <r>    1.5650    1.0000 </r>
       <r>    1.8359    1.0000 </r>
       <r>    1.8372    1.0000 </r>
       <r>    1.8442    1.0000 </r>
       <r>    1.8488    1.0000 </r>
       <r>    1.8492    1.0000 </r>
       <r>    1.8499    1.0000 </r>
       <r>    2.0516    1.0000 </r>
       <r>    2.0681    1.0000 </r>
       <r>    2.0706    1.0000 </r>
       <r>    5.7040    0.0000 </r>
       <r>    5.7069    0.0000 </r>
       <r>    5.7128    0.0000 </r>
       <r>    5.8584    0.0000 </r>
       <r>    5.8620    0.0000 </r>
       <r>    5.8628    0.0000 </r>
       <r>    5.8628    0.0000 </r>
       <r>    5.8654    0.0000 </r>
       <r>    5.8669    0.0000 </r>
       <r>    6.2439    0.0000 </r>
       <r>    6.2474    0.0000 </r>
       <r>    6.2497    0.0000 </r>
       <r>    8.0898    0.0000 </r>
       <r>   10.3144    0.0000 </r>
       <r>   10.3175    0.0000 </r>
       <r>   11.4559    0.0000 </r>
       <r>   11.4596    0.0000 </r>
       <r>   11.4910    0.0000 </r>
       <r>   11.5841    0.0000 </r>
       <r>   11.6052    0.0000 </r>
      </set>
      <set comment="kpoint 2">
       <r>  -15.2220    1.0000 </r>
       <r>  -15.1300    1.0000 </r>
       <r>  -15.1284    1.0000 </r>
       <r>  -15.0322    1.0000 </r>
       <r>  -11.3794    1.0000 </r>
       <r>  -11.3105    1.0000 </r>
       <r>  -11.3089    1.0000 </r>
       <r>  -11.2377    1.0000 </r>
       <r>  -10.5122    1.0000 </r>
       <r>  -10.5045    1.0000 </r>
       <r>  -10.4522    1.0000 </r>
       <r>  -10.4504    1.0000 </r>
       <r>  -10.4438    1.0000 </r>
       <r>  -10.4426    1.0000 </r>
       <r>  -10.3890    1.0000 </r>
       <r>  -10.3808    1.0000 </r>
       <r>   -8.3951    1.0000 </r>
       <r>   -8.3911    1.0000 </r>
       <r>   -8.3484    1.0000 </r>
       <r>   -8.3446    1.0000 </r>
       <r>   -8.3429    1.0000 </r>
       <r>   -8.3416    1.0000 </r>
       <r>   -8.2955    1.0000 </r>
       <r>   -8.2914    1.0000 </r>
       <r>   -7.5506    1.0000 </r>
       <r>   -7.5011    1.0000 </r>
       <r>   -7.5010    1.0000 </r>
       <r>   -7.4502    1.0000 </r>
       <r>   -3.8885    1.0000 </r>
       <r>   -3.2237    1.0000 </r>
       <r>   -3.2219    1.0000 </r>
       <r>   -2.6943    1.0000 </r>
       <r>   -2.6803    1.0000 </r>
       <r>   -2.6749    1.0000 </r>
       <r>   -2.6733    1.0000 </r>
       <r>   -2.6603    1.0000 </r>
       <r>   -2.6597    1.0000 </r>
       <r>   -2.6537    1.0000 </r>
       <r>   -2.6396    1.0000 </r>
       <r>   -2.4342    1.0000 </r>
       <r>   -2.0435    1.0000 </r>
       <r>   -2.0295    1.0000 </r>
       <r>   -2.0256    1.0000 </r>
       <r>   -2.0117    1.0000 </r>
       <r>    0.5176    1.0000 </r>
       <r>    0.5351    1.0000 </r>
       <r>    0.5439    1.0000 </r>
       <r>    0.5466    1.0000 </r>
       <r>    0.5566    1.0000 </r>
       <r>    0.8414    1.0000 </r>
       <r>    0.8504    1.0000 </r>
       <r>    0.8553    1.0000 </r>
       <r>    0.8613    1.0000 </r>
       <r>    0.9988    1.0000 </r>
       <r>    1.0017    1.0000 </r>
       <r>    1.3537    1.0000 </r>
       <r>    1.3606    1.0000 </r>
       <r>    1.5203    1.0000 </r>
       <r>    1.7292    1.0000 </r>
       <r>    1.7303    1.0000 </r>
       <r>    1.7390    1.0000 </r>
       <r>    1.7406    1.0000 </r>
       <r>    2.0872    1.0000 </r>
       <r>    2.1012    1.0000 </r>
       <r>    5.9248    0.0000 </r>
       <r>    5.9300    0.0000 </r>
       <r>    6.1381    0.0000 </r>
       <r>    6.1426    0.0000 </r>
       <r>    6.1436    0.0000 </r>
       <r>    6.1450    0.0000 </r>
       <r>    6.5210    0.0000 </r>
       <r>    6.5242    0.0000 </r>
       <r>    6.6600    0.0000 </r>
       <r>    6.9638    0.0000 </r>
       <r>    6.9658    0.0000 </r>
       <r>    7.3954    0.0000 </r>
       <r>    8.2944    0.0000 </r>
       <r>   10.5017    0.0000 </r>
       <r>   10.5047    0.0000 </r>
       <r>   11.5454    0.0000 </r>
       <r>   11.6664    0.0000 </r>
       <r>   11.6692    0.0000 </r>
       <r>   11.7869    0.0000 </r>
       <r>   12.1935    0.0000 </r>
      </set>
      <set comment="kpoint 3">
       <r>  -14.7284    1.0000 </r>
       <r>  -14.6393    1.0000 </r>
       <r>  -14.6376    1.0000 </r>
       <r>  -14.5446    1.0000 </r>
       <r>  -12.7855    1.0000 </r>
       <r>  -12.7076    1.0000 </r>
       <r>  -12.7061    1.0000 </r>
       <r>  -12.6254    1.0000 </r>
       <r>  -10.9318    1.0000 </r>
       <r>  -10.9281    1.0000 </r>
       <r>  -10.8663    1.0000 </r>
       <r>  -10.8639    1.0000 </r>
       <r>  -10.8615    1.0000 </r>
       <r>  -10.8605    1.0000 </r>
       <r>  -10.7960    1.0000 </r>
       <r>  -10.7922    1.0000 </r>
       <r>   -7.2234    1.0000 </r>
       <r>   -7.2161    1.0000 </r>
       <r>   -7.1806    1.0000 </r>
       <r>   -7.1768    1.0000 </r>
       <r>   -7.1722    1.0000 </r>
       <r>   -7.1705    1.0000 </r>
       <r>   -7.1327    1.0000 </r>
       <r>   -7.1256    1.0000 </r>
       <r>   -5.4396    1.0000 </r>
       <r>   -5.3994    1.0000 </r>
       <r>   -5.3991    1.0000 </r>
       <r>   -5.3581    1.0000 </r>
       <r>   -3.8476    1.0000 </r>
       <r>   -3.8357    1.0000 </r>
       <r>   -3.8213    1.0000 </r>
       <r>   -3.8201    1.0000 </r>
       <r>   -3.8090    1.0000 </r>
       <r>   -3.8082    1.0000 </r>
       <r>   -3.7930    1.0000 </r>
       <r>   -3.7810    1.0000 </r>
       <r>   -3.2924    1.0000 </r>
       <r>   -2.6415    1.0000 </r>
       <r>   -2.6396    1.0000 </r>
       <r>   -1.8710    1.0000 </r>
       <r>   -1.5701    1.0000 </r>
       <r>   -1.5568    1.0000 </r>
       <r>   -1.5526    1.0000 </r>
       <r>   -1.5394    1.0000 </r>
       <r>   -1.1131    1.0000 </r>
       <r>   -1.0948    1.0000 </r>
       <r>   -1.0933    1.0000 </r>
       <r>   -1.0748    1.0000 </r>
       <r>   -1.0028    1.0000 </r>
       <r>   -0.4244    1.0000 </r>
       <r>   -0.4221    1.0000 </r>
       <r>    0.0463    1.0000 </r>
       <r>    0.0567    1.0000 </r>
       <r>    0.0617    1.0000 </r>
       <r>    0.0712    1.0000 </r>
       <r>    0.2451    1.0000 </r>
       <r>    1.0717    1.0000 </r>
       <r>    1.0760    1.0000 </r>
       <r>    1.5417    1.0000 </r>
       <r>    1.5427    1.0000 </r>
       <r>    1.5475    1.0000 </r>
       <r>    1.5489    1.0000 </r>
       <r>    2.0525    1.0000 </r>
       <r>    2.0598    1.0000 </r>
       <r>    6.4698    0.0000 </r>
       <r>    6.4722    0.0000 </r>
       <r>    6.7113    0.0000 </r>
       <r>    6.7165    0.0000 </r>
       <r>    6.7177    0.0000 </r>
       <r>    6.7182    0.0000 </r>
       <r>    7.0164    0.0000 </r>
       <r>    7.0190    0.0000 </r>
       <r>    8.8202    0.0000 </r>
       <r>    8.9091    0.0000 </r>
       <r>    9.1021    0.0000 </r>
       <r>    9.1039    0.0000 </r>
       <r>    9.4675    0.0000 </r>
       <r>   11.0545    0.0000 </r>
       <r>   11.0573    0.0000 </r>
       <r>   11.3049    0.0000 </r>
       <r>   11.8270    0.0000 </r>
       <r>   11.8876    0.0000 </r>
       <r>   11.8907    0.0000 </r>
       <r>   12.0945    0.0000 </r>
      </set>
      <set comment="kpoint 4">
       <r>  -13.9135    1.0000 </r>
       <r>  -13.9108    1.0000 </r>
       <r>  -13.8304    1.0000 </r>
       <r>  -13.8262    1.0000 </r>
       <r>  -13.8261    1.0000 </r>
       <r>  -13.8250    1.0000 </r>
       <r>  -13.7396    1.0000 </r>
       <r>  -13.7369    1.0000 </r>
       <r>  -11.0798    1.0000 </r>
       <r>  -11.0781    1.0000 </r>
       <r>  -11.0132    1.0000 </r>
       <r>  -11.0100    1.0000 </r>
       <r>  -11.0098    1.0000 </r>
       <r>  -11.0097    1.0000 </r>
       <r>  -10.9412    1.0000 </r>
       <r>  -10.9395    1.0000 </r>
       <r>   -6.3245    1.0000 </r>
       <r>   -6.3220    1.0000 </r>
       <r>   -6.3030    1.0000 </r>
       <r>   -6.2992    1.0000 </r>
       <r>   -6.2973    1.0000 </r>
       <r>   -6.2973    1.0000 </r>
       <r>   -6.2769    1.0000 </r>
       <r>   -6.2754    1.0000 </r>
       <r>   -4.7400    1.0000 </r>
       <r>   -4.7391    1.0000 </r>
       <r>   -4.7241    1.0000 </r>
       <r>   -4.7236    1.0000 </r>
       <r>   -4.7236    1.0000 </r>
       <r>   -4.7215    1.0000 </r>
       <r>   -4.7053    1.0000 </r>
       <r>   -4.7036    1.0000 </r>
       <r>   -3.2252    1.0000 </r>
       <r>   -3.2227    1.0000 </r>
[...]
       <r>   -4.7111    1.0000 </r>
       <r>   -4.7092    1.0000 </r>
       <r>   -4.7082    1.0000 </r>
       <r>   -4.7082    1.0000 </r>
       <r>   -3.2298    1.0000 </r>
       <r>   -3.2236    1.0000 </r>
       <r>   -3.2235    1.0000 </r>
       <r>   -3.2232    1.0000 </r>
       <r>   -3.1858    1.0000 </r>
       <r>   -3.1814    1.0000 </r>
       <r>   -3.1813    1.0000 </r>
       <r>   -3.1810    1.0000 </r>
       <r>   -2.1466    1.0000 </r>
       <r>   -2.1445    1.0000 </r>
       <r>   -2.1444    1.0000 </r>
       <r>   -2.1419    1.0000 </r>
       <r>   -1.1917    1.0000 </r>
       <r>   -1.1895    1.0000 </r>
       <r>   -1.1894    1.0000 </r>
       <r>   -1.1865    1.0000 </r>
       <r>   -0.8218    1.0000 </r>
       <r>   -0.8198    1.0000 </r>
       <r>   -0.8198    1.0000 </r>
       <r>   -0.8144    1.0000 </r>
       <r>   -0.8020    1.0000 </r>
       <r>   -0.8005    1.0000 </r>
       <r>   -0.8005    1.0000 </r>
       <r>   -0.7907    1.0000 </r>
       <r>    1.1057    1.0000 </r>
       <r>    1.1087    1.0000 </r>
       <r>    1.1089    1.0000 </r>
       <r>    1.1099    1.0000 </r>
       <r>    1.8518    1.0000 </r>
       <r>    1.8554    1.0000 </r>
       <r>    1.8555    1.0000 </r>
       <r>    1.8566    1.0000 </r>
       <r>    6.8660    0.0000 </r>
       <r>    6.8668    0.0000 </r>
       <r>    6.8670    0.0000 </r>
       <r>    6.8709    0.0000 </r>
       <r>    7.1608    0.0000 </r>
       <r>    7.1616    0.0000 </r>
       <r>    7.1617    0.0000 </r>
       <r>    7.1663    0.0000 </r>
       <r>   10.4650    0.0000 </r>
       <r>   10.4691    0.0000 </r>
       <r>   10.4693    0.0000 </r>
       <r>   10.4723    0.0000 </r>
       <r>   11.3087    0.0000 </r>
       <r>   11.3151    0.0000 </r>
       <r>   11.3156    0.0000 </r>
       <r>   11.3194    0.0000 </r>
       <r>   11.5771    0.0000 </r>
       <r>   11.5818    0.0000 </r>
       <r>   11.5825    0.0000 </r>
       <r>   11.5844    0.0000 </r>
      </set>
     </set>
    </set>
   </array>
  </eigenvalues>
  <separator name="orbital magnetization" >
   <v name="MAGDIPOLOUT">      0.00000000      0.00000000      0.00000000</v>
  </separator>
  <dos>
   <i name="efermi">      4.19809294 </i>
   <total>
    <array>
     <dimension dim="1">gridpoints</dimension>
     <dimension dim="2">spin</dimension>
     <field>energy</field>
     <field>total</field>
     <field>integrated</field>
     <set>
      <set comment="spin 1">
       <r>   -17.3872     0.0000     0.0000 </r>
       <r>   -17.2808     0.0000     0.0000 </r>
       <r>   -17.1744     0.0000     0.0000 </r>
       <r>   -17.0680     0.0000     0.0000 </r>
       <r>   -16.9617     0.0000     0.0000 </r>
       <r>   -16.8553     0.0000     0.0000 </r>
       <r>   -16.7489     0.0000     0.0000 </r>
       <r>   -16.6425     0.0000     0.0000 </r>
       <r>   -16.5362     0.0000     0.0000 </r>
       <r>   -16.4298     0.0000     0.0000 </r>
       <r>   -16.3234     0.0000     0.0000 </r>
       <r>   -16.2170     0.0000     0.0000 </r>
       <r>   -16.1107     0.0000     0.0000 </r>
       <r>   -16.0043     0.0000     0.0000 </r>
       <r>   -15.8979     0.0000     0.0000 </r>
       <r>   -15.7915     0.0000     0.0000 </r>
       <r>   -15.6851     0.0000     0.0000 </r>
       <r>   -15.5788     0.0000     0.0000 </r>
       <r>   -15.4724     0.0000     0.0000 </r>
       <r>   -15.3660     0.1389     0.0011 </r>
       <r>   -15.2596     2.3769     0.1170 </r>
       <r>   -15.1533     4.3512     0.4902 </r>
       <r>   -15.0469     5.0215     1.0139 </r>
       <r>   -14.9405     4.8537     1.5124 </r>
       <r>   -14.8341     5.1651     2.0493 </r>
       <r>   -14.7278     5.0451     2.5958 </r>
       <r>   -14.6214     4.7802     3.1166 </r>
       <r>   -14.5150     4.8317     3.6240 </r>
       <r>   -14.4086     5.0451     4.1494 </r>
       <r>   -14.3022     5.2587     4.6974 </r>
       <r>   -14.1959     7.0004     5.3119 </r>
       <r>   -14.0895     8.1863     6.1267 </r>
       <r>   -13.9831     6.3970     6.9867 </r>
       <r>   -13.8767     2.6560     7.4530 </r>
       <r>   -13.7704     1.8916     7.6780 </r>
       <r>   -13.6640     2.1602     7.8901 </r>
       <r>   -13.5576     2.5115     8.1386 </r>
       <r>   -13.4512     2.8630     8.4244 </r>
       <r>   -13.3449     5.6702     8.7981 </r>
       <r>   -13.2385    10.4656     9.8849 </r>
       <r>   -13.1321     7.4971    10.8791 </r>
       <r>   -13.0257     3.9741    11.3676 </r>
       <r>   -12.9193     4.0705    11.7954 </r>
       <r>   -12.8130     4.1671    12.2336 </r>
       <r>   -12.7066     4.2818    12.6826 </r>
       <r>   -12.6002     4.4100    13.1450 </r>
       <r>   -12.4938     4.5323    13.6206 </r>
       <r>   -12.3875     4.6546    14.1093 </r>
       <r>   -12.2811     5.2629    14.6213 </r>
       <r>   -12.1747     6.2471    15.2291 </r>
       <r>   -12.0683     6.2634    15.9208 </r>
       <r>   -11.9620     5.6969    16.5561 </r>
       <r>   -11.8556     5.3631    17.1407 </r>
       <r>   -11.7492     5.5164    17.7189 </r>
       <r>   -11.6428     5.6783    18.3143 </r>
       <r>   -11.5364     5.8402    18.9270 </r>
       <r>   -11.4301     6.0022    19.5569 </r>
       <r>   -11.3237     5.6679    20.1856 </r>
       <r>   -11.2173     5.2807    20.7670 </r>
       <r>   -11.1109     5.3292    21.3313 </r>
       <r>   -11.0046     4.7143    21.8822 </r>
       <r>   -10.8982     4.2700    22.3404 </r>
       <r>   -10.7918     4.9826    22.8362 </r>
       <r>   -10.6854     5.1580    23.3756 </r>
       <r>   -10.5791     5.3324    23.9336 </r>
       <r>   -10.4727     6.9098    24.5410 </r>
       <r>   -10.3663    11.8632    25.5166 </r>
       <r>   -10.2599     9.6014    26.6582 </r>
       <r>   -10.1535     7.3391    27.5593 </r>
       <r>   -10.0472     5.1544    28.2205 </r>
       <r>    -9.9408     4.4625    28.7220 </r>
       <r>    -9.8344     4.0208    29.1732 </r>
       <r>    -9.7280     3.5790    29.5774 </r>
       <r>    -9.6217     7.6958    30.1591 </r>
       <r>    -9.5153     2.0996    30.8168 </r>
       <r>    -9.4089     1.9014    31.0296 </r>
       <r>    -9.3025     1.7032    31.2213 </r>
       <r>    -9.1962     1.5049    31.3919 </r>
       <r>    -9.0898     1.3067    31.5415 </r>
       <r>    -8.9834     1.3094    31.6738 </r>
       <r>    -8.8770     1.8041    31.8393 </r>
       <r>    -8.7706     2.3003    32.0576 </r>
       <r>    -8.6643     2.7965    32.3287 </r>
       <r>    -8.5579     5.0979    32.7018 </r>
       <r>    -8.4515     9.5305    33.4799 </r>
       <r>    -8.3451     5.1941    34.4739 </r>
       <r>    -8.2388     5.0706    34.9929 </r>
       <r>    -8.1324     6.1880    35.5918 </r>
       <r>    -8.0260     7.3054    36.3094 </r>
       <r>    -7.9196     8.4228    37.1460 </r>
       <r>    -7.8133     9.5402    38.1014 </r>
       <r>    -7.7069     7.2984    39.0686 </r>
       <r>    -7.6005     5.5571    39.6884 </r>
       <r>    -7.4941     5.5929    40.2793 </r>
       <r>    -7.3878     5.5943    40.8783 </r>
       <r>    -7.2814     5.4466    41.4656 </r>
       <r>    -7.1750     5.2851    42.0369 </r>
       <r>    -7.0686     5.1446    42.5909 </r>
       <r>    -6.9622     5.0262    43.1318 </r>
       <r>    -6.8559     4.9078    43.6602 </r>
       <r>    -6.7495     4.7895    44.1760 </r>
       <r>    -6.6431     4.6711    44.6792 </r>
       <r>    -6.5367     4.5528    45.1698 </r>
       <r>    -6.4304     4.4341    45.6478 </r>
       <r>    -6.3240     4.4249    46.1160 </r>
       <r>    -6.2176     5.0403    46.6205 </r>
       <r>    -6.1112     5.6128    47.1872 </r>
       <r>    -6.0049     6.1853    47.8147 </r>
       <r>    -5.8985     6.7577    48.5031 </r>
       <r>    -5.7921     7.3302    49.2524 </r>
       <r>    -5.6857     7.9027    50.0626 </r>
       <r>    -5.5793     8.4752    50.9337 </r>
       <r>    -5.4730     9.0477    51.8658 </r>
       <r>    -5.3666     3.8657    52.4808 </r>
       <r>    -5.2602     6.4155    52.9925 </r>
       <r>    -5.1538     6.6274    53.7455 </r>
       <r>    -5.0475     5.2220    54.3757 </r>
       <r>    -4.9411     3.8167    54.8565 </r>
       <r>    -4.8347     2.4113    55.1877 </r>
       <r>    -4.7283     1.0749    55.3698 </r>
       <r>    -4.6220     2.2492    55.5360 </r>
       <r>    -4.5156     3.6630    55.8505 </r>
       <r>    -4.4092     5.0769    56.3153 </r>
       <r>    -4.3028     7.5965    56.9380 </r>
       <r>    -4.1964    11.4030    58.0449 </r>
       <r>    -4.0901    10.5253    59.2112 </r>
       <r>    -3.9837    10.8590    60.3181 </r>
       <r>    -3.8773    10.7254    61.4963 </r>
       <r>    -3.7709     5.3899    62.2403 </r>
       <r>    -3.6646     5.6547    62.8153 </r>
       <r>    -3.5582     6.4890    63.4605 </r>
       <r>    -3.4518    10.2912    64.3047 </r>
       <r>    -3.3454    15.4529    65.6725 </r>
       <r>    -3.2391    27.4277    67.7729 </r>
       <r>    -3.1327     6.5387    69.0212 </r>
       <r>    -3.0263     6.6819    69.7212 </r>
       <r>    -2.9199     7.0089    70.4484 </r>
       <r>    -2.8135     7.5899    71.2193 </r>
       <r>    -2.7072     9.3548    72.1076 </r>
       <r>    -2.6008    16.8148    73.7128 </r>
       <r>    -2.4944    14.4714    75.3676 </r>
       <r>    -2.3880    11.7059    76.8141 </r>
       <r>    -2.2817    15.8933    78.0845 </r>
       <r>    -2.1753    15.4335    81.3104 </r>
       <r>    -2.0689    20.7114    83.1229 </r>
       <r>    -1.9625    12.5052    84.9806 </r>
       <r>    -1.8562    13.9620    86.3781 </r>
       <r>    -1.7498    14.9649    87.9496 </r>
       <r>    -1.6434     9.1649    89.2655 </r>
       <r>    -1.5370     6.4789    90.0783 </r>
       <r>    -1.4306     8.2954    90.8567 </r>
       <r>    -1.3243     8.3805    91.7614 </r>
       <r>    -1.2179     9.2680    92.6986 </r>
       <r>    -1.1115     9.8451    93.7266 </r>
       <r>    -1.0051     9.5579    94.7535 </r>
       <r>    -0.8988    11.0367    95.8356 </r>
       <r>    -0.7924    11.9240    97.6437 </r>
       <r>    -0.6860    11.1936    98.8860 </r>
       <r>    -0.5796    11.5476   100.0960 </r>
       <r>    -0.4733    11.7756   101.3367 </r>
       <r>    -0.3669    10.3727   102.4972 </r>
       <r>    -0.2605    10.0686   103.6021 </r>
       <r>    -0.1541     9.8145   104.6600 </r>
       <r>    -0.0477     9.5864   105.6893 </r>
       <r>     0.0586     9.5070   106.7032 </r>
       <r>     0.1650     9.5402   107.7205 </r>
       <r>     0.2714     9.1492   108.7115 </r>
       <r>     0.3778     8.9920   109.6747 </r>
       <r>     0.4841     9.0210   110.6320 </r>
       <r>     0.5905     9.7872   111.6322 </r>
       <r>     0.6969     9.8461   112.6758 </r>
       <r>     0.8033    10.1874   113.7504 </r>
       <r>     0.9096    10.6197   114.8773 </r>
       <r>     1.0160     9.5780   115.9563 </r>
       <r>     1.1224     8.1309   116.8999 </r>
       <r>     1.2288     6.6451   117.6774 </r>
       <r>     1.3352     5.5784   118.3301 </r>
       <r>     1.4415     4.9711   118.9056 </r>
       <r>     1.5479     3.9619   119.3940 </r>
       <r>     1.6543     2.9391   119.7470 </r>
       <r>     1.7607     3.5304   120.0689 </r>
       <r>     1.8670     5.3340   120.5466 </r>
       <r>     1.9734     7.9071   121.2523 </r>
       <r>     2.0798    14.3804   122.3464 </r>
       <r>     2.1862     7.4986   123.2864 </r>
       <r>     2.2925     6.4103   124.0209 </r>
       <r>     2.3989     5.6899   124.6626 </r>
       <r>     2.5053     4.6625   125.2287 </r>
       <r>     2.6117     3.7538   125.6718 </r>
       <r>     2.7181     3.2825   126.0436 </r>
       <r>     2.8244     2.9395   126.3747 </r>
       <r>     2.9308     2.5842   126.6686 </r>
       <r>     3.0372     2.2465   126.9252 </r>
       <r>     3.1436     1.9219   127.1472 </r>
       <r>     3.2499     1.5584   127.3307 </r>
       <r>     3.3563     1.3576   127.4858 </r>
       <r>     3.4627     1.1567   127.6195 </r>
       <r>     3.5691     0.9557   127.7319 </r>
       <r>     3.6754     0.7547   127.8229 </r>
       <r>     3.7818     0.5576   127.8925 </r>
       <r>     3.8882     0.3910   127.9427 </r>
       <r>     3.9946     0.2428   127.9763 </r>
       <r>     4.1010     0.1089   127.9949 </r>
       <r>     4.2073     0.0029   128.0000 </r>
       <r>     4.3137     0.1104   128.0059 </r>
       <r>     4.4201     0.2326   128.0240 </r>
       <r>     4.5265     0.3715   128.0560 </r>
       <r>     4.6328     0.5312   128.1038 </r>
       <r>     4.7392     0.7297   128.1703 </r>
       <r>     4.8456     0.9458   128.2595 </r>
       <r>     4.9520     1.1620   128.3716 </r>
       <r>     5.0583     1.3784   128.5067 </r>
       <r>     5.1647     1.5950   128.6648 </r>
       <r>     5.2711     1.8117   128.8460 </r>
       <r>     5.3775     2.9698   129.0780 </r>
       <r>     5.4838     3.8499   129.4466 </r>
       <r>     5.5902     4.0014   129.8696 </r>
       <r>     5.6966     5.4276   130.3579 </r>
       <r>     5.8030     8.0632   131.0909 </r>
       <r>     5.9094    12.6364   132.1680 </r>
       <r>     6.0157     9.1581   133.3199 </r>
       <r>     6.1221     7.1998   134.1809 </r>
       <r>     6.2285     6.3720   134.8916 </r>
       <r>     6.3349     5.9791   135.5462 </r>
       <r>     6.4412     5.4649   136.1617 </r>
       <r>     6.5476     4.6697   136.6958 </r>
       <r>     6.6540     4.5094   137.1839 </r>
       <r>     6.7604     4.0324   137.6362 </r>
       <r>     6.8667     3.7921   138.0480 </r>
       <r>     6.9731     3.9923   138.4589 </r>
       <r>     7.0795     4.4673   138.9084 </r>
       <r>     7.1859     4.7870   139.4028 </r>
       <r>     7.2923     4.7458   139.9125 </r>
       <r>     7.3986     4.6528   140.4119 </r>
       <r>     7.5050     4.4810   140.8977 </r>
       <r>     7.6114     4.3095   141.3652 </r>
       <r>     7.7178     4.1769   141.8160 </r>
       <r>     7.8241     4.0923   142.2555 </r>
       <r>     7.9305     4.0388   142.6877 </r>
       <r>     8.0369     4.0033   143.1154 </r>
       <r>     8.1433     4.0172   143.5406 </r>
       <r>     8.2496     4.2952   143.9800 </r>
       <r>     8.3560     4.5707   144.4559 </r>
       <r>     8.4624     4.2776   144.9341 </r>
       <r>     8.5688     4.1296   145.3796 </r>
       <r>     8.6752     4.0566   145.8155 </r>
       <r>     8.7815     3.9838   146.2429 </r>
       <r>     8.8879     3.8667   146.6602 </r>
       <r>     8.9943     3.9114   147.0735 </r>
       <r>     9.1007     3.9669   147.4926 </r>
       <r>     9.2070     4.0169   147.9173 </r>
       <r>     9.3134     4.0678   148.3473 </r>
       <r>     9.4198     4.1008   148.7821 </r>
       <r>     9.5262     4.1398   149.2196 </r>
       <r>     9.6325     4.5770   149.6847 </r>
       <r>     9.7389     4.7554   150.1846 </r>
       <r>     9.8453     4.7609   150.6915 </r>
       <r>     9.9517     6.5003   151.2882 </r>
       <r>    10.0581     5.2994   151.8855 </r>
       <r>    10.1644     6.0945   152.4953 </r>
       <r>    10.2708     5.7534   153.1509 </r>
       <r>    10.3772     5.9480   153.7360 </r>
       <r>    10.4836     5.1386   154.3814 </r>
       <r>    10.5899     3.4078   154.8319 </r>
       <r>    10.6963     4.0448   155.1925 </r>
       <r>    10.8027     3.2224   155.6566 </r>
       <r>    10.9091     2.9491   155.9765 </r>
       <r>    11.0154     3.0485   156.2945 </r>
       <r>    11.1218     3.2244   156.6283 </r>
       <r>    11.2282     3.3397   156.9781 </r>
       <r>    11.3346     4.0042   157.3478 </r>
       <r>    11.4410     4.6316   157.8162 </r>
       <r>    11.5473     8.6843   158.4794 </r>
       <r>    11.6537     8.5786   159.3340 </r>
       <r>    11.7601     9.7730   160.3096 </r>
       <r>    11.8665    11.7636   161.4477 </r>
       <r>    11.9728    12.7794   162.7598 </r>
       <r>    12.0792    12.7140   164.1196 </r>
       <r>    12.1856    13.0304   165.4835 </r>
       <r>    12.2920    11.5170   166.8265 </r>
       <r>    12.3983     5.4202   167.7697 </r>
       <r>    12.5047     0.0740   167.9996 </r>
       <r>    12.6111     0.0000   168.0000 </r>
       <r>    12.7175     0.0000   168.0000 </r>
       <r>    12.8239     0.0000   168.0000 </r>
       <r>    12.9302     0.0000   168.0000 </r>
       <r>    13.0366     0.0000   168.0000 </r>
       <r>    13.1430     0.0000   168.0000 </r>
       <r>    13.2494     0.0000   168.0000 </r>
       <r>    13.3557     0.0000   168.0000 </r>
       <r>    13.4621     0.0000   168.0000 </r>
       <r>    13.5685     0.0000   168.0000 </r>
       <r>    13.6749     0.0000   168.0000 </r>
       <r>    13.7812     0.0000   168.0000 </r>
       <r>    13.8876     0.0000   168.0000 </r>
       <r>    13.9940     0.0000   168.0000 </r>
       <r>    14.1004     0.0000   168.0000 </r>
       <r>    14.2068     0.0000   168.0000 </r>
       <r>    14.3131     0.0000   168.0000 </r>
       <r>    14.4195     0.0000   168.0000 </r>
       <r>    14.5259     0.0000   168.0000 </r>
      </set>
     </set>
    </array>
   </total>
  </dos>
 </calculation>
 <structure name="finalpos" >
  <crystal>
   <varray name="basis" >
    <v>       4.93287450      -0.00191929       0.00000000 </v>
    <v>      -2.46809940       4.27103499       0.00000000 </v>
    <v>       0.00000000       0.00000000      14.19194656 </v>
   </varray>
   <i name="volume">    298.93550892 </i>
   <varray name="rec_basis" >
    <v>       0.20276715       0.11717288       0.00000000 </v>
    <v>       0.00009112       0.23418794       0.00000000 </v>
    <v>       0.00000000       0.00000000       0.07046250 </v>
   </varray>
  </crystal>
  <varray name="positions" >
   <v>       0.50030369       0.00036190       0.12566557 </v>
   <v>       0.99963812       0.00036190       0.12500000 </v>
   <v>       0.49963812       0.50036190       0.12500000 </v>
   <v>       0.99963812       0.50036190       0.12500000 </v>
   <v>       0.49963812       0.00036190       0.62500000 </v>
   <v>       0.99963812       0.00036190       0.62500000 </v>
   <v>       0.49963812       0.50036190       0.62500000 </v>
   <v>       0.99963812       0.50036190       0.62500000 </v>
   <v>       0.00036190       0.49963812       0.37500000 </v>
   <v>       0.50036190       0.49963812       0.37500000 </v>
   <v>       0.00036190       0.99963812       0.37500000 </v>
   <v>       0.50036190       0.99963812       0.37500000 </v>
   <v>       0.00036190       0.49963812       0.87500000 </v>
   <v>       0.50036190       0.49963812       0.87500000 </v>
   <v>       0.00036190       0.99963812       0.87500000 </v>
   <v>       0.50036190       0.99963812       0.87500000 </v>
   <v>       0.16631874       0.33368125       0.12500000 </v>
   <v>       0.66631874       0.33368125       0.12500000 </v>
   <v>       0.16631874       0.83368125       0.12500000 </v>
   <v>       0.66631874       0.83368125       0.12500000 </v>
   <v>       0.16631874       0.33368125       0.62500000 </v>
   <v>       0.66631874       0.33368125       0.62500000 </v>
   <v>       0.16631874       0.83368125       0.62500000 </v>
   <v>       0.66631874       0.83368125       0.62500000 </v>
   <v>       0.33368125       0.16631874       0.37500000 </v>
   <v>       0.83368125       0.16631874       0.37500000 </v>
   <v>       0.33368125       0.66631874       0.37500000 </v>
   <v>       0.83368125       0.66631874       0.37500000 </v>
   <v>       0.33368125       0.16631874       0.87500000 </v>
   <v>       0.83368125       0.16631874       0.87500000 </v>
   <v>       0.33368125       0.66631874       0.87500000 </v>
   <v>       0.83368125       0.66631874       0.87500000 </v>
  </varray>
 </structure>
</modeling>
