  32  32   0   0
  0.7533559E+01  0.4934311E-09  0.4934311E-09  0.1143376E-08  0.5000000E-15
  1.000000000000000E-004
  CAR 
 graphite                                
     17.98424885    -15.71973111  301      6.14794421      1.00000000
    -15.720  0.0000E+00  0.0000E+00
    -15.607  0.0000E+00  0.0000E+00
    -15.495  0.0000E+00  0.0000E+00
    -15.383  0.0000E+00  0.0000E+00
    -15.270  0.0000E+00  0.0000E+00
    -15.158  0.0000E+00  0.0000E+00
    -15.046  0.0000E+00  0.0000E+00
    -14.933  0.0000E+00  0.0000E+00
    -14.821  0.0000E+00  0.0000E+00
    -14.709  0.0000E+00  0.0000E+00
    -14.596  0.0000E+00  0.0000E+00
    -14.484  0.0000E+00  0.0000E+00
    -14.372  0.0000E+00  0.0000E+00
    -14.259  0.0000E+00  0.0000E+00
    -14.147  0.0000E+00  0.0000E+00
    -14.035  0.0000E+00  0.0000E+00
    -13.922  0.0000E+00  0.0000E+00
    -13.810  0.0000E+00  0.0000E+00
    -13.697  0.1097E+00  0.8134E-03
    -13.585  0.1144E+01  0.8668E-01
    -13.473  0.1750E+01  0.2489E+00
    -13.360  0.2096E+01  0.4651E+00
    -13.248  0.2536E+01  0.7252E+00
    -13.136  0.2918E+01  0.1033E+01
    -13.023  0.3303E+01  0.1382E+01
    -12.911  0.3773E+01  0.1778E+01
    -12.799  0.4555E+01  0.2240E+01
    -12.686  0.4900E+01  0.2789E+01
    -12.574  0.4942E+01  0.3345E+01
    -12.462  0.5215E+01  0.3911E+01
    -12.349  0.5394E+01  0.4508E+01
    -12.237  0.6003E+01  0.5152E+01
    -12.125  0.4726E+01  0.5779E+01
    -12.012  0.4875E+01  0.6294E+01
    -11.900  0.6136E+01  0.6897E+01
    -11.788  0.3137E+01  0.7468E+01
    -11.675  0.3784E+01  0.7826E+01
    -11.563  0.4530E+01  0.8297E+01
    -11.451  0.5372E+01  0.8941E+01
    -11.338  0.3955E+01  0.9409E+01
    -11.226  0.4795E+01  0.9907E+01
    -11.114  0.5374E+01  0.1048E+02
    -11.001  0.6276E+01  0.1112E+02
    -10.889  0.5629E+01  0.1175E+02
    -10.776  0.5343E+01  0.1236E+02
    -10.664  0.5079E+01  0.1295E+02
    -10.552  0.4830E+01  0.1351E+02
    -10.439  0.4664E+01  0.1404E+02
    -10.327  0.4822E+01  0.1457E+02
    -10.215  0.5395E+01  0.1514E+02
    -10.102  0.5239E+01  0.1574E+02
     -9.990  0.5327E+01  0.1633E+02
     -9.878  0.5492E+01  0.1694E+02
     -9.765  0.5470E+01  0.1756E+02
     -9.653  0.5605E+01  0.1818E+02
     -9.541  0.5800E+01  0.1882E+02
     -9.428  0.6142E+01  0.1949E+02
     -9.316  0.6508E+01  0.2020E+02
     -9.204  0.6155E+01  0.2091E+02
     -9.091  0.5151E+01  0.2155E+02
     -8.979  0.4094E+01  0.2207E+02
     -8.867  0.3842E+01  0.2251E+02
     -8.754  0.4072E+01  0.2295E+02
     -8.642  0.4589E+01  0.2343E+02
     -8.530  0.5630E+01  0.2400E+02
     -8.417  0.6268E+01  0.2467E+02
     -8.305  0.6561E+01  0.2539E+02
     -8.193  0.7449E+01  0.2617E+02
     -8.080  0.9035E+01  0.2712E+02
     -7.968  0.1016E+02  0.2809E+02
     -7.855  0.5364E+01  0.2885E+02
     -7.743  0.4225E+01  0.2938E+02
     -7.631  0.3981E+01  0.2985E+02
     -7.518  0.3126E+01  0.3024E+02
     -7.406  0.3389E+01  0.3059E+02
     -7.294  0.2568E+01  0.3092E+02
     -7.181  0.2117E+01  0.3118E+02
     -7.069  0.1867E+01  0.3141E+02
     -6.957  0.2391E+01  0.3163E+02
     -6.844  0.6272E+01  0.3196E+02
     -6.732  0.4862E+01  0.3254E+02
     -6.620  0.4329E+01  0.3305E+02
     -6.507  0.4523E+01  0.3354E+02
     -6.395  0.5413E+01  0.3411E+02
     -6.283  0.5615E+01  0.3472E+02
     -6.170  0.6915E+01  0.3542E+02
     -6.058  0.8451E+01  0.3630E+02
     -5.946  0.7565E+01  0.3719E+02
     -5.833  0.7488E+01  0.3803E+02
     -5.721  0.6897E+01  0.3885E+02
     -5.609  0.5843E+01  0.3954E+02
     -5.496  0.5581E+01  0.4018E+02
     -5.384  0.5386E+01  0.4080E+02
     -5.271  0.5199E+01  0.4139E+02
     -5.159  0.5039E+01  0.4197E+02
     -5.047  0.4944E+01  0.4253E+02
     -4.934  0.4867E+01  0.4308E+02
     -4.822  0.4742E+01  0.4362E+02
     -4.710  0.4669E+01  0.4415E+02
     -4.597  0.4509E+01  0.4467E+02
     -4.485  0.3745E+01  0.4512E+02
     -4.373  0.3707E+01  0.4553E+02
     -4.260  0.4295E+01  0.4597E+02
     -4.148  0.5253E+01  0.4652E+02
     -4.036  0.6212E+01  0.4715E+02
     -3.923  0.7936E+01  0.4796E+02
     -3.811  0.8298E+01  0.4888E+02
     -3.699  0.8646E+01  0.4982E+02
     -3.586  0.6680E+01  0.5075E+02
     -3.474  0.3122E+01  0.5129E+02
     -3.362  0.2203E+01  0.5157E+02
     -3.249  0.3062E+01  0.5185E+02
     -3.137  0.4600E+01  0.5228E+02
     -3.025  0.7206E+01  0.5293E+02
     -2.912  0.8488E+01  0.5383E+02
     -2.800  0.8834E+01  0.5481E+02
     -2.688  0.7352E+01  0.5572E+02
     -2.575  0.6687E+01  0.5650E+02
     -2.463  0.7692E+01  0.5730E+02
     -2.350  0.8831E+01  0.5826E+02
     -2.238  0.7776E+01  0.5918E+02
     -2.126  0.7056E+01  0.6002E+02
     -2.013  0.8371E+01  0.6085E+02
     -1.901  0.8463E+01  0.6180E+02
     -1.789  0.9376E+01  0.6282E+02
     -1.676  0.8938E+01  0.6385E+02
     -1.564  0.8679E+01  0.6486E+02
     -1.452  0.8436E+01  0.6578E+02
     -1.339  0.8591E+01  0.6675E+02
     -1.227  0.8846E+01  0.6771E+02
     -1.115  0.9846E+01  0.6876E+02
     -1.002  0.1255E+02  0.6994E+02
     -0.890  0.1001E+02  0.7111E+02
     -0.778  0.1494E+02  0.7232E+02
     -0.665  0.1447E+02  0.7391E+02
     -0.553  0.1366E+02  0.7549E+02
     -0.441  0.1299E+02  0.7697E+02
     -0.328  0.1333E+02  0.7838E+02
     -0.216  0.1023E+02  0.7980E+02
     -0.104  0.1372E+02  0.8119E+02
      0.009  0.1854E+02  0.8318E+02
      0.121  0.1416E+02  0.8501E+02
      0.233  0.1260E+02  0.8648E+02
      0.346  0.1134E+02  0.8784E+02
      0.458  0.9722E+01  0.8900E+02
      0.571  0.1022E+02  0.9010E+02
      0.683  0.1035E+02  0.9125E+02
      0.795  0.1201E+02  0.9249E+02
      0.908  0.1282E+02  0.9392E+02
      1.020  0.1150E+02  0.9526E+02
      1.132  0.9401E+01  0.9641E+02
      1.245  0.1007E+02  0.9749E+02
      1.357  0.1074E+02  0.9866E+02
      1.469  0.1067E+02  0.9988E+02
      1.582  0.9331E+01  0.1010E+03
      1.694  0.1059E+02  0.1021E+03
      1.806  0.9667E+01  0.1032E+03
      1.919  0.9039E+01  0.1043E+03
      2.031  0.9550E+01  0.1053E+03
      2.143  0.1006E+02  0.1064E+03
      2.256  0.1008E+02  0.1076E+03
      2.368  0.1002E+02  0.1087E+03
      2.480  0.9616E+01  0.1098E+03
      2.593  0.8562E+01  0.1108E+03
      2.705  0.8312E+01  0.1118E+03
      2.817  0.8399E+01  0.1127E+03
      2.930  0.8788E+01  0.1137E+03
      3.042  0.9433E+01  0.1147E+03
      3.154  0.9024E+01  0.1158E+03
      3.267  0.8443E+01  0.1167E+03
      3.379  0.7637E+01  0.1177E+03
      3.492  0.5283E+01  0.1184E+03
      3.604  0.3239E+01  0.1188E+03
      3.716  0.2552E+01  0.1192E+03
      3.829  0.3544E+01  0.1195E+03
      3.941  0.7021E+01  0.1201E+03
      4.053  0.7180E+01  0.1208E+03
      4.166  0.8018E+01  0.1217E+03
      4.278  0.8158E+01  0.1226E+03
      4.390  0.6168E+01  0.1235E+03
      4.503  0.4324E+01  0.1241E+03
      4.615  0.4278E+01  0.1246E+03
      4.727  0.4355E+01  0.1250E+03
      4.840  0.4325E+01  0.1255E+03
      4.952  0.3782E+01  0.1260E+03
      5.064  0.2974E+01  0.1264E+03
      5.177  0.2484E+01  0.1267E+03
      5.289  0.2062E+01  0.1269E+03
      5.401  0.1812E+01  0.1271E+03
      5.514  0.1674E+01  0.1273E+03
      5.626  0.1529E+01  0.1275E+03
      5.738  0.1511E+01  0.1277E+03
      5.851  0.1155E+01  0.1279E+03
      5.963  0.6403E+00  0.1280E+03
      6.076  0.1398E+00  0.1280E+03
      6.188  0.1938E-01  0.1280E+03
      6.300  0.1922E+00  0.1280E+03
      6.413  0.3812E+00  0.1280E+03
      6.525  0.5760E+00  0.1281E+03
      6.637  0.7765E+00  0.1282E+03
      6.750  0.9193E+00  0.1283E+03
      6.862  0.1054E+01  0.1284E+03
      6.974  0.1248E+01  0.1285E+03
      7.087  0.1462E+01  0.1287E+03
      7.199  0.1656E+01  0.1288E+03
      7.311  0.1830E+01  0.1290E+03
      7.424  0.2312E+01  0.1293E+03
      7.536  0.3338E+01  0.1296E+03
      7.648  0.3859E+01  0.1300E+03
      7.761  0.7280E+01  0.1306E+03
      7.873  0.9684E+01  0.1316E+03
      7.985  0.1036E+02  0.1328E+03
      8.098  0.7489E+01  0.1338E+03
      8.210  0.6317E+01  0.1345E+03
      8.322  0.5951E+01  0.1352E+03
      8.435  0.5845E+01  0.1359E+03
      8.547  0.5489E+01  0.1365E+03
      8.659  0.4700E+01  0.1371E+03
      8.772  0.3641E+01  0.1376E+03
      8.884  0.3245E+01  0.1380E+03
      8.997  0.4036E+01  0.1384E+03
      9.109  0.4458E+01  0.1389E+03
      9.221  0.4617E+01  0.1394E+03
      9.334  0.4947E+01  0.1399E+03
      9.446  0.4689E+01  0.1404E+03
      9.558  0.4332E+01  0.1409E+03
      9.671  0.4533E+01  0.1414E+03
      9.783  0.4307E+01  0.1419E+03
      9.895  0.4128E+01  0.1424E+03
     10.008  0.3935E+01  0.1429E+03
     10.120  0.3765E+01  0.1433E+03
     10.232  0.3647E+01  0.1437E+03
     10.345  0.3594E+01  0.1441E+03
     10.457  0.3552E+01  0.1445E+03
     10.569  0.3436E+01  0.1449E+03
     10.682  0.3182E+01  0.1453E+03
     10.794  0.3093E+01  0.1456E+03
     10.906  0.3008E+01  0.1460E+03
     11.019  0.2938E+01  0.1463E+03
     11.131  0.2942E+01  0.1466E+03
     11.243  0.2981E+01  0.1470E+03
     11.356  0.3041E+01  0.1473E+03
     11.468  0.3079E+01  0.1477E+03
     11.580  0.2995E+01  0.1480E+03
     11.693  0.3114E+01  0.1483E+03
     11.805  0.2975E+01  0.1487E+03
     11.918  0.3522E+01  0.1490E+03
     12.030  0.3206E+01  0.1494E+03
     12.142  0.2849E+01  0.1498E+03
     12.255  0.2614E+01  0.1501E+03
     12.367  0.2405E+01  0.1504E+03
     12.479  0.2215E+01  0.1506E+03
     12.592  0.2297E+01  0.1509E+03
     12.704  0.2547E+01  0.1511E+03
     12.816  0.3439E+01  0.1515E+03
     12.929  0.3179E+01  0.1518E+03
     13.041  0.2627E+01  0.1522E+03
     13.153  0.3939E+01  0.1525E+03
     13.266  0.4537E+01  0.1530E+03
     13.378  0.6132E+01  0.1536E+03
     13.490  0.9208E+01  0.1544E+03
     13.603  0.8465E+01  0.1554E+03
     13.715  0.7273E+01  0.1563E+03
     13.827  0.8390E+01  0.1572E+03
     13.940  0.9168E+01  0.1582E+03
     14.052  0.1029E+02  0.1593E+03
     14.164  0.1011E+02  0.1605E+03
     14.277  0.1130E+02  0.1617E+03
     14.389  0.1393E+02  0.1631E+03
     14.502  0.1270E+02  0.1646E+03
     14.614  0.8127E+01  0.1658E+03
     14.726  0.4899E+01  0.1665E+03
     14.839  0.3462E+01  0.1670E+03
     14.951  0.2783E+01  0.1673E+03
     15.063  0.2500E+01  0.1677E+03
     15.176  0.1028E+01  0.1678E+03
     15.288  0.4911E+00  0.1679E+03
     15.400  0.3224E+00  0.1679E+03
     15.513  0.2020E+00  0.1680E+03
     15.625  0.1287E+00  0.1680E+03
     15.737  0.7607E-01  0.1680E+03
     15.850  0.3337E-01  0.1680E+03
     15.962  0.1299E-02  0.1680E+03
     16.074  0.0000E+00  0.1680E+03
     16.187  0.0000E+00  0.1680E+03
     16.299  0.0000E+00  0.1680E+03
     16.411  0.0000E+00  0.1680E+03
     16.524  0.0000E+00  0.1680E+03
     16.636  0.0000E+00  0.1680E+03
     16.748  0.0000E+00  0.1680E+03
     16.861  0.0000E+00  0.1680E+03
     16.973  0.0000E+00  0.1680E+03
     17.085  0.0000E+00  0.1680E+03
     17.198  0.0000E+00  0.1680E+03
     17.310  0.0000E+00  0.1680E+03
     17.423  0.0000E+00  0.1680E+03
     17.535  0.0000E+00  0.1680E+03
     17.647  0.0000E+00  0.1680E+03
     17.760  0.0000E+00  0.1680E+03
     17.872  0.0000E+00  0.1680E+03
     17.984  0.0000E+00  0.1680E+03
