   32   32    1    1
  0.7533559E+01  0.4934311E-09  0.4934311E-09  0.1143376E-08  0.5000000E-15
  1.000000000000000E-004
  CAR 
 graphite                                
    128    163     84
 
  0.0000000E+00  0.0000000E+00  0.0000000E+00  0.3086420E-02
    1      -13.719731
    2      -13.297779
    3      -13.296578
    4      -12.791738
    5       -8.267084
    6       -8.265288
    7       -8.263692
    8       -8.039250
    9       -8.034934
   10       -8.034513
   11       -8.033951
   12       -8.033669
   13       -8.029453
   14       -7.924823
   15       -7.921964
   16       -7.918570
   17       -7.011446
   18       -7.008669
   19       -7.006526
   20       -6.991340
   21       -6.989240
   22       -6.988310
   23       -6.987781
   24       -6.987375
   25       -6.983796
   26       -6.768580
   27       -6.767099
   28       -6.766534
   29       -3.155651
   30       -1.344105
   31       -1.340957
   32       -0.249636
   33       -0.246976
   34       -0.245862
   35       -0.137795
   36       -0.134981
   37       -0.134937
   38       -0.133549
   39       -0.131800
   40       -0.130150
   41       -0.019422
   42       -0.016776
   43       -0.015555
   44        0.954188
   45        2.807765
   46        2.808957
   47        2.810135
   48        3.199429
   49        3.203657
   50        3.240012
   51        3.242846
   52        3.247643
   53        3.250503
   54        3.286828
   55        3.290939
   56        3.852671
   57        3.858763
   58        3.859183
   59        3.859509
   60        3.860207
   61        3.865983
   62        4.183933
   63        4.186651
   64        4.189147
   65        7.828727
   66        7.834458
   67        7.836155
   68        7.836536
   69        7.836861
   70        7.842682
   71        8.080081
   72        8.082562
   73        8.085124
   74        8.996343
   75        8.998244
   76        8.999197
   77       12.469303
   78       13.027489
   79       13.031662
   80       13.034789
   81       13.571121
   82       13.575233
   83       13.575854
   84       13.578163
 
  0.1111111E+00  0.1387779E-16  0.0000000E+00  0.6172840E-02
    1      -13.645075
    2      -13.224451
    3      -13.223254
    4      -12.720482
    5       -9.116193
    6       -8.791633
    7       -8.790649
    8       -8.550135
    9       -8.547780
   10       -8.428374
   11       -8.259957
   12       -8.257147
   13       -8.256390
   14       -8.254470
   15       -7.971337
   16       -7.967786
   17       -6.846646
   18       -6.844612
   19       -6.646845
   20       -6.645983
   21       -6.645064
   22       -6.642536
   23       -6.379902
   24       -6.359282
   25       -6.357627
   26       -6.124385
   27       -6.122146
   28       -5.821744
   29       -3.065253
   30       -1.258095
   31       -1.254949
   32       -0.483600
   33       -0.480703
   34       -0.362582
   35       -0.360333
   36       -0.357859
   37       -0.357243
   38       -0.233440
   39       -0.230563
   40       -0.174041
   41       -0.062666
   42       -0.059605
   43        0.054866
   44        1.033884
   45        2.146549
   46        2.665850
   47        2.667574
   48        2.886901
   49        2.941277
   50        2.947319
   51        3.001760
   52        3.037179
   53        3.087507
   54        3.093717
   55        3.144328
   56        3.436931
   57        3.441217
   58        3.802418
   59        3.808148
   60        3.809074
   61        3.810972
   62        4.355593
   63        4.358967
   64        4.433818
   65        7.962509
   66        7.964805
   67        7.966152
   68        7.971367
   69        8.027826
   70        8.030832
   71        8.047739
   72        8.365963
   73        8.371313
   74        9.136169
   75        9.138127
   76        9.666452
   77       12.546455
   78       13.076726
   79       13.369523
   80       13.375213
   81       13.617587
   82       13.619440
   83       13.905795
   84       13.911841
 
  0.2222222E+00  0.1387779E-16  0.0000000E+00  0.6172840E-02
    1      -13.421384
    2      -13.004924
    3      -13.003737
    4      -12.507070
    5      -10.146971
    6       -9.794031
    7       -9.793001
    8       -9.386503
    9       -8.915692
   10       -8.913575
   11       -8.596641
   12       -8.594438
   13       -8.593854
   14       -8.591972
   15       -8.239114
   16       -8.236539
   17       -6.204766
   18       -6.203015
   19       -5.956288
   20       -5.955476
   21       -5.954381
   22       -5.952068
   23       -5.663204
   24       -5.661279
   25       -5.050675
   26       -4.800990
   27       -4.798850
   28       -4.519894
   29       -2.794850
   30       -1.108077
   31       -1.105426
   32       -1.001333
   33       -0.998208
   34       -0.966333
   35       -0.964140
   36       -0.962030
   37       -0.961238
   38       -0.811729
   39       -0.809069
   40        0.042054
   41        0.151506
   42        0.154657
   43        0.267497
   44        1.058693
   45        1.271457
   46        2.035725
   47        2.120957
   48        2.126168
   49        2.212809
   50        2.399787
   51        2.401665
   52        2.557847
   53        2.561522
   54        2.603488
   55        2.671653
   56        2.677295
   57        2.746492
   58        3.682857
   59        3.688468
   60        3.689298
   61        3.691375
   62        4.216883
   63        4.684365
   64        4.687662
   65        7.993689
   66        7.995894
   67        8.292010
   68        8.294315
   69        8.295659
   70        8.301427
   71        8.802369
   72        9.402291
   73        9.405044
   74        9.573628
   75        9.578257
   76       10.859507
   77       12.779702
   78       13.211868
   79       13.742951
   80       13.744972
   81       14.279692
   82       14.307605
   83       14.313824
   84       14.487253
 
  0.3333333E+00  0.8326673E-16  0.0000000E+00  0.6172840E-02
    1      -13.049901
    2      -12.640276
    3      -12.639106
    4      -12.152423
    5      -11.074071
    6      -10.701834
    7      -10.700754
    8      -10.267142
    9       -9.179878
   10       -9.177909
   11       -8.849954
   12       -8.847938
   13       -8.847536
   14       -8.845605
   15       -8.473205
   16       -8.470980
   17       -5.388898
   18       -5.386926
   19       -5.151345
   20       -5.150528
   21       -5.149396
   22       -5.146750
   23       -4.885326
   24       -4.883144
   25       -3.597486
   26       -3.374119
   27       -3.371731
   28       -3.126442
   29       -2.346548
   30       -1.937072
   31       -1.934776
   32       -1.780423
   33       -1.777974
   34       -1.776603
   35       -1.775440
   36       -1.601610
   37       -1.599248
   38       -0.577221
   39       -0.574133
   40        0.000690
   41        0.393082
   42        0.499512
   43        0.502855
   44        0.612375
   45        0.821734
   46        0.944137
   47        0.948349
   48        1.072646
   49        1.615198
   50        1.618522
   51        1.661490
   52        2.028865
   53        2.112077
   54        2.116500
   55        2.174927
   56        2.176925
   57        2.202629
   58        3.559867
   59        3.564604
   60        3.565891
   61        3.566701
   62        3.569564
   63        4.953285
   64        4.956497
   65        8.084660
   66        8.086903
   67        8.676305
   68        8.678740
   69        8.679934
   70        8.685928
   71        9.611541
   72        9.614810
   73       10.212548
   74       11.029129
   75       11.033517
   76       12.183534
   77       13.165864
   78       13.424352
   79       13.944753
   80       13.947140
   81       14.321428
   82       14.373731
   83       14.406022
   84       14.411000
 
  0.4444444E+00  0.2775558E-16  0.0000000E+00  0.6172840E-02
    1      -12.532436
    2      -12.132387
    3      -12.131240
    4      -11.872127
    5      -11.658518
    6      -11.484398
    7      -11.483279
    8      -11.028302
    9       -9.315787
   10       -9.313886
   11       -8.981125
   12       -8.979146
   13       -8.978879
   14       -8.976897
   15       -8.597818
   16       -8.595718
   17       -4.602185
   18       -4.600009
   19       -4.418760
   20       -4.417854
   21       -4.417419
   22       -4.413331
   23       -4.240702
   24       -4.238230
   25       -2.652190
   26       -2.650380
   27       -2.542631
   28       -2.539391
   29       -2.538959
   30       -2.537520
   31       -2.377824
   32       -2.375976
   33       -2.092715
   34       -1.901664
   35       -1.898821
   36       -1.724952
   37       -1.690458
   38       -0.937643
   39       -0.593500
   40       -0.442433
   41       -0.439126
   42       -0.265918
   43        0.017851
   44        0.021303
   45        0.750202
   46        0.753498
   47        0.862883
   48        0.964363
   49        0.967987
   50        1.072391
   51        1.423657
   52        1.517799
   53        1.522098
   54        1.618493
   55        2.052580
   56        2.054728
   57        2.193013
   58        2.844185
   59        3.486703
   60        3.492103
   61        3.492834
   62        3.495147
   63        5.086189
   64        5.089371
   65        8.217817
   66        8.220438
   67        8.937619
   68        8.940183
   69        8.941155
   70        8.947409
   71        9.696020
   72        9.699631
   73       11.851314
   74       12.527351
   75       12.532082
   76       13.501102
   77       13.533137
   78       13.655706
   79       13.681392
   80       13.823275
   81       13.828981
   82       14.093993
   83       14.220614
   84       14.224093
 
 -0.8470329E-21  0.1111111E+00  0.0000000E+00  0.6172840E-02
    1      -13.645073
    2      -13.224449
    3      -13.223252
    4      -12.720480
    5       -9.116280
    6       -8.791768
    7       -8.790817
    8       -8.550360
    9       -8.547277
   10       -8.428623
   11       -8.259647
   12       -8.257192
   13       -8.256444
   14       -8.253766
   15       -7.970634
   16       -7.967828
   17       -6.847742
   18       -6.845204
   19       -6.649244
   20       -6.646604
   21       -6.645086
   22       -6.642345
   23       -6.378816
   24       -6.360650
   25       -6.357371
   26       -6.122542
   27       -6.121733
   28       -5.820680
   29       -3.065258
   30       -1.258101
   31       -1.254955
   32       -0.481990
   33       -0.480902
   34       -0.360572
   35       -0.360245
   36       -0.357370
   37       -0.357030
   38       -0.231847
   39       -0.230775
   40       -0.175382
   41       -0.062769
   42       -0.062345
   43        0.053376
   44        1.033875
   45        2.145858
   46        2.665906
   47        2.668460
   48        2.890214
   49        2.946715
   50        2.947344
   51        3.003865
   52        3.035039
   53        3.087489
   54        3.088204
   55        3.140950
   56        3.436190
   57        3.439731
   58        3.803718
   59        3.808119
   60        3.808603
   61        3.813043
   62        4.356164
   63        4.359918
   64        4.432160
   65        7.959504
   66        7.964121
   67        7.966179
   68        7.970022
   69        8.026602
   70        8.029944
   71        8.050454
   72        8.368845
   73        8.372444
   74        9.134243
   75        9.137776
   76        9.668180
   77       12.546430
   78       13.075990
   79       13.371042
   80       13.374483
   81       13.617069
   82       13.618467
   83       13.910506
   84       13.912825
 
  0.1111111E+00  0.1111111E+00  0.0000000E+00  0.6172840E-02
    1      -13.495889
    2      -13.078002
    3      -13.076812
    4      -12.578122
    5       -9.591508
    6       -9.588084
    7       -9.252758
    8       -9.249266
    9       -9.249230
   10       -9.245634
   11       -8.863069
   12       -8.859464
   13       -8.074425
   14       -7.848099
   15       -7.846336
   16       -7.734902
   17       -6.822921
   18       -6.805942
   19       -6.801943
   20       -6.592168
   21       -5.698790
   22       -5.695063
   23       -5.443978
   24       -5.439299
   25       -5.439244
   26       -5.436385
   27       -5.150315
   28       -5.146483
   29       -2.884834
   30       -1.182440
   31       -1.086681
   32       -1.083543
   33       -1.039144
   34       -1.036491
   35       -0.883433
   36       -0.336991
   37       -0.334047
   38       -0.216739
   39       -0.215145
   40       -0.215100
   41       -0.210591
   42       -0.089936
   43       -0.086761
   44        1.192510
   45        1.672499
   46        1.675018
   47        2.351111
   48        2.409512
   49        2.415399
   50        2.458729
   51        2.739193
   52        2.772877
   53        2.779014
   54        2.829336
   55        3.070426
   56        3.081303
   57        3.084171
   58        3.084248
   59        3.089349
   60        4.118859
   61        4.123618
   62        4.432514
   63        4.470866
   64        4.474065
   65        7.760592
   66        7.766599
   67        8.113307
   68        8.294449
   69        8.298156
   70        8.678150
   71        8.900250
   72        8.906129
   73        8.906620
   74        8.909137
   75       10.166351
   76       10.169197
   77       12.702564
   78       13.460360
   79       13.464835
   80       13.989660
   81       13.994060
   82       13.994217
   83       13.999567
   84       14.265068
 
  0.2222222E+00  0.1111111E+00  0.0000000E+00  0.6172840E-02
    1      -13.198294
    2      -12.785905
    3      -12.784728
    4      -12.294080
    5      -10.572625
    6      -10.210528
    7      -10.209472
    8       -9.937499
    9       -9.790173
   10       -9.588811
   11       -9.587783
   12       -9.187322
   13       -8.157085
   14       -7.874768
   15       -7.873582
   16       -7.596698
   17       -6.490784
   18       -6.303636
   19       -6.300460
   20       -6.034872
   21       -4.901873
   22       -4.660691
   23       -4.659864
   24       -4.392389
   25       -4.300230
   26       -4.065101
   27       -4.062982
   28       -3.803313
   29       -2.525444
   30       -2.107372
   31       -1.942725
   32       -1.940130
   33       -1.758076
   34       -0.878478
   35       -0.746059
   36       -0.743111
   37       -0.740204
   38       -0.739760
   39       -0.591680
   40       -0.045979
   41        0.070269
   42        0.073334
   43        0.194537
   44        0.582157
   45        1.312751
   46        1.373822
   47        1.462553
   48        1.468267
   49        1.506411
   50        1.549376
   51        2.142938
   52        2.146378
   53        2.173529
   54        2.231498
   55        2.237818
   56        2.307288
   57        2.799009
   58        2.802345
   59        3.179710
   60        3.972144
   61        4.319088
   62        4.323706
   63        4.449146
   64        4.856700
   65        7.766629
   66        7.772337
   67        7.891794
   68        8.599610
   69        8.729513
   70        9.440536
   71        9.467462
   72        9.470936
   73       10.255324
   74       10.259570
   75       10.549379
   76       11.425978
   77       13.017778
   78       13.638529
   79       14.157492
   80       14.159484
   81       14.442749
   82       14.641023
   83       14.653399
   84       14.692781
 
  0.3333333E+00  0.1111111E+00  0.0000000E+00  0.6172840E-02
    1      -12.753794
    2      -12.349614
    3      -12.348457
    4      -11.869807
    5      -11.435694
    6      -11.056355
    7      -11.055257
    8      -10.611999
    9      -10.148898
   10       -9.795474
   11       -9.794432
   12       -9.387202
   13       -8.316339
   14       -8.010524
   15       -8.009576
   16       -7.672126
   17       -5.750924
   18       -5.534592
   19       -5.531610
   20       -5.290507
   21       -4.077007
   22       -3.870816
   23       -3.869439
   24       -3.651479
   25       -3.039743
   26       -2.881646
   27       -2.878806
   28       -2.827522
   29       -2.685834
   30       -2.623195
   31       -2.620852
   32       -2.398289
   33       -1.990214
   34       -1.579128
   35       -1.442048
   36       -1.440664
   37       -1.279979
   38       -0.420948
   39       -0.244452
   40       -0.241585
   41        0.095515
   42        0.231490
   43        0.235998
   44        0.362922
   45        0.374736
   46        0.485135
   47        0.488325
   48        0.603961
   49        1.089165
   50        1.230221
   51        1.233524
   52        1.526829
   53        1.611359
   54        1.616694
   55        1.707810
   56        1.968092
   57        2.617993
   58        2.621312
   59        3.139858
   60        3.256689
   61        4.405832
   62        4.410140
   63        4.412641
   64        5.428533
   65        7.454614
   66        7.881520
   67        7.886627
   68        8.728291
   69        9.181472
   70        9.915195
   71        9.918967
   72       10.735817
   73       10.983858
   74       11.735371
   75       11.739564
   76       12.747204
   77       13.483329
   78       13.874736
   79       14.171936
   80       14.312516
   81       14.319002
   82       14.387767
   83       14.390278
   84       14.489775
 
  0.4444444E+00  0.1111111E+00  0.0000000E+00  0.6172840E-02
    1      -12.166568
    2      -12.163345
    3      -11.774547
    4      -11.771250
    5      -11.771133
    6      -11.767790
    7      -11.309426
    8      -11.306055
    9      -10.219869
   10       -9.864984
   11       -9.863937
   12       -9.454481
   13       -8.375503
   14       -8.064719
   15       -8.063797
   16       -7.716297
   17       -5.206002
   18       -5.048964
   19       -5.046223
   20       -4.918858
   21       -3.550919
   22       -3.476265
   23       -3.422618
   24       -3.419855
   25       -3.415315
   26       -3.411833
   27       -3.302674
   28       -3.281851
   29       -1.939860
   30       -1.881619
   31       -1.878096
   32       -1.757433
   33       -1.340859
   34       -1.337236
   35       -1.286524
   36       -1.283892
   37       -1.174143
   38       -1.168000
   39       -1.167860
   40       -1.167290
   41       -0.987858
   42       -0.984540
   43        0.424253
   44        0.427585
   45        0.427879
   46        0.432556
   47        0.906575
   48        0.911589
   49        1.007953
   50        1.010409
   51        1.010475
   52        1.011516
   53        1.022647
   54        1.117417
   55        1.123698
   56        2.555241
   57        2.558846
   58        2.561047
   59        2.564273
   60        3.113173
   61        4.388426
   62        4.430907
   63        4.434533
   64        5.738233
   65        7.206433
   66        7.946360
   67        7.950652
   68        8.784381
   69        9.391107
   70       10.090229
   71       10.094349
   72       10.768095
   73       12.617111
   74       12.621293
   75       13.176362
   76       13.182979
   77       13.184400
   78       13.186317
   79       13.989981
   80       13.992096
   81       14.058646
   82       14.062064
   83       14.314707
   84       14.317436
 
 -0.4444444E+00  0.1111111E+00  0.0000000E+00  0.6172840E-02
    1      -12.753874
    2      -12.349698
    3      -12.348542
    4      -11.869876
    5      -11.435557
    6      -11.056218
    7      -11.055120
    8      -10.611856
    9      -10.149272
   10       -9.795684
   11       -9.794642
   12       -9.387416
   13       -8.315994
   14       -8.010106
   15       -8.009205
   16       -7.671636
   17       -5.750455
   18       -5.533119
   19       -5.532021
   20       -5.289994
   21       -4.078000
   22       -3.872569
   23       -3.869512
   24       -3.652311
   25       -3.040679
   26       -2.881747
   27       -2.880759
   28       -2.827746
   29       -2.686897
   30       -2.623736
   31       -2.620994
   32       -2.398641
   33       -1.990315
   34       -1.577977
   35       -1.441826
   36       -1.438379
   37       -1.278684
   38       -0.420793
   39       -0.244545
   40       -0.241686
   41        0.095970
   42        0.232587
   43        0.235532
   44        0.363076
   45        0.375223
   46        0.485233
   47        0.488979
   48        0.604356
   49        1.088953
   50        1.230343
   51        1.233670
   52        1.526518
   53        1.611850
   54        1.615380
   55        1.707346
   56        1.967986
   57        2.617649
   58        2.621079
   59        3.140131
   60        3.256835
   61        4.405647
   62        4.410515
   63        4.413054
   64        5.430137
   65        7.453463
   66        7.882059
   67        7.885840
   68        8.728143
   69        9.181289
   70        9.914590
   71        9.919072
   72       10.735964
   73       10.983797
   74       11.735013
   75       11.739555
   76       12.746922
   77       13.483144
   78       13.874516
   79       14.171811
   80       14.312994
   81       14.318700
   82       14.387259
   83       14.390363
   84       14.489818
 
 -0.3333333E+00  0.1111111E+00  0.0000000E+00  0.6172840E-02
    1      -13.198354
    2      -12.785965
    3      -12.784788
    4      -12.294140
    5      -10.572459
    6      -10.210353
    7      -10.209298
    8       -9.937909
    9       -9.790009
   10       -9.589250
   11       -9.588226
   12       -9.187764
   13       -8.156313
   14       -7.873656
   15       -7.872845
   16       -7.595472
   17       -6.490832
   18       -6.302175
   19       -6.301472
   20       -6.034530
   21       -4.902788
   22       -4.662431
   23       -4.659901
   24       -4.393195
   25       -4.300592
   26       -4.065548
   27       -4.063198
   28       -3.803644
   29       -2.525518
   30       -2.108670
   31       -1.943023
   32       -1.942487
   33       -1.759415
   34       -0.876936
   35       -0.746124
   36       -0.743103
   37       -0.739921
   38       -0.736987
   39       -0.590090
   40       -0.045724
   41        0.070397
   42        0.073704
   43        0.194774
   44        0.582333
   45        1.312291
   46        1.374180
   47        1.464350
   48        1.466830
   49        1.506342
   50        1.549339
   51        2.143101
   52        2.146535
   53        2.173602
   54        2.232974
   55        2.235854
   56        2.306768
   57        2.798305
   58        2.801878
   59        3.180235
   60        3.972263
   61        4.320592
   62        4.324266
   63        4.448114
   64        4.858762
   65        7.767419
   66        7.771141
   67        7.890521
   68        8.599338
   69        8.729480
   70        9.440579
   71        9.466445
   72        9.471168
   73       10.254959
   74       10.259538
   75       10.549469
   76       11.425674
   77       13.017633
   78       13.638348
   79       14.157157
   80       14.159564
   81       14.446470
   82       14.642405
   83       14.653626
   84       14.690969
 
 -0.2222222E+00  0.1111111E+00  0.0000000E+00  0.6172840E-02
    1      -13.495926
    2      -13.078038
    3      -13.076848
    4      -12.578158
    5       -9.590399
    6       -9.589601
    7       -9.250523
    8       -9.249531
    9       -9.249388
   10       -9.248393
   11       -8.862003
   12       -8.861088
   13       -8.073038
   14       -7.845904
   15       -7.845337
   16       -7.733276
   17       -6.822980
   18       -6.804583
   19       -6.804207
   20       -6.592425
   21       -5.697711
   22       -5.697041
   23       -5.441703
   24       -5.440903
   25       -5.439495
   26       -5.438545
   27       -5.149230
   28       -5.148592
   29       -2.884878
   30       -1.183915
   31       -1.086727
   32       -1.083590
   33       -1.039550
   34       -1.039076
   35       -0.884945
   36       -0.334611
   37       -0.334554
   38       -0.215068
   39       -0.214854
   40       -0.212049
   41       -0.211849
   42       -0.087486
   43       -0.087449
   44        1.192460
   45        1.672816
   46        1.674223
   47        2.351234
   48        2.412062
   49        2.412363
   50        2.458104
   51        2.739879
   52        2.776012
   53        2.776295
   54        2.829069
   55        3.070829
   56        3.081053
   57        3.084153
   58        3.084317
   59        3.088429
   60        4.120662
   61        4.124399
   62        4.434680
   63        4.470142
   64        4.473292
   65        7.761452
   66        7.765238
   67        8.112382
   68        8.295113
   69        8.297815
   70        8.677729
   71        8.900925
   72        8.904624
   73        8.906018
   74        8.909676
   75       10.166630
   76       10.168694
   77       12.702469
   78       13.462910
   79       13.465895
   80       13.993654
   81       13.995677
   82       13.996529
   83       13.998682
   84       14.260874
 
 -0.1111111E+00  0.1111111E+00  0.0000000E+00  0.6172840E-02
    1      -13.645085
    2      -13.224461
    3      -13.223263
    4      -12.720492
    5       -9.117141
    6       -8.792679
    7       -8.791697
    8       -8.549211
    9       -8.547076
   10       -8.429619
   11       -8.258428
   12       -8.256443
   13       -8.256226
   14       -8.253105
   15       -7.970094
   16       -7.966745
   17       -6.847943
   18       -6.845283
   19       -6.648724
   20       -6.645429
   21       -6.645187
   22       -6.644261
   23       -6.379030
   24       -6.360186
   25       -6.358125
   26       -6.123829
   27       -6.121323
   28       -5.821122
   29       -3.065273
   30       -1.258116
   31       -1.254970
   32       -0.483545
   33       -0.480896
   34       -0.361615
   35       -0.360347
   36       -0.360295
   37       -0.356023
   38       -0.233506
   39       -0.230599
   40       -0.173793
   41       -0.062326
   42       -0.059478
   43        0.055052
   44        1.033859
   45        2.145047
   46        2.666799
   47        2.668537
   48        2.889515
   49        2.943826
   50        2.949660
   51        3.004190
   52        3.034677
   53        3.085221
   54        3.091031
   55        3.141655
   56        3.434797
   57        3.438929
   58        3.805680
   59        3.807800
   60        3.808452
   61        3.814270
   62        4.357551
   63        4.360595
   64        4.430217
   65        7.958726
   66        7.965772
   67        7.966388
   68        7.968708
   69        8.026347
   70        8.029493
   71        8.050905
   72        8.367835
   73        8.373345
   74        9.134385
   75        9.137073
   76        9.668349
   77       12.546397
   78       13.079785
   79       13.368676
   80       13.372930
   81       13.620511
   82       13.622487
   83       13.906979
   84       13.913969
 
 -0.3388132E-20  0.2222222E+00  0.0000000E+00  0.6172840E-02
    1      -13.421376
    2      -13.004916
    3      -13.003728
    4      -12.507060
    5      -10.146945
    6       -9.794017
    7       -9.792988
    8       -9.386511
    9       -8.916208
   10       -8.912997
   11       -8.597333
   12       -8.594480
   13       -8.593911
   14       -8.590895
   15       -8.239281
   16       -8.236112
   17       -6.206231
   18       -6.202938
   19       -5.958915
   20       -5.956045
   21       -5.954374
   22       -5.951395
   23       -5.664671
   24       -5.661020
   25       -5.049599
   26       -4.799256
   27       -4.798484
   28       -4.518844
   29       -2.794869
   30       -1.106899
   31       -1.105117
   32       -1.001357
   33       -0.998224
   34       -0.964898
   35       -0.964103
   36       -0.961348
   37       -0.960456
   38       -0.810571
   39       -0.808749
   40        0.040611
   41        0.151381
   42        0.151771
   43        0.265924
   44        1.058284
   45        1.271407
   46        2.038479
   47        2.125922
   48        2.126296
   49        2.215184
   50        2.399581
   51        2.402738
   52        2.557370
   53        2.560710
   54        2.601073
   55        2.671598
   56        2.671997
   57        2.743493
   58        3.683848
   59        3.688436
   60        3.688866
   61        3.693467
   62        4.215638
   63        4.685084
   64        4.688666
   65        7.991930
   66        7.995417
   67        8.289124
   68        8.293786
   69        8.295573
   70        8.300197
   71        8.804557
   72        9.400167
   73        9.404531
   74        9.575738
   75        9.579209
   76       10.860883
   77       12.779624
   78       13.211087
   79       13.742436
   80       13.743893
   81       14.278791
   82       14.308851
   83       14.315064
   84       14.496844
 
  0.1111111E+00  0.2222222E+00  0.0000000E+00  0.6172840E-02
    1      -13.198288
    2      -12.785899
    3      -12.784721
    4      -12.294073
    5      -10.572579
    6      -10.210486
    7      -10.209431
    8       -9.937536
    9       -9.790139
   10       -9.588836
   11       -9.587813
   12       -9.187331
   13       -8.157073
   14       -7.874740
   15       -7.873577
   16       -7.596683
   17       -6.490833
   18       -6.303637
   19       -6.300660
   20       -6.035024
   21       -4.903034
   22       -4.662483
   23       -4.660387
   24       -4.393572
   25       -4.299080
   26       -4.063284
   27       -4.062494
   28       -3.802137
   29       -2.525458
   30       -2.107252
   31       -1.942541
   32       -1.940128
   33       -1.758003
   34       -0.876973
   35       -0.746065
   36       -0.742988
   37       -0.739919
   38       -0.737162
   39       -0.590135
   40       -0.047532
   41        0.069993
   42        0.070418
   43        0.192890
   44        0.581807
   45        1.313207
   46        1.375400
   47        1.465014
   48        1.468271
   49        1.506388