mesh: [     9,     9,     4 ]
nqpoint: 50     
reciprocal_lattice:
- [   0.40533564,   0.23404500,   0.00000000 ] # a*
- [   0.00002110,   0.46805346,   0.00000000 ] # b*
- [   0.00000000,   0.00000000,   0.21240353 ] # c*
natom:   4      
lattice:
- [     2.467155442383188,    -0.000111200019553,     0.000000000000000 ] # a
- [    -1.233674023183305,     2.136563688137034,     0.000000000000000 ] # b
- [     0.000000000000000,     0.000000000000000,     4.708019619000000 ] # c
points:
- symbol: C  # 1
  coordinates: [  0.999999697166835,  0.000000349172772,  0.250000000000000 ]
  mass: 12.010700
- symbol: C  # 2
  coordinates: [  0.000000349172772,  0.999999697166835,  0.750000000000000 ]
  mass: 12.010700
- symbol: C  # 3
  coordinates: [  0.333298929956719,  0.666701052703672,  0.250000000000000 ]
  mass: 12.010700
- symbol: C  # 4
  coordinates: [  0.666701052703672,  0.333298929956719,  0.750000000000000 ]
  mass: 12.010700
phonon:
- q-position: [    0.0000000,    0.0000000,    0.1250000 ]
  weight: 2    
  band:
  - # 1
    frequency:   -33.4787808723
  - # 2
    frequency:   -33.4779874058
  - # 3
    frequency:   -28.4236621487
  - # 4
    frequency:   -28.4233345307
  - # 5
    frequency:     1.5242769114
  - # 6
    frequency:     1.5245344333
  - # 7
    frequency:     1.9125520477
  - # 8
    frequency:     1.9137757232
  - # 9
    frequency:     3.5348059186
  - # 10
    frequency:    15.1201805709
  - # 11
    frequency:    18.1837081166
  - # 12
    frequency:    19.1322243180

- q-position: [    0.1111111,    0.0000000,    0.1250000 ]
  weight: 8    
  band:
  - # 1
    frequency:   -32.0968635575
  - # 2
    frequency:   -31.6991553705
  - # 3
    frequency:   -27.3877940422
  - # 4
    frequency:   -26.9539677432
  - # 5
    frequency:    -2.4372327419
  - # 6
    frequency:     2.9359037323
  - # 7
    frequency:     5.7460142771
  - # 8
    frequency:     6.3569980485
  - # 9
    frequency:     6.8869471098
  - # 10
    frequency:    15.1854767249
  - # 11
    frequency:    18.0730597699
  - # 12
    frequency:    18.8943991272

- q-position: [    0.2222222,    0.0000000,    0.1250000 ]
  weight: 8    
  band:
  - # 1
    frequency:   -28.2997075313
  - # 2
    frequency:   -26.6484745239
  - # 3
    frequency:   -24.5689790443
  - # 4
    frequency:   -22.9098100516
  - # 5
    frequency:    -4.3119462088
  - # 6
    frequency:     4.6656967976
  - # 7
    frequency:    10.5585656238
  - # 8
    frequency:    11.0017292284
  - # 9
    frequency:    11.9361822950
  - # 10
    frequency:    15.3202041436
  - # 11
    frequency:    17.7922834625
  - # 12
    frequency:    18.2880129747

- q-position: [    0.3333333,    0.0000000,    0.1250000 ]
  weight: 8    
  band:
  - # 1
    frequency:   -23.2277204291
  - # 2
    frequency:   -20.9252227194
  - # 3
    frequency:   -19.3975462690
  - # 4
    frequency:   -17.4716140700
  - # 5
    frequency:    -5.7263677801
  - # 6
    frequency:     6.8340756681
  - # 7
    frequency:    13.9543010600
  - # 8
    frequency:    15.0539134924
  - # 9
    frequency:    15.4044849360
  - # 10
    frequency:    15.6805100865
  - # 11
    frequency:    17.3510280699
  - # 12
    frequency:    17.6837458971

- q-position: [    0.4444444,    0.0000000,    0.1250000 ]
  weight: 8    
  band:
  - # 1
    frequency:   -19.0776473677
  - # 2
    frequency:   -18.2811502575
  - # 3
    frequency:   -14.0497238035
  - # 4
    frequency:   -12.4550679066
  - # 5
    frequency:    -2.7070793317
  - # 6
    frequency:     7.6792073196
  - # 7
    frequency:    15.4171381485
  - # 8
    frequency:    16.0308030430
  - # 9
    frequency:    16.8276799809
  - # 10
    frequency:    17.2823284324
  - # 11
    frequency:    17.3109005668
  - # 12
    frequency:    17.6437981172

- q-position: [    0.1111111,    0.1111111,    0.1250000 ]
  weight: 4    
  band:
  - # 1
    frequency:   -29.1889402054
  - # 2
    frequency:   -28.3385346378
  - # 3
    frequency:   -25.2524139677
  - # 4
    frequency:   -24.2815858510
  - # 5
    frequency:     5.9904862751
  - # 6
    frequency:     6.4865453842
  - # 7
    frequency:     7.3934733816
  - # 8
    frequency:     7.5766574383
  - # 9
    frequency:     9.8941140008
  - # 10
    frequency:    15.2230398549
  - # 11
    frequency:    18.0037440642
  - # 12
    frequency:    18.1845487205

- q-position: [    0.2222222,    0.1111111,    0.1250000 ]
  weight: 8    
  band:
  - # 1
    frequency:   -24.6907040674
  - # 2
    frequency:   -22.4306656937
  - # 3
    frequency:   -21.8782351776
  - # 4
    frequency:   -19.7456146581
  - # 5
    frequency:     6.0516322249
  - # 6
    frequency:     9.1257357975
  - # 7
    frequency:    11.9978841859
  - # 8
    frequency:    12.3709996284
  - # 9
    frequency:    13.3246175109
  - # 10
    frequency:    15.2971607429
  - # 11
    frequency:    17.3274774848
  - # 12
    frequency:    17.8423630565

- q-position: [    0.3333333,    0.1111111,    0.1250000 ]
  weight: 8    
  band:
  - # 1
    frequency:   -20.2980780883
  - # 2
    frequency:   -18.5819574443
  - # 3
    frequency:   -16.3894628455
  - # 4
    frequency:   -14.3135052895
  - # 5
    frequency:     5.9017845280
  - # 6
    frequency:    10.6687853800
  - # 7
    frequency:    15.3616072677
  - # 8
    frequency:    15.6304740605
  - # 9
    frequency:    15.7046968371
  - # 10
    frequency:    16.2662413906
  - # 11
    frequency:    16.6936338353
  - # 12
    frequency:    17.5980466958

- q-position: [   -0.5555556,    0.1111111,    0.1250000 ]
  weight: 8    
  band:
  - # 1
    frequency:   -18.2042412790
  - # 2
    frequency:   -17.3715563454
  - # 3
    frequency:   -13.2627415747
  - # 4
    frequency:   -10.0607728085
  - # 5
    frequency:     5.3205317385
  - # 6
    frequency:     8.3621063120
  - # 7
    frequency:    15.4718125114
  - # 8
    frequency:    16.2453558751
  - # 9
    frequency:    16.8590652943
  - # 10
    frequency:    17.2699611546
  - # 11
    frequency:    17.3236421242
  - # 12
    frequency:    18.2070400280

- q-position: [   -0.4444444,    0.1111111,    0.1250000 ]
  weight: 8    
  band:
  - # 1
    frequency:   -20.4551805580
  - # 2
    frequency:   -19.1963983232
  - # 3
    frequency:   -13.5240566500
  - # 4
    frequency:   -13.0564828348
  - # 5
    frequency:    -7.8957657308
  - # 6
    frequency:     4.9593789356
  - # 7
    frequency:    14.9296230519
  - # 8
    frequency:    15.5786611359
  - # 9
    frequency:    16.8099297540
  - # 10
    frequency:    17.2338283607
  - # 11
    frequency:    17.5334036899
  - # 12
    frequency:    17.9771025695

- q-position: [   -0.3333333,    0.1111111,    0.1250000 ]
  weight: 8    
  band:
  - # 1
    frequency:   -25.4103694995
  - # 2
    frequency:   -22.4616633805
  - # 3
    frequency:   -22.0185722715
  - # 4
    frequency:   -19.1166524093
  - # 5
    frequency:    -6.5033082691
  - # 6
    frequency:     5.1154668765
  - # 7
    frequency:    12.1917835078
  - # 8
    frequency:    14.3223231935
  - # 9
    frequency:    15.5712476160
  - # 10
    frequency:    15.7240212020
  - # 11
    frequency:    17.4538724808
  - # 12
    frequency:    18.2804279847

- q-position: [   -0.2222222,    0.1111111,    0.1250000 ]
  weight: 8    
  band:
  - # 1
    frequency:   -29.7977868741
  - # 2
    frequency:   -28.6751258312
  - # 3
    frequency:   -25.5579986765
  - # 4
    frequency:   -24.3786069119
  - # 5
    frequency:    -3.6915446624
  - # 6
    frequency:     5.9822092306
  - # 7
    frequency:     8.5685423993
  - # 8
    frequency:    10.2437826026
  - # 9
    frequency:    11.7591245030
  - # 10
    frequency:    15.4215660453
  - # 11
    frequency:    17.7344085584
  - # 12
    frequency:    18.9387159966

- q-position: [   -0.1111111,    0.1111111,    0.1250000 ]
  weight: 4    
  band:
  - # 1
    frequency:   -32.1098073852
  - # 2
    frequency:   -32.1015776823
  - # 3
    frequency:   -27.3106777776
  - # 4
    frequency:   -27.2456743874
  - # 5
    frequency:    -1.5433516872
  - # 6
    frequency:     5.5475145141
  - # 7
    frequency:     5.8522860579
  - # 8
    frequency:     6.6054928518
  - # 9
    frequency:     6.7659751422
  - # 10
    frequency:    15.2526575172
  - # 11
    frequency:    17.9792978425
  - # 12
    frequency:    19.1808441092

- q-position: [    0.2222222,    0.2222222,    0.1250000 ]
  weight: 4    
  band:
  - # 1
    frequency:   -20.7322544638
  - # 2
    frequency:   -18.9949873797
  - # 3
    frequency:   -16.5710316311
  - # 4
    frequency:   -15.6148984829
  - # 5
    frequency:     9.9967494248
  - # 6
    frequency:    11.8917890517
  - # 7
    frequency:    14.4258750956
  - # 8
    frequency:    14.6383020512
  - # 9
    frequency:    15.3638724695
  - # 10
    frequency:    15.5091041621
  - # 11
    frequency:    16.6461315114
  - # 12
    frequency:    17.7223966106

- q-position: [    0.3333333,    0.2222222,    0.1250000 ]
  weight: 8    
  band:
  - # 1
    frequency:   -17.9298392158
  - # 2
    frequency:   -16.7415228252
  - # 3
    frequency:   -12.6624172637
  - # 4
    frequency:   -10.4814065528
  - # 5
    frequency:     9.5882997690
  - # 6
    frequency:    12.5717870000
  - # 7
    frequency:    15.5011482664
  - # 8
    frequency:    16.2082942965
  - # 9
    frequency:    16.5465546179
  - # 10
    frequency:    16.8137279571
  - # 11
    frequency:    17.4155906214
  - # 12
    frequency:    17.4943212175

- q-position: [   -0.5555556,    0.2222222,    0.1250000 ]
  weight: 8    
  band:
  - # 1
    frequency:   -17.6641526398
  - # 2
    frequency:   -16.8617508853
  - # 3
    frequency:   -11.1060038849
  - # 4
    frequency:    -5.4096742156
  - # 5
    frequency:     3.9895544754
  - # 6
    frequency:     7.3535549296
  - # 7
    frequency:    15.7071427842
  - # 8
    frequency:    15.8961993270
  - # 9
    frequency:    16.9976491701
  - # 10
    frequency:    17.1870816045
  - # 11
    frequency:    17.4073996707
  - # 12
    frequency:    18.4138034958

- q-position: [   -0.4444444,    0.2222222,    0.1250000 ]
  weight: 8    
  band:
  - # 1
    frequency:   -21.0361412506
  - # 2
    frequency:   -19.2736346915
  - # 3
    frequency:   -14.8026112274
  - # 4
    frequency:   -13.3328449974
  - # 5
    frequency:    -6.3109176878
  - # 6
    frequency:     5.6651461506
  - # 7
    frequency:    14.0690925782
  - # 8
    frequency:    15.8876114390
  - # 9
    frequency:    16.2375909209
  - # 10
    frequency:    17.1018575202
  - # 11
    frequency:    17.6208068238
  - # 12
    frequency:    18.0001388498

- q-position: [   -0.3333333,    0.2222222,    0.1250000 ]
  weight: 8    
  band:
  - # 1
    frequency:   -25.3535388620
  - # 2
    frequency:   -23.3214663250
  - # 3
    frequency:   -21.8828636299
  - # 4
    frequency:   -19.7770404996
  - # 5
    frequency:    -1.3846758465
  - # 6
    frequency:     8.6896414456
  - # 7
    frequency:    11.3975727111
  - # 8
    frequency:    13.7436215778
  - # 9
    frequency:    15.1541079582
  - # 10
    frequency:    15.8175485666
  - # 11
    frequency:    17.2924660738
  - # 12
    frequency:    18.7372787162

- q-position: [   -0.2222222,    0.2222222,    0.1250000 ]
  weight: 4    
  band:
  - # 1
    frequency:   -28.2621326667
  - # 2
    frequency:   -28.1110963909
  - # 3
    frequency:   -24.0984867938
  - # 4
    frequency:   -23.9128329586
  - # 5
    frequency:     4.0423248704
  - # 6
    frequency:     8.9599842044
  - # 7
    frequency:    10.1068887302
  - # 8
    frequency:    10.5928766247
  - # 9
    frequency:    11.7540382851
  - # 10
    frequency:    15.6047823215
  - # 11
    frequency:    17.5491365511
  - # 12
    frequency:    19.1120165148

- q-position: [   -0.6666667,    0.3333333,    0.1250000 ]
  weight: 4    
  band:
  - # 1
    frequency:   -16.5045440192
  - # 2
    frequency:   -15.6406818861
  - # 3
    frequency:    -9.5596799841
  - # 4
    frequency:    -8.0331347618
  - # 5
    frequency:     9.3401829448
  - # 6
    frequency:    12.4631926671
  - # 7
    frequency:    15.7860957249
  - # 8
    frequency:    16.3342577727
  - # 9
    frequency:    16.9080914818
  - # 10
    frequency:    17.1844622258
  - # 11
    frequency:    17.2649836826
  - # 12
    frequency:    17.2862256903

- q-position: [   -0.5555556,    0.3333333,    0.1250000 ]
  weight: 8    
  band:
  - # 1
    frequency:   -17.1051246358
  - # 2
    frequency:   -15.9068635623
  - # 3
    frequency:    -9.7483147227
  - # 4
    frequency:    -7.6165049116
  - # 5
    frequency:     3.4538049984
  - # 6
    frequency:     8.3625953192
  - # 7
    frequency:    15.5970350152
  - # 8
    frequency:    16.1411881730
  - # 9
    frequency:    16.5666972195
  - # 10
    frequency:    16.8896687025
  - # 11
    frequency:    17.2522215600
  - # 12
    frequency:    17.3909709285

- q-position: [   -0.4444444,    0.3333333,    0.1250000 ]
  weight: 8    
  band:
  - # 1
    frequency:   -19.9678219010
  - # 2
    frequency:   -17.8960939722
  - # 3
    frequency:   -15.5228681818
  - # 4
    frequency:   -14.0335980184
  - # 5
    frequency:    -3.0398980594
  - # 6
    frequency:     8.8355877243
  - # 7
    frequency:    13.8774790975
  - # 8
    frequency:    15.5609828810
  - # 9
    frequency:    16.2672360630
  - # 10
    frequency:    16.5271267967
  - # 11
    frequency:    16.8417470014
  - # 12
    frequency:    18.1543911869

- q-position: [   -0.3333333,    0.3333333,    0.1250000 ]
  weight: 4    
  band:
  - # 1
    frequency:   -22.8716121675
  - # 2
    frequency:   -21.9116707876
  - # 3
    frequency:   -19.1433566912
  - # 4
    frequency:   -19.1080584616
  - # 5
    frequency:     4.4213943256
  - # 6
    frequency:    10.9336506515
  - # 7
    frequency:    12.1623625433
  - # 8
    frequency:    13.9350586061
  - # 9
    frequency:    15.1003661226
  - # 10
    frequency:    16.0767110728
  - # 11
    frequency:    17.0595082728
  - # 12
    frequency:    18.6902266130

- q-position: [   -0.5555556,    0.4444444,    0.1250000 ]
  weight: 4    
  band:
  - # 1
    frequency:   -17.1699907393
  - # 2
    frequency:   -14.6011089100
  - # 3
    frequency:   -10.4242302638
  - # 4
    frequency:    -9.7587105804
  - # 5
    frequency:    -6.5495224125
  - # 6
    frequency:     6.8172759940
  - # 7
    frequency:    15.1619671851
  - # 8
    frequency:    16.2319543750
  - # 9
    frequency:    16.2415481160
  - # 10
    frequency:    16.3429216424
  - # 11
    frequency:    16.7592280215
  - # 12
    frequency:    17.5625579849

- q-position: [   -0.4444444,    0.4444444,    0.1250000 ]
  weight: 4    
  band:
  - # 1
    frequency:   -18.3081018781
  - # 2
    frequency:   -14.6253010122
  - # 3
    frequency:   -14.3724195612
  - # 4
    frequency:   -12.9630410500
  - # 5
    frequency:    -5.8959937939
  - # 6
    frequency:     7.6696075429
  - # 7
    frequency:    14.3940925945
  - # 8
    frequency:    15.7016387513
  - # 9
    frequency:    16.2330215491
  - # 10
    frequency:    16.5017918065
  - # 11
    frequency:    16.6203859267
  - # 12
    frequency:    17.9500666034

- q-position: [    0.0000000,    0.0000000,    0.3750000 ]
  weight: 2    
  band:
  - # 1
    frequency:   -33.1446787658
  - # 2
    frequency:   -33.1438696541
  - # 3
    frequency:   -31.1270393380
  - # 4
    frequency:   -31.1264080822
  - # 5
    frequency:     2.8719145908
  - # 6
    frequency:     2.8727430454
  - # 7
    frequency:     2.9565138582
  - # 8
    frequency:     2.9575839068
  - # 9
    frequency:     9.7169390249
  - # 10
    frequency:    13.6795411789
  - # 11
    frequency:    18.6549646102
  - # 12
    frequency:    19.1274078342

- q-position: [    0.1111111,    0.0000000,    0.3750000 ]
  weight: 8    
  band:
  - # 1
    frequency:   -31.7670888668
  - # 2
    frequency:   -31.3928651651
  - # 3
    frequency:   -29.8808627716
  - # 4
    frequency:   -29.4934092183
  - # 5
    frequency:     1.7902558192
  - # 6
    frequency:     3.0340207022
  - # 7
    frequency:     6.4335829325
  - # 8
    frequency:     6.8775910753
  - # 9
    frequency:    10.6376199694
  - # 10
    frequency:    13.9670491093
  - # 11
    frequency:    18.4449443195
  - # 12
    frequency:    18.8610923912

- q-position: [    0.2222222,    0.0000000,    0.3750000 ]
  weight: 8    
  band:
  - # 1
    frequency:   -27.9733957410
  - # 2
    frequency:   -26.5290476882
  - # 3
    frequency:   -26.3774491959
  - # 4
    frequency:   -24.9296631161
  - # 5
    frequency:    -2.3572925989
  - # 6
    frequency:     3.2914722497
  - # 7
    frequency:    11.3645114246
  - # 8
    frequency:    11.7572181186
  - # 9
    frequency:    12.6875984364
  - # 10
    frequency:    14.6409398691
  - # 11
    frequency:    17.9192046731
  - # 12
    frequency:    18.1733436807

- q-position: [    0.3333333,    0.0000000,    0.3750000 ]
  weight: 8    
  band:
  - # 1
    frequency:   -22.8906583528
  - # 2
    frequency:   -21.9544690154
  - # 3
    frequency:   -19.3861981945
  - # 4
    frequency:   -18.6015750381
  - # 5
    frequency:    -3.6644847285
  - # 6
    frequency:     4.3811278407
  - # 7
    frequency:    14.6506784391
  - # 8
    frequency:    15.1429525668
  - # 9
    frequency:    15.3132187056
  - # 10
    frequency:    15.5297773785
  - # 11
    frequency:    17.2986760745
  - # 12
    frequency:    17.4451309729

- q-position: [    0.4444444,    0.0000000,    0.3750000 ]
  weight: 8    
  band:
  - # 1
    frequency:   -18.7789089654
  - # 2
    frequency:   -18.4530007639
  - # 3
    frequency:   -13.7462258401
  - # 4
    frequency:   -13.0570708834
  - # 5
    frequency:     1.3534924748
  - # 6
    frequency:     5.5444668942
  - # 7
    frequency:    15.4858555166
  - # 8
    frequency:    15.8444656457
  - # 9
    frequency:    16.8334815324
  - # 10
    frequency:    17.1311973862
  - # 11
    frequency:    17.3202534447
  - # 12
    frequency:    17.4778506248

- q-position: [    0.1111111,    0.1111111,    0.3750000 ]
  weight: 4    
  band:
  - # 1
    frequency:   -28.9258546630
  - # 2
    frequency:   -28.0184465478
  - # 3
    frequency:   -27.3298049546
  - # 4
    frequency:   -26.3634226976
  - # 5
    frequency:     6.2259321824
  - # 6
    frequency:     6.4384249799
  - # 7
    frequency:     7.4356732143
  - # 8
    frequency:     7.5586778387
  - # 9
    frequency:    12.3395023601
  - # 10
    frequency:    14.5274808151
  - # 11
    frequency:    18.0305108547
  - # 12
    frequency:    18.1981376281

- q-position: [    0.2222222,    0.1111111,    0.3750000 ]
  weight: 8    
  band:
  - # 1
    frequency:   -24.3930188181
  - # 2
    frequency:   -23.2629401895
  - # 3
    frequency:   -22.1348777742
  - # 4
    frequency:   -21.0395329008
  - # 5
    frequency:     6.7998079211
  - # 6
    frequency:     8.0824393563
  - # 7
    frequency:    11.9417574018
  - # 8
    frequency:    12.0910404571
  - # 9
    frequency:    14.3543412270
  - # 10
    frequency:    15.1719061942
  - # 11
    frequency:    17.3293549189
  - # 12
    frequency:    17.5227483527

- q-position: [    0.3333333,    0.1111111,    0.3750000 ]
  weight: 8    
  band:
  - # 1
    frequency:   -19.8541165918
  - # 2
    frequency:   -19.1527817583
  - # 3
    frequency:   -15.9765405412
  - # 4
    frequency:   -15.1480265882
  - # 5
    frequency:     7.1965075506
  - # 6
    frequency:     9.2318331064
  - # 7
    frequency:    15.4109261239
  - # 8
    frequency:    15.5704111541
  - # 9
    frequency:    15.8632056656
  - # 10
    frequency:    15.9682999100
  - # 11
    frequency:    16.6998136609
  - # 12
    frequency:    17.2359069500

- q-position: [   -0.5555556,    0.1111111,    0.3750000 ]
  weight: 8    
  band:
  - # 1
    frequency:   -17.8310907155
  - # 2
    frequency:   -17.4816709118
  - # 3
    frequency:   -12.3439505594
  - # 4
    frequency:   -11.0323687498
  - # 5
    frequency:     5.5875150807
  - # 6
    frequency:     6.9660730559
  - # 7
    frequency:    15.5015884810
  - # 8
    frequency:    15.9024420069
  - # 9
    frequency:    16.8869506068
  - # 10
    frequency:    17.1284180973
  - # 11
    frequency:    17.4997147181
  - # 12
    frequency:    17.8806289056

- q-position: [   -0.4444444,    0.1111111,    0.3750000 ]
  weight: 8    
  band:
  - # 1
    frequency:   -20.1915293476
  - # 2
    frequency:   -19.6784553968
  - # 3
    frequency:   -13.8231154192
  - # 4
    frequency:   -13.6623443566
  - # 5
    frequency:    -6.4323280012
  - # 6
    frequency:    -1.9189688954
  - # 7
    frequency:    15.1694731995
  - # 8
    frequency:    15.3935764321
  - # 9
    frequency:    17.1708384795
  - # 10
    frequency:    17.1991241383
  - # 11
    frequency:    17.3445662331
  - # 12
    frequency:    17.6908986813

- q-position: [   -0.3333333,    0.1111111,    0.3750000 ]
  weight: 8    
  band:
  - # 1
    frequency:   -25.0703701769
  - # 2
    frequency:   -23.8619429656
  - # 3
    frequency:   -22.0261535455
  - # 4
    frequency:   -20.8451612863
  - # 5
    frequency:    -4.4252235293
  - # 6
    frequency:     3.0010088847
  - # 7
    frequency:    13.5233556668
  - # 8
    frequency:    14.7659031920
  - # 9
    frequency:    15.0429334982
  - # 10
    frequency:    15.4754525621
  - # 11
    frequency:    17.6560772544
  - # 12
    frequency:    18.0236560715

- q-position: [   -0.2222222,    0.1111111,    0.3750000 ]
  weight: 8    
  band:
  - # 1
    frequency:   -29.4482935601
  - # 2
    frequency:   -28.4341091184
  - # 3
    frequency:   -27.7473533159
  - # 4
    frequency:   -26.7179677032
  - # 5
    frequency:     2.6690207966
  - # 6
    frequency:     5.2823930986
  - # 7
    frequency:    10.9276566754
  - # 8
    frequency:    11.4113406644
  - # 9
    frequency:    11.7246306136
  - # 10
    frequency:    14.2908349164
  - # 11
    frequency:    18.1932911287
  - # 12
    frequency:    18.7248592694

- q-position: [   -0.1111111,    0.1111111,    0.3750000 ]
  weight: 4    
  band:
  - # 1
    frequency:   -31.7990815147
  - # 2
    frequency:   -31.7613355564
  - # 3
    frequency:   -29.8862395230
  - # 4
    frequency:   -29.8181879633
  - # 5
    frequency:     4.1705690907
  - # 6
    frequency:     6.1086680736
  - # 7
    frequency:     6.6030923239
  - # 8
    frequency:     6.8871734052
  - # 9
    frequency:    10.3085436725
  - # 10
    frequency:    13.8655831585
  - # 11
    frequency:    18.5125030688
  - # 12
    frequency:    19.0577294884

- q-position: [    0.2222222,    0.2222222,    0.3750000 ]
  weight: 4    
  band:
  - # 1
    frequency:   -20.2674663848
  - # 2
    frequency:   -19.5159322922
  - # 3
    frequency:   -16.5449957261
  - # 4
    frequency:   -16.1183879474
  - # 5
    frequency:    10.6451312899
  - # 6
    frequency:    11.5670641852
  - # 7
    frequency:    13.9296332931
  - # 8
    frequency:    13.9438956950
  - # 9
    frequency:    15.5087325134
  - # 10
    frequency:    15.7625642137
  - # 11
    frequency:    16.6446815008
  - # 12
    frequency:    17.2819510745

- q-position: [    0.3333333,    0.2222222,    0.3750000 ]
  weight: 8    
  band:
  - # 1
    frequency:   -17.3196371848
  - # 2
    frequency:   -16.8134886009
  - # 3
    frequency:   -12.1192619895
  - # 4
    frequency:   -11.2047427942
  - # 5
    frequency:    10.4695304128
  - # 6
    frequency:    11.7705754208
  - # 7
    frequency:    15.4725766969
  - # 8
    frequency:    15.8704545437
  - # 9
    frequency:    16.5807243807
  - # 10
    frequency:    16.8473769590
  - # 11
    frequency:    16.9510908273
  - # 12
    frequency:    17.2425567767

- q-position: [   -0.5555556,    0.2222222,    0.3750000 ]
  weight: 8    
  band:
  - # 1
    frequency:   -17.3031753890
  - # 2
    frequency:   -16.9719659617
  - # 3
    frequency:    -9.5874722043
  - # 4
    frequency:    -7.2723042527
  - # 5
    frequency:     4.3770685975
  - # 6
    frequency:     5.9282721672
  - # 7
    frequency:    15.5400691400
  - # 8
    frequency:    15.6531729890
  - # 9
    frequency:    17.0525642861
  - # 10
    frequency:    17.2134162225
  - # 11
    frequency:    17.5151328126
  - # 12
    frequency:    18.0356522796

- q-position: [   -0.4444444,    0.2222222,    0.3750000 ]
  weight: 8    
  band:
  - # 1
    frequency:   -20.7248359204
  - # 2
    frequency:   -20.0080653146
  - # 3
    frequency:   -14.9793470195
  - # 4
    frequency:   -14.3437365910
  - # 5
    frequency:    -4.4102992380
  - # 6
    frequency:     3.5423371512
  - # 7
    frequency:    14.6151187348
  - # 8
    frequency:    15.3510060048
  - # 9
    frequency:    16.7373721891
  - # 10
    frequency:    17.2356368649
  - # 11
    frequency:    17.3903079729
  - # 12
    frequency:    17.6923679967

- q-position: [   -0.3333333,    0.2222222,    0.3750000 ]
  weight: 8    
  band:
  - # 1
    frequency:   -24.9905830049
  - # 2
    frequency:   -23.7154373632
  - # 3
    frequency:   -22.9668696145
  - # 4
    frequency:   -21.6555125516
  - # 5
    frequency:     5.1217824729
  - # 6
    frequency:     7.6788163119
  - # 7
    frequency:    13.0362223602
  - # 8
    frequency:    14.3132502538
  - # 9
    frequency:    14.8835280885
  - # 10
    frequency:    14.9667160436
  - # 11
    frequency:    17.7619311374
  - # 12
    frequency:    18.3700877407

- q-position: [   -0.2222222,    0.2222222,    0.3750000 ]
  weight: 4    
  band:
  - # 1
    frequency:   -27.9008747907
  - # 2
    frequency:   -27.8487734039
  - # 3
    frequency:   -26.2952362884
  - # 4
    frequency:   -26.1061118694
  - # 5
    frequency:     6.8263861292
  - # 6
    frequency:     9.0385476919
  - # 7
    frequency:    11.3160551771
  - # 8
    frequency:    11.7788187146
  - # 9
    frequency:    11.7857307850
  - # 10
    frequency:    14.3809232900
  - # 11
    frequency:    18.1329260813
  - # 12
    frequency:    18.7919469416

- q-position: [   -0.6666667,    0.3333333,    0.3750000 ]
  weight: 4    
  band:
  - # 1
    frequency:   -15.8790248803
  - # 2
    frequency:   -15.5224774525
  - # 3
    frequency:    -9.0043006616
  - # 4
    frequency:    -8.3249221085
  - # 5
    frequency:    10.2304726682
  - # 6
    frequency:    11.5600609645
  - # 7
    frequency:    15.5883096383
  - # 8
    frequency:    15.8513508167
  - # 9
    frequency:    16.9809396610
  - # 10
    frequency:    17.0245744780
  - # 11
    frequency:    17.0820631873
  - # 12
    frequency:    17.1846936323

- q-position: [   -0.5555556,    0.3333333,    0.3750000 ]
  weight: 8    
  band:
  - # 1
    frequency:   -16.5480315263
  - # 2
    frequency:   -16.0680580242
  - # 3
    frequency:    -8.8264357373
  - # 4
    frequency:    -7.9588340136
  - # 5
    frequency:     4.1035186413
  - # 6
    frequency:     6.4074394533
  - # 7
    frequency:    15.5339590887
  - # 8
    frequency:    15.7442711056
  - # 9
    frequency:    16.6970654444
  - # 10
    frequency:    16.9910880434
  - # 11
    frequency:    17.0233176027
  - # 12
    frequency:    17.2219161707

- q-position: [   -0.4444444,    0.3333333,    0.3750000 ]
  weight: 8    
  band:
  - # 1
    frequency:   -19.4105675474
  - # 2
    frequency:   -18.5442261588
  - # 3
    frequency:   -15.7797062688
  - # 4
    frequency:   -15.0928707363
  - # 5
    frequency:     3.7518104449
  - # 6
    frequency:     7.1441488181
  - # 7
    frequency:    14.5379006831
  - # 8
    frequency:    15.4925226924
  - # 9
    frequency:    15.9632508660
  - # 10
    frequency:    16.3456849284
  - # 11
    frequency:    17.2266421933
  - # 12
    frequency:    17.7744610097

- q-position: [   -0.3333333,    0.3333333,    0.3750000 ]
  weight: 4    
  band:
  - # 1
    frequency:   -22.2527873359
  - # 2
    frequency:   -21.8368165849
  - # 3
    frequency:   -20.7345739765
  - # 4
    frequency:   -20.7127758496
  - # 5
    frequency:     7.1031721532
  - # 6
    frequency:     9.5895241497
  - # 7
    frequency:    13.5195223344
  - # 8
    frequency:    14.5251276324
  - # 9
    frequency:    14.9997578192
  - # 10
    frequency:    15.1010490174
  - # 11
    frequency:    17.5859878670
  - # 12
    frequency:    18.2638062062

- q-position: [   -0.5555556,    0.4444444,    0.3750000 ]
  weight: 4    
  band:
  - # 1
    frequency:   -16.1702134759
  - # 2
    frequency:   -15.0612268507
  - # 3
    frequency:   -10.1003953965
  - # 4
    frequency:    -9.8463661099
  - # 5
    frequency:    -5.9457236859
  - # 6
    frequency:     1.6669549801
  - # 7
    frequency:    15.3642022048
  - # 8
    frequency:    15.9221939718
  - # 9
    frequency:    16.2158933166
  - # 10
    frequency:    16.2166704440
  - # 11
    frequency:    16.8860524867
  - # 12
    frequency:    17.2894048953

- q-position: [   -0.4444444,    0.4444444,    0.3750000 ]
  weight: 4    
  band:
  - # 1
    frequency:   -17.2543161914
  - # 2
    frequency:   -15.7352267124
  - # 3
    frequency:   -14.2397185303
  - # 4
    frequency:   -13.6017035314
  - # 5
    frequency:    -4.2866735515
  - # 6
    frequency:     4.5676683720
  - # 7
    frequency:    14.9125622173
  - # 8
    frequency:    15.7960635296
  - # 9
    frequency:    15.9177648177
  - # 10
    frequency:    16.1381950130
  - # 11
    frequency:    17.0022913787
  - # 12
    frequency:    17.5738949788

