mesh: [     9,     9,     4 ]
nqpoint: 50     
reciprocal_lattice:
- [   0.40533564,   0.23404500,   0.00000000 ] # a*
- [   0.00002110,   0.46805346,   0.00000000 ] # b*
- [   0.00000000,   0.00000000,   0.21240353 ] # c*
natom:   4      
lattice:
- [     2.467155442383188,    -0.000111200019553,     0.000000000000000 ] # a
- [    -1.233674023183305,     2.136563688137034,     0.000000000000000 ] # b
- [     0.000000000000000,     0.000000000000000,     4.708019619000000 ] # c
points:
- symbol: C  # 1
  coordinates: [  0.999999697166835,  0.000000349172772,  0.250000000000000 ]
  mass: 12.010700
- symbol: C  # 2
  coordinates: [  0.000000349172772,  0.999999697166835,  0.750000000000000 ]
  mass: 12.010700
- symbol: C  # 3
  coordinates: [  0.333298929956719,  0.666701052703672,  0.250000000000000 ]
  mass: 12.010700
- symbol: C  # 4
  coordinates: [  0.666701052703672,  0.333298929956719,  0.750000000000000 ]
  mass: 12.010700
phonon:
- q-position: [    0.0000000,    0.0000000,    0.1250000 ]
  weight: 2    
  band:
  - # 1
    frequency:    -6.4177918663
  - # 2
    frequency:    -6.1022939217
  - # 3
    frequency:    -0.3989758456
  - # 4
    frequency:     0.6249878469
  - # 5
    frequency:     0.8461279675
  - # 6
    frequency:     3.4068092463
  - # 7
    frequency:    20.6682044380
  - # 8
    frequency:    26.3740550478
  - # 9
    frequency:    44.4692617602
  - # 10
    frequency:    44.7109325441
  - # 11
    frequency:    46.8421348375
  - # 12
    frequency:    46.8562724905

- q-position: [    0.1111111,    0.0000000,    0.1250000 ]
  weight: 8    
  band:
  - # 1
    frequency:    -1.8527836130
  - # 2
    frequency:     5.6755146681
  - # 3
    frequency:     5.8497241008
  - # 4
    frequency:     6.4879740478
  - # 5
    frequency:     8.7951892066
  - # 6
    frequency:    11.4336132940
  - # 7
    frequency:    20.6445268170
  - # 8
    frequency:    25.8832241494
  - # 9
    frequency:    44.2456540886
  - # 10
    frequency:    44.6402178184
  - # 11
    frequency:    46.3434257040
  - # 12
    frequency:    46.6652497383

- q-position: [    0.2222222,    0.0000000,    0.1250000 ]
  weight: 8    
  band:
  - # 1
    frequency:     9.6052337284
  - # 2
    frequency:     9.6501712374
  - # 3
    frequency:    11.2078896977
  - # 4
    frequency:    12.1471651156
  - # 5
    frequency:    19.8874922476
  - # 6
    frequency:    20.5963189995
  - # 7
    frequency:    21.8458567100
  - # 8
    frequency:    24.5460813228
  - # 9
    frequency:    43.2115572299
  - # 10
    frequency:    44.5993742279
  - # 11
    frequency:    44.9574170885
  - # 12
    frequency:    45.9649576535

- q-position: [    0.3333333,    0.0000000,    0.1250000 ]
  weight: 8    
  band:
  - # 1
    frequency:    13.1257942617
  - # 2
    frequency:    14.8542780640
  - # 3
    frequency:    15.5385565510
  - # 4
    frequency:    16.3750159737
  - # 5
    frequency:    20.3000127547
  - # 6
    frequency:    22.7719778543
  - # 7
    frequency:    28.9771900933
  - # 8
    frequency:    30.6005213934
  - # 9
    frequency:    41.8053840784
  - # 10
    frequency:    43.1517257338
  - # 11
    frequency:    43.7560948198
  - # 12
    frequency:    44.3722982247

- q-position: [    0.4444444,    0.0000000,    0.1250000 ]
  weight: 8    
  band:
  - # 1
    frequency:    15.7698425649
  - # 2
    frequency:    17.8735714817
  - # 3
    frequency:    18.0814984475
  - # 4
    frequency:    18.6433122296
  - # 5
    frequency:    19.5148191633
  - # 6
    frequency:    21.5372737910
  - # 7
    frequency:    35.9254946742
  - # 8
    frequency:    37.2505807996
  - # 9
    frequency:    40.7100443317
  - # 10
    frequency:    41.1006428688
  - # 11
    frequency:    41.6827358763
  - # 12
    frequency:    41.7749808721

- q-position: [    0.1111111,    0.1111111,    0.1250000 ]
  weight: 4    
  band:
  - # 1
    frequency:     8.2510857929
  - # 2
    frequency:     9.0377458019
  - # 3
    frequency:    10.4845565619
  - # 4
    frequency:    10.8236914506
  - # 5
    frequency:    16.9683220968
  - # 6
    frequency:    18.8714840115
  - # 7
    frequency:    20.4972338809
  - # 8
    frequency:    24.9037751921
  - # 9
    frequency:    43.7143053137
  - # 10
    frequency:    44.4393595111
  - # 11
    frequency:    45.4140627695
  - # 12
    frequency:    46.2313601624

- q-position: [    0.2222222,    0.1111111,    0.1250000 ]
  weight: 8    
  band:
  - # 1
    frequency:    12.3775325271
  - # 2
    frequency:    14.3228775687
  - # 3
    frequency:    15.1360662348
  - # 4
    frequency:    15.8335941498
  - # 5
    frequency:    20.2665268663
  - # 6
    frequency:    23.2637434802
  - # 7
    frequency:    25.2698610432
  - # 8
    frequency:    27.0786325558
  - # 9
    frequency:    42.6145496980
  - # 10
    frequency:    43.7838316920
  - # 11
    frequency:    44.0148977774
  - # 12
    frequency:    44.9785772334

- q-position: [    0.3333333,    0.1111111,    0.1250000 ]
  weight: 8    
  band:
  - # 1
    frequency:    15.2406944983
  - # 2
    frequency:    18.1708806399
  - # 3
    frequency:    18.5606752068
  - # 4
    frequency:    19.6501602850
  - # 5
    frequency:    19.8443682144
  - # 6
    frequency:    21.6399440627
  - # 7
    frequency:    32.4213200837
  - # 8
    frequency:    34.0432891846
  - # 9
    frequency:    41.2966326095
  - # 10
    frequency:    42.1659652429
  - # 11
    frequency:    42.4190139802
  - # 12
    frequency:    42.7911963334

- q-position: [   -0.5555556,    0.1111111,    0.1250000 ]
  weight: 8    
  band:
  - # 1
    frequency:    16.4035316868
  - # 2
    frequency:    19.0960026826
  - # 3
    frequency:    19.4454465960
  - # 4
    frequency:    20.2174091100
  - # 5
    frequency:    21.0580435409
  - # 6
    frequency:    21.1488382903
  - # 7
    frequency:    37.6515216802
  - # 8
    frequency:    38.7331905552
  - # 9
    frequency:    38.8057291604
  - # 10
    frequency:    39.0763747980
  - # 11
    frequency:    41.4095836121
  - # 12
    frequency:    41.8267814642

- q-position: [   -0.4444444,    0.1111111,    0.1250000 ]
  weight: 8    
  band:
  - # 1
    frequency:    14.4487858568
  - # 2
    frequency:    18.0446365973
  - # 3
    frequency:    18.7801181207
  - # 4
    frequency:    19.4175363073
  - # 5
    frequency:    20.3201160622
  - # 6
    frequency:    21.8327335950
  - # 7
    frequency:    32.7713385190
  - # 8
    frequency:    33.6651455445
  - # 9
    frequency:    41.2645151370
  - # 10
    frequency:    42.1305725372
  - # 11
    frequency:    42.4593749076
  - # 12
    frequency:    42.8916895922

- q-position: [   -0.3333333,    0.1111111,    0.1250000 ]
  weight: 8    
  band:
  - # 1
    frequency:    11.3748486653
  - # 2
    frequency:    14.7161375311
  - # 3
    frequency:    15.1324820981
  - # 4
    frequency:    15.2653273503
  - # 5
    frequency:    20.7012917011
  - # 6
    frequency:    23.4866703725
  - # 7
    frequency:    25.6573947467
  - # 8
    frequency:    26.6546497277
  - # 9
    frequency:    42.5701682216
  - # 10
    frequency:    43.8470586992
  - # 11
    frequency:    44.2273081063
  - # 12
    frequency:    44.8421615511

- q-position: [   -0.2222222,    0.1111111,    0.1250000 ]
  weight: 8    
  band:
  - # 1
    frequency:     7.8581141797
  - # 2
    frequency:     8.7838192635
  - # 3
    frequency:    10.0355189197
  - # 4
    frequency:    10.7106088701
  - # 5
    frequency:    17.4970651732
  - # 6
    frequency:    18.3417971647
  - # 7
    frequency:    20.8013598743
  - # 8
    frequency:    25.0599147197
  - # 9
    frequency:    43.6454253038
  - # 10
    frequency:    44.6257233121
  - # 11
    frequency:    45.3803359605
  - # 12
    frequency:    46.2203328509

- q-position: [   -0.1111111,    0.1111111,    0.1250000 ]
  weight: 4    
  band:
  - # 1
    frequency:    -2.6650136027
  - # 2
    frequency:     5.0153997348
  - # 3
    frequency:     5.9134517903
  - # 4
    frequency:     6.4991359134
  - # 5
    frequency:     9.5081543108
  - # 6
    frequency:    10.9023185437
  - # 7
    frequency:    20.7526348206
  - # 8
    frequency:    25.9385741800
  - # 9
    frequency:    44.1976037126
  - # 10
    frequency:    44.7307501658
  - # 11
    frequency:    46.2568794729
  - # 12
    frequency:    46.7360319749

- q-position: [    0.2222222,    0.2222222,    0.1250000 ]
  weight: 4    
  band:
  - # 1
    frequency:    15.0439824925
  - # 2
    frequency:    17.9856516335
  - # 3
    frequency:    19.9993013739
  - # 4
    frequency:    20.4279040132
  - # 5
    frequency:    21.4139429263
  - # 6
    frequency:    21.6288393241
  - # 7
    frequency:    30.2659734543
  - # 8
    frequency:    31.7260475220
  - # 9
    frequency:    42.0330838439
  - # 10
    frequency:    42.1245285901
  - # 11
    frequency:    42.7917473127
  - # 12
    frequency:    42.9536948025

- q-position: [    0.3333333,    0.2222222,    0.1250000 ]
  weight: 8    
  band:
  - # 1
    frequency:    16.8000887350
  - # 2
    frequency:    19.5410742212
  - # 3
    frequency:    19.6556834618
  - # 4
    frequency:    20.5123124186
  - # 5
    frequency:    24.4901905872
  - # 6
    frequency:    25.4023517184
  - # 7
    frequency:    34.6030705224
  - # 8
    frequency:    35.6353865598
  - # 9
    frequency:    39.0607576547
  - # 10
    frequency:    39.1691540023
  - # 11
    frequency:    42.1640440994
  - # 12
    frequency:    42.3187062859

- q-position: [   -0.5555556,    0.2222222,    0.1250000 ]
  weight: 8    
  band:
  - # 1
    frequency:    16.0817746052
  - # 2
    frequency:    19.4624402639
  - # 3
    frequency:    20.1502039302
  - # 4
    frequency:    20.6874314174
  - # 5
    frequency:    24.4001740649
  - # 6
    frequency:    25.4833066508
  - # 7
    frequency:    35.0342727689
  - # 8
    frequency:    35.2391900096
  - # 9
    frequency:    38.7964023886
  - # 10
    frequency:    39.3042176286
  - # 11
    frequency:    42.2248066286
  - # 12
    frequency:    42.3789731436

- q-position: [   -0.4444444,    0.2222222,    0.1250000 ]
  weight: 8    
  band:
  - # 1
    frequency:    13.7656624883
  - # 2
    frequency:    17.7966945073
  - # 3
    frequency:    20.2631665415
  - # 4
    frequency:    20.8221256980
  - # 5
    frequency:    21.5149263514
  - # 6
    frequency:    21.9106793734
  - # 7
    frequency:    30.9215653945
  - # 8
    frequency:    31.0117224707
  - # 9
    frequency:    41.8839539481
  - # 10
    frequency:    42.1664922131
  - # 11
    frequency:    42.8592814401
  - # 12
    frequency:    43.1091695648

- q-position: [   -0.3333333,    0.2222222,    0.1250000 ]
  weight: 8    
  band:
  - # 1
    frequency:    10.9980387562
  - # 2
    frequency:    14.0395744346
  - # 3
    frequency:    15.0407879463
  - # 4
    frequency:    15.9307151441
  - # 5
    frequency:    20.9293470867
  - # 6
    frequency:    23.4918149574
  - # 7
    frequency:    26.0575030253
  - # 8
    frequency:    26.2578746348
  - # 9
    frequency:    42.8283143453
  - # 10
    frequency:    43.5672041019
  - # 11
    frequency:    43.9797372791
  - # 12
    frequency:    45.1486880945

- q-position: [   -0.2222222,    0.2222222,    0.1250000 ]
  weight: 4    
  band:
  - # 1
    frequency:     8.5599899772
  - # 2
    frequency:     8.9566113991
  - # 3
    frequency:    11.6295840085
  - # 4
    frequency:    12.0599604002
  - # 5
    frequency:    20.5862797553
  - # 6
    frequency:    20.9521922026
  - # 7
    frequency:    21.1888966124
  - # 8
    frequency:    24.6777375293
  - # 9
    frequency:    43.4153334457
  - # 10
    frequency:    44.5352005325
  - # 11
    frequency:    44.6714913076
  - # 12
    frequency:    46.1905562663

- q-position: [   -0.6666667,    0.3333333,    0.1250000 ]
  weight: 4    
  band:
  - # 1
    frequency:    17.1557756198
  - # 2
    frequency:    19.4362544525
  - # 3
    frequency:    20.2097622420
  - # 4
    frequency:    20.2404293993
  - # 5
    frequency:    28.4645676951
  - # 6
    frequency:    28.7129103754
  - # 7
    frequency:    35.7947240000
  - # 8
    frequency:    35.8325394562
  - # 9
    frequency:    36.4165197276
  - # 10
    frequency:    36.4739694117
  - # 11
    frequency:    42.3029972805
  - # 12
    frequency:    42.5399945880

- q-position: [   -0.5555556,    0.3333333,    0.1250000 ]
  weight: 8    
  band:
  - # 1
    frequency:    16.1395207170
  - # 2
    frequency:    19.3638952121
  - # 3
    frequency:    20.0051994202
  - # 4
    frequency:    20.8839310322
  - # 5
    frequency:    24.5902604170
  - # 6
    frequency:    25.2968174312
  - # 7
    frequency:    35.0208536117
  - # 8
    frequency:    35.2568510260
  - # 9
    frequency:    38.9114070639
  - # 10
    frequency:    39.2203576648
  - # 11
    frequency:    42.1584597610
  - # 12
    frequency:    42.4494639660

- q-position: [   -0.4444444,    0.3333333,    0.1250000 ]
  weight: 8    
  band:
  - # 1
    frequency:    14.2457013826
  - # 2
    frequency:    18.0225513100
  - # 3
    frequency:    18.4346720017
  - # 4
    frequency:    19.7695140809
  - # 5
    frequency:    20.6215338784
  - # 6
    frequency:    21.7002173584
  - # 7
    frequency:    32.9252048287
  - # 8
    frequency:    33.5361446313
  - # 9
    frequency:    41.3982130733
  - # 10
    frequency:    41.9700533342
  - # 11
    frequency:    42.2964989458
  - # 12
    frequency:    43.1248575221

- q-position: [   -0.3333333,    0.3333333,    0.1250000 ]
  weight: 4    
  band:
  - # 1
    frequency:    12.2286545361
  - # 2
    frequency:    14.1004273371
  - # 3
    frequency:    16.1705607953
  - # 4
    frequency:    16.2894013078
  - # 5
    frequency:    20.9370487274
  - # 6
    frequency:    22.7745700561
  - # 7
    frequency:    29.4742243328
  - # 8
    frequency:    30.1088229636
  - # 9
    frequency:    42.1699535235
  - # 10
    frequency:    42.7639274553
  - # 11
    frequency:    43.4991244574
  - # 12
    frequency:    44.7551963079

- q-position: [   -0.5555556,    0.4444444,    0.1250000 ]
  weight: 4    
  band:
  - # 1
    frequency:    16.3846338954
  - # 2
    frequency:    18.9879371923
  - # 3
    frequency:    19.4677917517
  - # 4
    frequency:    20.5653409403
  - # 5
    frequency:    20.7210604087
  - # 6
    frequency:    21.2587325124
  - # 7
    frequency:    37.7497206996
  - # 8
    frequency:    38.7971800820
  - # 9
    frequency:    38.8416129803
  - # 10
    frequency:    38.9499378849
  - # 11
    frequency:    41.3479939153
  - # 12
    frequency:    41.9123051537

- q-position: [   -0.4444444,    0.4444444,    0.1250000 ]
  weight: 4    
  band:
  - # 1
    frequency:    15.5062231981
  - # 2
    frequency:    17.5470979665
  - # 3
    frequency:    18.3952018611
  - # 4
    frequency:    18.6520235366
  - # 5
    frequency:    19.7857617294
  - # 6
    frequency:    21.4991243201
  - # 7
    frequency:    36.1420055672
  - # 8
    frequency:    37.0698430223
  - # 9
    frequency:    40.7679939472
  - # 10
    frequency:    40.9762049085
  - # 11
    frequency:    41.7184607970
  - # 12
    frequency:    41.8797579015

- q-position: [    0.0000000,    0.0000000,    0.3750000 ]
  weight: 2    
  band:
  - # 1
    frequency:    -4.4469288838
  - # 2
    frequency:    -4.3540509740
  - # 3
    frequency:    -2.1074411446
  - # 4
    frequency:    -1.3074240454
  - # 5
    frequency:     9.7678819039
  - # 6
    frequency:    13.9957950378
  - # 7
    frequency:    21.9918469944
  - # 8
    frequency:    26.4540668855
  - # 9
    frequency:    45.8465960650
  - # 10
    frequency:    45.9586153174
  - # 11
    frequency:    46.8148717157
  - # 12
    frequency:    46.8358972745

- q-position: [    0.1111111,    0.0000000,    0.3750000 ]
  weight: 8    
  band:
  - # 1
    frequency:     3.7703957619
  - # 2
    frequency:     5.4566756249
  - # 3
    frequency:     9.6392433187
  - # 4
    frequency:    10.2830859503
  - # 5
    frequency:    11.6778610204
  - # 6
    frequency:    14.6372393231
  - # 7
    frequency:    21.8162595361
  - # 8
    frequency:    25.9000318277
  - # 9
    frequency:    45.4372960426
  - # 10
    frequency:    45.8147611942
  - # 11
    frequency:    46.2908782763
  - # 12
    frequency:    46.6482925608

- q-position: [    0.2222222,    0.0000000,    0.3750000 ]
  weight: 8    
  band:
  - # 1
    frequency:    10.3418133668
  - # 2
    frequency:    10.9761096240
  - # 3
    frequency:    12.4855297783
  - # 4
    frequency:    15.5284939231
  - # 5
    frequency:    20.8695486087
  - # 6
    frequency:    21.3065626517
  - # 7
    frequency:    21.6782838818
  - # 8
    frequency:    24.4227354276
  - # 9
    frequency:    44.1080304313
  - # 10
    frequency:    44.8238945022
  - # 11
    frequency:    45.4167030870
  - # 12
    frequency:    45.9794149066

- q-position: [    0.3333333,    0.0000000,    0.3750000 ]
  weight: 8    
  band:
  - # 1
    frequency:    14.7516664391
  - # 2
    frequency:    15.1319776458
  - # 3
    frequency:    15.4129826134
  - # 4
    frequency:    16.9855002301
  - # 5
    frequency:    20.7070016222
  - # 6
    frequency:    22.4156579604
  - # 7
    frequency:    29.6883578000
  - # 8
    frequency:    30.3506904181
  - # 9
    frequency:    42.3622260661
  - # 10
    frequency:    42.9173984436
  - # 11
    frequency:    44.1740378888
  - # 12
    frequency:    44.4307979083

- q-position: [    0.4444444,    0.0000000,    0.3750000 ]
  weight: 8    
  band:
  - # 1
    frequency:    16.5254582739
  - # 2
    frequency:    17.9314235383
  - # 3
    frequency:    17.9702294458
  - # 4
    frequency:    18.0557503548
  - # 5
    frequency:    19.9500260908
  - # 6
    frequency:    20.9182664860
  - # 7
    frequency:    36.5105125292
  - # 8
    frequency:    37.0450526505
  - # 9
    frequency:    41.0241740583
  - # 10
    frequency:    41.3742073105
  - # 11
    frequency:    41.4652169981
  - # 12
    frequency:    41.6284251117

- q-position: [    0.1111111,    0.1111111,    0.3750000 ]
  weight: 4    
  band:
  - # 1
    frequency:     9.3585050503
  - # 2
    frequency:    10.2913755140
  - # 3
    frequency:    12.1988147561
  - # 4
    frequency:    15.0827286227
  - # 5
    frequency:    18.1407198090
  - # 6
    frequency:    18.7111359027
  - # 7
    frequency:    21.4169278861
  - # 8
    frequency:    24.7744065948
  - # 9
    frequency:    44.6209030413
  - # 10
    frequency:    45.2915648426
  - # 11
    frequency:    45.4638278538
  - # 12
    frequency:    46.1714997718

- q-position: [    0.2222222,    0.1111111,    0.3750000 ]
  weight: 8    
  band:
  - # 1
    frequency:    14.1218097161
  - # 2
    frequency:    15.1749638125
  - # 3
    frequency:    15.4270106703
  - # 4
    frequency:    16.7400119855
  - # 5
    frequency:    20.8147657787
  - # 6
    frequency:    22.9190313869
  - # 7
    frequency:    26.1025545108
  - # 8
    frequency:    26.8347593321
  - # 9
    frequency:    43.2138294077
  - # 10
    frequency:    43.7472930510
  - # 11
    frequency:    44.4739216511
  - # 12
    frequency:    44.9234859311

- q-position: [    0.3333333,    0.1111111,    0.3750000 ]
  weight: 8    
  band:
  - # 1
    frequency:    16.2063141090
  - # 2
    frequency:    17.6830033598
  - # 3
    frequency:    19.0108493249
  - # 4
    frequency:    19.4928403609
  - # 5
    frequency:    20.1508171994
  - # 6
    frequency:    21.1336545701
  - # 7
    frequency:    33.1119365796
  - # 8
    frequency:    33.7743663324
  - # 9
    frequency:    41.6286459155
  - # 10
    frequency:    42.0249565423
  - # 11
    frequency:    42.5697544695
  - # 12
    frequency:    42.7570284634

- q-position: [   -0.5555556,    0.1111111,    0.3750000 ]
  weight: 8    
  band:
  - # 1
    frequency:    16.8544844710
  - # 2
    frequency:    18.1151657381
  - # 3
    frequency:    19.7723049999
  - # 4
    frequency:    20.4699824479
  - # 5
    frequency:    20.5940886620
  - # 6
    frequency:    20.8605108169
  - # 7
    frequency:    38.2744180454
  - # 8
    frequency:    38.7198732315
  - # 9
    frequency:    38.8554289743
  - # 10
    frequency:    38.9666969166
  - # 11
    frequency:    41.4832698944
  - # 12
    frequency:    41.6461224910

- q-position: [   -0.4444444,    0.1111111,    0.3750000 ]
  weight: 8    
  band:
  - # 1
    frequency:    15.4808174836
  - # 2
    frequency:    17.4923697448
  - # 3
    frequency:    18.9920707154
  - # 4
    frequency:    19.2217716298
  - # 5
    frequency:    20.5057309313
  - # 6
    frequency:    21.5096563088
  - # 7
    frequency:    33.1673251927
  - # 8
    frequency:    33.5329661873
  - # 9
    frequency:    41.6841931303
  - # 10
    frequency:    42.1245012371
  - # 11
    frequency:    42.6093027365
  - # 12
    frequency:    42.8702792391

- q-position: [   -0.3333333,    0.1111111,    0.3750000 ]
  weight: 8    
  band:
  - # 1
    frequency:    13.3915509821
  - # 2
    frequency:    14.8539133213
  - # 3
    frequency:    15.2226718029
  - # 4
    frequency:    16.4884876124
  - # 5
    frequency:    21.1311837562
  - # 6
    frequency:    23.3242436085
  - # 7
    frequency:    26.1608584553
  - # 8
    frequency:    26.5651889906
  - # 9
    frequency:    43.2716769509
  - # 10
    frequency:    43.8363398201
  - # 11
    frequency:    44.6403650357
  - # 12
    frequency:    44.9316759967

- q-position: [   -0.2222222,    0.1111111,    0.3750000 ]
  weight: 8    
  band:
  - # 1
    frequency:     9.4040557324
  - # 2
    frequency:     9.9088612220
  - # 3
    frequency:    11.4515806466
  - # 4
    frequency:    14.9399458697
  - # 5
    frequency:    18.1411153458
  - # 6
    frequency:    18.4021824247
  - # 7
    frequency:    21.6365710893
  - # 8
    frequency:    25.0564319353
  - # 9
    frequency:    44.6347652143
  - # 10
    frequency:    45.3218729613
  - # 11
    frequency:    45.5963090786
  - # 12
    frequency:    46.2238989762

- q-position: [   -0.1111111,    0.1111111,    0.3750000 ]
  weight: 4    
  band:
  - # 1
    frequency:     3.6805133885
  - # 2
    frequency:     5.5839178943
  - # 3
    frequency:     9.5865410165
  - # 4
    frequency:    10.0011065435
  - # 5
    frequency:    11.3986027203
  - # 6
    frequency:    14.5638274936
  - # 7
    frequency:    21.8946077767
  - # 8
    frequency:    25.9998742849
  - # 9
    frequency:    45.4127850273
  - # 10
    frequency:    45.8916163069
  - # 11
    frequency:    46.2557980522
  - # 12
    frequency:    46.7128801884

- q-position: [    0.2222222,    0.2222222,    0.3750000 ]
  weight: 4    
  band:
  - # 1
    frequency:    16.0903711365
  - # 2
    frequency:    17.6152237843
  - # 3
    frequency:    20.2194321778
  - # 4
    frequency:    20.7944164335
  - # 5
    frequency:    21.3123360984
  - # 6
    frequency:    21.3378374716
  - # 7
    frequency:    30.8991307242
  - # 8
    frequency:    31.4930016759
  - # 9
    frequency:    42.3465394503
  - # 10
    frequency:    42.3949427665
  - # 11
    frequency:    42.7107658463
  - # 12
    frequency:    42.7875293141

- q-position: [    0.3333333,    0.2222222,    0.3750000 ]
  weight: 8    
  band:
  - # 1
    frequency:    17.1125243860
  - # 2
    frequency:    18.2906085478
  - # 3
    frequency:    19.7741584470
  - # 4
    frequency:    20.1477692895
  - # 5
    frequency:    24.8345834597
  - # 6
    frequency:    25.2109599320
  - # 7
    frequency:    35.0570018672
  - # 8
    frequency:    35.4738322588
  - # 9
    frequency:    39.1116892157
  - # 10
    frequency:    39.1507745715
  - # 11
    frequency:    42.1997186518
  - # 12
    frequency:    42.2522723759

- q-position: [   -0.5555556,    0.2222222,    0.3750000 ]
  weight: 8    
  band:
  - # 1
    frequency:    16.4707899080
  - # 2
    frequency:    18.1320598427
  - # 3
    frequency:    20.2210072256
  - # 4
    frequency:    20.3916617265
  - # 5
    frequency:    24.6889525619
  - # 6
    frequency:    25.1366033481
  - # 7
    frequency:    35.1366333446
  - # 8
    frequency:    35.2183331391
  - # 9
    frequency:    39.1319711303
  - # 10
    frequency:    39.3357944083
  - # 11
    frequency:    42.2502459931
  - # 12
    frequency:    42.3193679086

- q-position: [   -0.4444444,    0.2222222,    0.3750000 ]
  weight: 8    
  band:
  - # 1
    frequency:    14.9183696868
  - # 2
    frequency:    17.3106315793
  - # 3
    frequency:    20.5357324940
  - # 4
    frequency:    20.8732302395
  - # 5
    frequency:    21.0593836947
  - # 6
    frequency:    21.8986602027
  - # 7
    frequency:    31.0437937092
  - # 8
    frequency:    31.0842791812
  - # 9
    frequency:    42.3915483183
  - # 10
    frequency:    42.5501949353
  - # 11
    frequency:    42.8334273794
  - # 12
    frequency:    42.9523444882

- q-position: [   -0.3333333,    0.2222222,    0.3750000 ]
  weight: 8    
  band:
  - # 1
    frequency:    13.0956925232
  - # 2
    frequency:    14.6105366774
  - # 3
    frequency:    15.4717331239
  - # 4
    frequency:    16.4276599072
  - # 5
    frequency:    21.2583954296
  - # 6
    frequency:    23.4401476534
  - # 7
    frequency:    26.2623891787
  - # 8
    frequency:    26.3262479800
  - # 9
    frequency:    43.3781450176
  - # 10
    frequency:    43.7050632463
  - # 11
    frequency:    44.5993598649
  - # 12
    frequency:    45.1083649080

- q-position: [   -0.2222222,    0.2222222,    0.3750000 ]
  weight: 4    
  band:
  - # 1
    frequency:    10.0442599207
  - # 2
    frequency:    11.1309442346
  - # 3
    frequency:    11.7180851616
  - # 4
    frequency:    15.3558374651
  - # 5
    frequency:    20.9763510619
  - # 6
    frequency:    21.1338930065
  - # 7
    frequency:    21.6405807442
  - # 8
    frequency:    24.7201736058
  - # 9
    frequency:    44.2111628852
  - # 10
    frequency:    44.7305199814
  - # 11
    frequency:    45.4742693062
  - # 12
    frequency:    46.1551107086

- q-position: [   -0.6666667,    0.3333333,    0.3750000 ]
  weight: 4    
  band:
  - # 1
    frequency:    17.0955712694
  - # 2
    frequency:    18.4124872681
  - # 3
    frequency:    19.7398409074
  - # 4
    frequency:    20.0645292440
  - # 5
    frequency:    28.5144775731
  - # 6
    frequency:    28.6159297682
  - # 7
    frequency:    35.8982437013
  - # 8
    frequency:    35.9033698670
  - # 9
    frequency:    36.4647024824
  - # 10
    frequency:    36.4934989718
  - # 11
    frequency:    42.3635707073
  - # 12
    frequency:    42.4714196591

- q-position: [   -0.5555556,    0.3333333,    0.3750000 ]
  weight: 8    
  band:
  - # 1
    frequency:    16.5026682765
  - # 2
    frequency:    18.1250562973
  - # 3
    frequency:    20.0576514408
  - # 4
    frequency:    20.5497782428
  - # 5
    frequency:    24.7402590690
  - # 6
    frequency:    25.0326076639
  - # 7
    frequency:    35.1639827721
  - # 8
    frequency:    35.2617086896
  - # 9
    frequency:    39.1680008980
  - # 10
    frequency:    39.2983662895
  - # 11
    frequency:    42.2355648116
  - # 12
    frequency:    42.3554222698

- q-position: [   -0.4444444,    0.3333333,    0.3750000 ]
  weight: 8    
  band:
  - # 1
    frequency:    15.3121716783
  - # 2
    frequency:    17.4629905013
  - # 3
    frequency:    18.8638410457
  - # 4
    frequency:    19.3843387452
  - # 5
    frequency:    20.6571043661
  - # 6
    frequency:    21.5364248682
  - # 7
    frequency:    33.1999287662
  - # 8
    frequency:    33.4465170146
  - # 9
    frequency:    41.7433258990
  - # 10
    frequency:    42.0567497856
  - # 11
    frequency:    42.5894263410
  - # 12
    frequency:    43.0135021639

- q-position: [   -0.3333333,    0.3333333,    0.3750000 ]
  weight: 4    
  band:
  - # 1
    frequency:    13.9795200745
  - # 2
    frequency:    14.7881975439
  - # 3
    frequency:    15.6441007570
  - # 4
    frequency:    16.8163519439
  - # 5
    frequency:    21.0696219308
  - # 6
    frequency:    22.7322848677
  - # 7
    frequency:    29.7662563275
  - # 8
    frequency:    30.0191079079
  - # 9
    frequency:    42.5460005925
  - # 10
    frequency:    42.7915465538
  - # 11
    frequency:    44.1685863406
  - # 12
    frequency:    44.6892965981

- q-position: [   -0.5555556,    0.4444444,    0.3750000 ]
  weight: 4    
  band:
  - # 1
    frequency:    16.8148210954
  - # 2
    frequency:    18.0923341790
  - # 3
    frequency:    19.7541574713
  - # 4
    frequency:    20.5722908213
  - # 5
    frequency:    20.6897310672
  - # 6
    frequency:    20.7138143602
  - # 7
    frequency:    38.3166378938
  - # 8
    frequency:    38.7843857710
  - # 9
    frequency:    38.9002000304
  - # 10
    frequency:    38.9053972221
  - # 11
    frequency:    41.4835022670
  - # 12
    frequency:    41.7147431621

- q-position: [   -0.4444444,    0.4444444,    0.3750000 ]
  weight: 4    
  band:
  - # 1
    frequency:    16.3049581429
  - # 2
    frequency:    17.8277776817
  - # 3
    frequency:    17.9050159285
  - # 4
    frequency:    18.1798935784
  - # 5
    frequency:    20.1594632360
  - # 6
    frequency:    20.9617507301
  - # 7
    frequency:    36.5653392832
  - # 8
    frequency:    36.9323476487
  - # 9
    frequency:    41.0771428870
  - # 10
    frequency:    41.3778187752
  - # 11
    frequency:    41.4697790442
  - # 12
    frequency:    41.7644744186

