mesh: [     9,     9,     4 ]
nqpoint: 50     
reciprocal_lattice:
- [   0.40533564,   0.23404500,   0.00000000 ] # a*
- [   0.00002110,   0.46805346,   0.00000000 ] # b*
- [   0.00000000,   0.00000000,   0.16520275 ] # c*
natom:   4      
lattice:
- [     2.467155442383188,    -0.000111200019553,     0.000000000000000 ] # a
- [    -1.233674023183305,     2.136563688137034,     0.000000000000000 ] # b
- [     0.000000000000000,     0.000000000000000,     6.053168081000000 ] # c
points:
- symbol: C  # 1
  coordinates: [  0.999999697166835,  0.000000349172772,  0.250000000000000 ]
  mass: 12.010700
- symbol: C  # 2
  coordinates: [  0.000000349172772,  0.999999697166835,  0.750000000000000 ]
  mass: 12.010700
- symbol: C  # 3
  coordinates: [  0.333298929956719,  0.666701052703672,  0.250000000000000 ]
  mass: 12.010700
- symbol: C  # 4
  coordinates: [  0.666701052703672,  0.333298929956719,  0.750000000000000 ]
  mass: 12.010700
phonon:
- q-position: [    0.0000000,    0.0000000,    0.1250000 ]
  weight: 2    
  band:
  - # 1
    frequency:    -7.0945662591
  - # 2
    frequency:    -5.6774686550
  - # 3
    frequency:    -1.1257245401
  - # 4
    frequency:    -1.0629121895
  - # 5
    frequency:     1.3838690940
  - # 6
    frequency:     6.5227225909
  - # 7
    frequency:    23.2164207820
  - # 8
    frequency:    26.2220501826
  - # 9
    frequency:    45.5365311260
  - # 10
    frequency:    45.7117057275
  - # 11
    frequency:    46.4724587593
  - # 12
    frequency:    46.5510702433

- q-position: [    0.1111111,    0.0000000,    0.1250000 ]
  weight: 8    
  band:
  - # 1
    frequency:     0.5481826430
  - # 2
    frequency:     4.3637633404
  - # 3
    frequency:     5.9343618234
  - # 4
    frequency:     7.7455225154
  - # 5
    frequency:     9.3877530819
  - # 6
    frequency:    11.4863631456
  - # 7
    frequency:    22.8717072030
  - # 8
    frequency:    25.6364259493
  - # 9
    frequency:    45.2554346548
  - # 10
    frequency:    45.6151475541
  - # 11
    frequency:    46.0703931269
  - # 12
    frequency:    46.4349104832

- q-position: [    0.2222222,    0.0000000,    0.1250000 ]
  weight: 8    
  band:
  - # 1
    frequency:     8.1280426932
  - # 2
    frequency:    10.1222111942
  - # 3
    frequency:    10.3367556153
  - # 4
    frequency:    11.5101748928
  - # 5
    frequency:    21.1302975456
  - # 6
    frequency:    21.9142021119
  - # 7
    frequency:    22.1086159261
  - # 8
    frequency:    24.0150480922
  - # 9
    frequency:    44.1852883098
  - # 10
    frequency:    44.8207963178
  - # 11
    frequency:    45.4368387797
  - # 12
    frequency:    46.0521060767

- q-position: [    0.3333333,    0.0000000,    0.1250000 ]
  weight: 8    
  band:
  - # 1
    frequency:    11.4863931620
  - # 2
    frequency:    12.9906416167
  - # 3
    frequency:    15.2696851134
  - # 4
    frequency:    15.9427876861
  - # 5
    frequency:    20.5547048932
  - # 6
    frequency:    21.7502660946
  - # 7
    frequency:    30.4245740357
  - # 8
    frequency:    31.0005029953
  - # 9
    frequency:    42.7905523963
  - # 10
    frequency:    43.1835553501
  - # 11
    frequency:    44.5039723573
  - # 12
    frequency:    44.8298125281

- q-position: [    0.4444444,    0.0000000,    0.1250000 ]
  weight: 8    
  band:
  - # 1
    frequency:    14.0803520225
  - # 2
    frequency:    14.9091541575
  - # 3
    frequency:    18.2527740683
  - # 4
    frequency:    18.4600940378
  - # 5
    frequency:    19.2068501906
  - # 6
    frequency:    19.6189882784
  - # 7
    frequency:    37.4204108351
  - # 8
    frequency:    37.6938327386
  - # 9
    frequency:    41.7668009974
  - # 10
    frequency:    41.9065903249
  - # 11
    frequency:    42.1142230286
  - # 12
    frequency:    42.1439957619

- q-position: [    0.1111111,    0.1111111,    0.1250000 ]
  weight: 4    
  band:
  - # 1
    frequency:     7.4645192059
  - # 2
    frequency:     9.3163700076
  - # 3
    frequency:     9.6895361216
  - # 4
    frequency:    10.8442988593
  - # 5
    frequency:    17.8479947274
  - # 6
    frequency:    19.1706780531
  - # 7
    frequency:    22.1665454680
  - # 8
    frequency:    24.4500789268
  - # 9
    frequency:    44.6172300188
  - # 10
    frequency:    45.2585931157
  - # 11
    frequency:    45.4007301447
  - # 12
    frequency:    46.1333846275

- q-position: [    0.2222222,    0.1111111,    0.1250000 ]
  weight: 8    
  band:
  - # 1
    frequency:    10.7445620599
  - # 2
    frequency:    12.2325624272
  - # 3
    frequency:    15.1643388774
  - # 4
    frequency:    16.1201983739
  - # 5
    frequency:    20.9581137970
  - # 6
    frequency:    22.4246265235
  - # 7
    frequency:    26.6118274369
  - # 8
    frequency:    27.4467507281
  - # 9
    frequency:    43.5137176839
  - # 10
    frequency:    43.9872137222
  - # 11
    frequency:    44.6697883620
  - # 12
    frequency:    45.1946470752

- q-position: [    0.3333333,    0.1111111,    0.1250000 ]
  weight: 8    
  band:
  - # 1
    frequency:    13.5641865657
  - # 2
    frequency:    14.4810984750
  - # 3
    frequency:    19.2933797321
  - # 4
    frequency:    19.5339993624
  - # 5
    frequency:    19.8994807707
  - # 6
    frequency:    20.1045677667
  - # 7
    frequency:    33.9123136143
  - # 8
    frequency:    34.4239608168
  - # 9
    frequency:    42.1867395244
  - # 10
    frequency:    42.5022635193
  - # 11
    frequency:    43.1532250041
  - # 12
    frequency:    43.3618224912

- q-position: [   -0.5555556,    0.1111111,    0.1250000 ]
  weight: 8    
  band:
  - # 1
    frequency:    14.8134529290
  - # 2
    frequency:    15.4780301209
  - # 3
    frequency:    18.7514379371
  - # 4
    frequency:    18.9182542316
  - # 5
    frequency:    20.8756842858
  - # 6
    frequency:    21.1566344513
  - # 7
    frequency:    39.1836518410
  - # 8
    frequency:    39.3081719333
  - # 9
    frequency:    39.4019722416
  - # 10
    frequency:    39.5721202389
  - # 11
    frequency:    42.3635215341
  - # 12
    frequency:    42.3965717418

- q-position: [   -0.4444444,    0.1111111,    0.1250000 ]
  weight: 8    
  band:
  - # 1
    frequency:    12.8592709390
  - # 2
    frequency:    14.2658020145
  - # 3
    frequency:    19.4055418840
  - # 4
    frequency:    19.4589170695
  - # 5
    frequency:    19.7795955898
  - # 6
    frequency:    20.4793566220
  - # 7
    frequency:    33.9598243593
  - # 8
    frequency:    34.1790741837
  - # 9
    frequency:    42.3487500065
  - # 10
    frequency:    42.5134571161
  - # 11
    frequency:    43.2872253919
  - # 12
    frequency:    43.3656581665

- q-position: [   -0.3333333,    0.1111111,    0.1250000 ]
  weight: 8    
  band:
  - # 1
    frequency:     9.8764272941
  - # 2
    frequency:    11.9594320496
  - # 3
    frequency:    15.1015033083
  - # 4
    frequency:    15.5945111770
  - # 5
    frequency:    21.1797773818
  - # 6
    frequency:    22.7620200282
  - # 7
    frequency:    26.7286048418
  - # 8
    frequency:    27.1457390526
  - # 9
    frequency:    43.6085713880
  - # 10
    frequency:    44.0445416593
  - # 11
    frequency:    44.8377240464
  - # 12
    frequency:    45.1992728416

- q-position: [   -0.2222222,    0.1111111,    0.1250000 ]
  weight: 8    
  band:
  - # 1
    frequency:     6.5679771935
  - # 2
    frequency:     8.8318330514
  - # 3
    frequency:     9.4497006152
  - # 4
    frequency:    10.3509697874
  - # 5
    frequency:    18.1734420135
  - # 6
    frequency:    18.8179841053
  - # 7
    frequency:    22.3115303133
  - # 8
    frequency:    24.6695517299
  - # 9
    frequency:    44.5965526940
  - # 10
    frequency:    45.2713761122
  - # 11
    frequency:    45.5785372441
  - # 12
    frequency:    46.1921942919

- q-position: [   -0.1111111,    0.1111111,    0.1250000 ]
  weight: 4    
  band:
  - # 1
    frequency:    -3.1929504839
  - # 2
    frequency:     3.8093379393
  - # 3
    frequency:     5.7124748102
  - # 4
    frequency:     7.6400886809
  - # 5
    frequency:     9.9882657316
  - # 6
    frequency:    11.2174182813
  - # 7
    frequency:    22.9217308757
  - # 8
    frequency:    25.7121987616
  - # 9
    frequency:    45.1761505100
  - # 10
    frequency:    45.7541982323
  - # 11
    frequency:    46.0142090088
  - # 12
    frequency:    46.5121721427

- q-position: [    0.2222222,    0.2222222,    0.1250000 ]
  weight: 4    
  band:
  - # 1
    frequency:    13.3814124577
  - # 2
    frequency:    14.3227399317
  - # 3
    frequency:    19.6512003609
  - # 4
    frequency:    20.2756105166
  - # 5
    frequency:    21.2215136784
  - # 6
    frequency:    21.8037224379
  - # 7
    frequency:    31.5868177480
  - # 8
    frequency:    32.1307787962
  - # 9
    frequency:    42.7084829242
  - # 10
    frequency:    43.0806528197
  - # 11
    frequency:    43.2031614764
  - # 12
    frequency:    43.4134421555

- q-position: [    0.3333333,    0.2222222,    0.1250000 ]
  weight: 8    
  band:
  - # 1
    frequency:    15.4669076820
  - # 2
    frequency:    15.9639281430
  - # 3
    frequency:    18.2517024321
  - # 4
    frequency:    18.3719183189
  - # 5
    frequency:    25.1950271858
  - # 6
    frequency:    25.5797946272
  - # 7
    frequency:    35.7730374970
  - # 8
    frequency:    36.0735323520
  - # 9
    frequency:    39.6669628446
  - # 10
    frequency:    39.8379472075
  - # 11
    frequency:    43.1657819602
  - # 12
    frequency:    43.1834647185

- q-position: [   -0.5555556,    0.2222222,    0.1250000 ]
  weight: 8    
  band:
  - # 1
    frequency:    14.6631691795
  - # 2
    frequency:    15.7503447503
  - # 3
    frequency:    18.6838595077
  - # 4
    frequency:    18.7778483728
  - # 5
    frequency:    25.1434893154
  - # 6
    frequency:    25.3862619605
  - # 7
    frequency:    35.8206941520
  - # 8
    frequency:    35.8439066901
  - # 9
    frequency:    39.8096269496
  - # 10
    frequency:    39.9227956815
  - # 11
    frequency:    43.1808125836
  - # 12
    frequency:    43.2545330726

- q-position: [   -0.4444444,    0.2222222,    0.1250000 ]
  weight: 8    
  band:
  - # 1
    frequency:    12.2475598227
  - # 2
    frequency:    13.9605683672
  - # 3
    frequency:    20.0351578710
  - # 4
    frequency:    20.8636982880
  - # 5
    frequency:    21.1735972156
  - # 6
    frequency:    21.3085873444
  - # 7
    frequency:    31.6989291447
  - # 8
    frequency:    31.7502520592
  - # 9
    frequency:    42.9988502684
  - # 10
    frequency:    43.1066649627
  - # 11
    frequency:    43.3108756650
  - # 12
    frequency:    43.4607880775

- q-position: [   -0.3333333,    0.2222222,    0.1250000 ]
  weight: 8    
  band:
  - # 1
    frequency:     9.5834239801
  - # 2
    frequency:    11.8951319414
  - # 3
    frequency:    15.0455042168
  - # 4
    frequency:    15.5862882582
  - # 5
    frequency:    21.2474996906
  - # 6
    frequency:    22.8591637216
  - # 7
    frequency:    26.8138015646
  - # 8
    frequency:    26.9395134511
  - # 9
    frequency:    43.6017362279
  - # 10
    frequency:    43.9721011411
  - # 11
    frequency:    44.9136667444
  - # 12
    frequency:    45.2951396319

- q-position: [   -0.2222222,    0.2222222,    0.1250000 ]
  weight: 4    
  band:
  - # 1
    frequency:     7.2665755315
  - # 2
    frequency:     9.8643912471
  - # 3
    frequency:    10.1191134160
  - # 4
    frequency:    11.1887886303
  - # 5
    frequency:    21.3510139702
  - # 6
    frequency:    21.6922887238
  - # 7
    frequency:    22.0676942609
  - # 8
    frequency:    24.2446387120
  - # 9
    frequency:    44.1807545241
  - # 10
    frequency:    44.7574020113
  - # 11
    frequency:    45.6184587034
  - # 12
    frequency:    46.1692687901

- q-position: [   -0.6666667,    0.3333333,    0.1250000 ]
  weight: 4    
  band:
  - # 1
    frequency:    16.3932075403
  - # 2
    frequency:    16.7682279331
  - # 3
    frequency:    17.2550965810
  - # 4
    frequency:    17.6439617828
  - # 5
    frequency:    28.8209078113
  - # 6
    frequency:    28.8407728538
  - # 7
    frequency:    36.8094465171
  - # 8
    frequency:    36.8229603779
  - # 9
    frequency:    36.9638918254
  - # 10
    frequency:    36.9677160478
  - # 11
    frequency:    43.4373876775
  - # 12
    frequency:    43.5290185666

- q-position: [   -0.5555556,    0.3333333,    0.1250000 ]
  weight: 8    
  band:
  - # 1
    frequency:    14.6771375641
  - # 2
    frequency:    15.6953866434
  - # 3
    frequency:    18.6819411562
  - # 4
    frequency:    18.8169224071
  - # 5
    frequency:    25.1830349261
  - # 6
    frequency:    25.2994745065
  - # 7
    frequency:    35.8236197013
  - # 8
    frequency:    35.9006015948
  - # 9
    frequency:    39.8313017869
  - # 10
    frequency:    39.8800131062
  - # 11
    frequency:    43.1911923226
  - # 12
    frequency:    43.2418527198

- q-position: [   -0.4444444,    0.3333333,    0.1250000 ]
  weight: 8    
  band:
  - # 1
    frequency:    12.7180457035
  - # 2
    frequency:    14.2589526801
  - # 3
    frequency:    19.3319087811
  - # 4
    frequency:    19.5404634315
  - # 5
    frequency:    19.8282607427
  - # 6
    frequency:    20.5288480408
  - # 7
    frequency:    33.9778093142
  - # 8
    frequency:    34.0812036909
  - # 9
    frequency:    42.3664931161
  - # 10
    frequency:    42.4360737834
  - # 11
    frequency:    43.2946777761
  - # 12
    frequency:    43.4752591058

- q-position: [   -0.3333333,    0.3333333,    0.1250000 ]
  weight: 4    
  band:
  - # 1
    frequency:    10.7799699611
  - # 2
    frequency:    12.8239550901
  - # 3
    frequency:    15.2633475119
  - # 4
    frequency:    15.7105181928
  - # 5
    frequency:    20.7500398045
  - # 6
    frequency:    22.0275570521
  - # 7
    frequency:    30.5180461704
  - # 8
    frequency:    30.6430357531
  - # 9
    frequency:    42.8550509914
  - # 10
    frequency:    43.1037846185
  - # 11
    frequency:    44.6534926737
  - # 12
    frequency:    44.9620038363

- q-position: [   -0.5555556,    0.4444444,    0.1250000 ]
  weight: 4    
  band:
  - # 1
    frequency:    14.7492827262
  - # 2
    frequency:    15.3977006746
  - # 3
    frequency:    18.7847219833
  - # 4
    frequency:    19.0059979537
  - # 5
    frequency:    20.9740416768
  - # 6
    frequency:    20.9956127894
  - # 7
    frequency:    39.2703564753
  - # 8
    frequency:    39.2839354216
  - # 9
    frequency:    39.4063438764
  - # 10
    frequency:    39.5294933130
  - # 11
    frequency:    42.3721620151
  - # 12
    frequency:    42.3967946729

- q-position: [   -0.4444444,    0.4444444,    0.1250000 ]
  weight: 4    
  band:
  - # 1
    frequency:    13.8803412047
  - # 2
    frequency:    14.9041233675
  - # 3
    frequency:    18.2772947374
  - # 4
    frequency:    18.4018394723
  - # 5
    frequency:    19.2831727363
  - # 6
    frequency:    19.6960975760
  - # 7
    frequency:    37.4398542377
  - # 8
    frequency:    37.5677850485
  - # 9
    frequency:    41.8049078204
  - # 10
    frequency:    41.8537904461
  - # 11
    frequency:    42.1143000477
  - # 12
    frequency:    42.2678828914

- q-position: [    0.0000000,    0.0000000,    0.3750000 ]
  weight: 2    
  band:
  - # 1
    frequency:    -5.5991267046
  - # 2
    frequency:    -4.8008872281
  - # 3
    frequency:    -3.3339169400
  - # 4
    frequency:    -3.2020139327
  - # 5
    frequency:     3.9468273845
  - # 6
    frequency:     5.8668076161
  - # 7
    frequency:    25.1120110083
  - # 8
    frequency:    26.3472019954
  - # 9
    frequency:    45.9710470679
  - # 10
    frequency:    46.0841303771
  - # 11
    frequency:    46.3589476037
  - # 12
    frequency:    46.4311962771

- q-position: [    0.1111111,    0.0000000,    0.3750000 ]
  weight: 8    
  band:
  - # 1
    frequency:     3.4411991293
  - # 2
    frequency:     5.1114753666
  - # 3
    frequency:     5.6706955111
  - # 4
    frequency:     7.1237057946
  - # 5
    frequency:    10.1854082753
  - # 6
    frequency:    11.0406043826
  - # 7
    frequency:    24.6063266171
  - # 8
    frequency:    25.7423679464
  - # 9
    frequency:    45.6205903185
  - # 10
    frequency:    45.9564377906
  - # 11
    frequency:    45.9840932907
  - # 12
    frequency:    46.3251829591

- q-position: [    0.2222222,    0.0000000,    0.3750000 ]
  weight: 8    
  band:
  - # 1
    frequency:     8.8104305822
  - # 2
    frequency:     9.7639550068
  - # 3
    frequency:    10.5747357639
  - # 4
    frequency:    11.1450559925
  - # 5
    frequency:    21.4647765612
  - # 6
    frequency:    21.8675882536
  - # 7
    frequency:    23.2111897968
  - # 8
    frequency:    24.0733029064
  - # 9
    frequency:    44.4574276705
  - # 10
    frequency:    44.7202948549
  - # 11
    frequency:    45.7060258679
  - # 12
    frequency:    45.9614373024

- q-position: [    0.3333333,    0.0000000,    0.3750000 ]
  weight: 8    
  band:
  - # 1
    frequency:    11.8816735815
  - # 2
    frequency:    12.5129973918
  - # 3
    frequency:    15.4734552636
  - # 4
    frequency:    15.7517184629
  - # 5
    frequency:    21.2611553322
  - # 6
    frequency:    21.7510631136
  - # 7
    frequency:    30.6039410779
  - # 8
    frequency:    30.8418450155
  - # 9
    frequency:    42.9462588715
  - # 10
    frequency:    43.1089873890
  - # 11
    frequency:    44.6403436060
  - # 12
    frequency:    44.7756754655

- q-position: [    0.4444444,    0.0000000,    0.3750000 ]
  weight: 8    
  band:
  - # 1
    frequency:    14.3177041499
  - # 2
    frequency:    14.6632537317
  - # 3
    frequency:    18.3134121324
  - # 4
    frequency:    18.3992652984
  - # 5
    frequency:    19.3880621758
  - # 6
    frequency:    19.5579350552
  - # 7
    frequency:    37.4983221855
  - # 8
    frequency:    37.6114067517
  - # 9
    frequency:    41.8155256565
  - # 10
    frequency:    41.8734453051
  - # 11
    frequency:    42.1299445811
  - # 12
    frequency:    42.1421773980

- q-position: [    0.1111111,    0.1111111,    0.3750000 ]
  weight: 4    
  band:
  - # 1
    frequency:     8.2438231480
  - # 2
    frequency:     9.2091968668
  - # 3
    frequency:     9.8082125473
  - # 4
    frequency:    10.4392842467
  - # 5
    frequency:    18.3287766946
  - # 6
    frequency:    18.8721366446
  - # 7
    frequency:    23.5724404128
  - # 8
    frequency:    24.5111122836
  - # 9
    frequency:    44.8980473974
  - # 10
    frequency:    45.1702737892
  - # 11
    frequency:    45.7094672507
  - # 12
    frequency:    46.0202127956

- q-position: [    0.2222222,    0.1111111,    0.3750000 ]
  weight: 8    
  band:
  - # 1
    frequency:    11.2155218832
  - # 2
    frequency:    11.8429852164
  - # 3
    frequency:    15.4632269345
  - # 4
    frequency:    15.8584596373
  - # 5
    frequency:    21.8214341899
  - # 6
    frequency:    22.4238723212
  - # 7
    frequency:    26.8908598035
  - # 8
    frequency:    27.2353999229
  - # 9
    frequency:    43.7028249876
  - # 10
    frequency:    43.8996228109
  - # 11
    frequency:    44.8758006847
  - # 12
    frequency:    45.0945725845

- q-position: [    0.3333333,    0.1111111,    0.3750000 ]
  weight: 8    
  band:
  - # 1
    frequency:    13.8455800599
  - # 2
    frequency:    14.2251380454
  - # 3
    frequency:    19.4780509203
  - # 4
    frequency:    19.7287675652
  - # 5
    frequency:    19.8167456077
  - # 6
    frequency:    20.0510136093
  - # 7
    frequency:    34.0697937991
  - # 8
    frequency:    34.2813825992
  - # 9
    frequency:    42.2925834818
  - # 10
    frequency:    42.4234254706
  - # 11
    frequency:    43.2240330261
  - # 12
    frequency:    43.3107141960

- q-position: [   -0.5555556,    0.1111111,    0.3750000 ]
  weight: 8    
  band:
  - # 1
    frequency:    14.9998232176
  - # 2
    frequency:    15.2820524162
  - # 3
    frequency:    18.7796360723
  - # 4
    frequency:    18.8509427483
  - # 5
    frequency:    20.9538207721
  - # 6
    frequency:    21.0702170395
  - # 7
    frequency:    39.2240588196
  - # 8
    frequency:    39.2727605786
  - # 9
    frequency:    39.4432790551
  - # 10
    frequency:    39.5166840020
  - # 11
    frequency:    42.3710092827
  - # 12
    frequency:    42.3846963577

- q-position: [   -0.4444444,    0.1111111,    0.3750000 ]
  weight: 8    
  band:
  - # 1
    frequency:    13.1352122001
  - # 2
    frequency:    13.7246490762
  - # 3
    frequency:    19.4073387866
  - # 4
    frequency:    19.4294570868
  - # 5
    frequency:    20.2027495406
  - # 6
    frequency:    20.4887932557
  - # 7
    frequency:    34.0165213571
  - # 8
    frequency:    34.1072692124
  - # 9
    frequency:    42.4175316947
  - # 10
    frequency:    42.4857806522
  - # 11
    frequency:    43.3326056700
  - # 12
    frequency:    43.3651656232

- q-position: [   -0.3333333,    0.1111111,    0.3750000 ]
  weight: 8    
  band:
  - # 1
    frequency:    10.3535549923
  - # 2
    frequency:    11.2416858605
  - # 3
    frequency:    15.2496233021
  - # 4
    frequency:    15.4530508017
  - # 5
    frequency:    22.1631457202
  - # 6
    frequency:    22.8110765937
  - # 7
    frequency:    26.8554647368
  - # 8
    frequency:    27.0279820323
  - # 9
    frequency:    43.8000197834
  - # 10
    frequency:    43.9807359999
  - # 11
    frequency:    45.0032556362
  - # 12
    frequency:    45.1532952882

- q-position: [   -0.2222222,    0.1111111,    0.3750000 ]
  weight: 8    
  band:
  - # 1
    frequency:     7.4066904128
  - # 2
    frequency:     8.6615639276
  - # 3
    frequency:     9.4073657953
  - # 4
    frequency:    10.0238586996
  - # 5
    frequency:    18.3690490323
  - # 6
    frequency:    18.6360899911
  - # 7
    frequency:    23.7948353356
  - # 8
    frequency:    24.7622097317
  - # 9
    frequency:    44.9075298317
  - # 10
    frequency:    45.1878638284
  - # 11
    frequency:    45.8526953410
  - # 12
    frequency:    46.1075748062

- q-position: [   -0.1111111,    0.1111111,    0.3750000 ]
  weight: 4    
  band:
  - # 1
    frequency:     2.4829543194
  - # 2
    frequency:     4.8770666838
  - # 3
    frequency:     5.2375261392
  - # 4
    frequency:     6.8724143184
  - # 5
    frequency:    10.3531254141
  - # 6
    frequency:    10.8603542375
  - # 7
    frequency:    24.6831261963
  - # 8
    frequency:    25.8289753545
  - # 9
    frequency:    45.5669392343
  - # 10
    frequency:    45.9142799677
  - # 11
    frequency:    46.0915345787
  - # 12
    frequency:    46.4049968454

- q-position: [    0.2222222,    0.2222222,    0.3750000 ]
  weight: 4    
  band:
  - # 1
    frequency:    13.6795204379
  - # 2
    frequency:    14.0685576803
  - # 3
    frequency:    19.9685557166
  - # 4
    frequency:    20.2252856229
  - # 5
    frequency:    21.4016671790
  - # 6
    frequency:    21.6428896962
  - # 7
    frequency:    31.7583401718
  - # 8
    frequency:    31.9834393760
  - # 9
    frequency:    42.8433752319
  - # 10
    frequency:    43.0078643100
  - # 11
    frequency:    43.2548056608
  - # 12
    frequency:    43.3520794809

- q-position: [    0.3333333,    0.2222222,    0.3750000 ]
  weight: 8    
  band:
  - # 1
    frequency:    15.6326312851
  - # 2
    frequency:    15.8488267427
  - # 3
    frequency:    18.1906722999
  - # 4
    frequency:    18.2310057596
  - # 5
    frequency:    25.3066542347
  - # 6
    frequency:    25.4660493350
  - # 7
    frequency:    35.8598634091
  - # 8
    frequency:    35.9842878329
  - # 9
    frequency:    39.7053483961
  - # 10
    frequency:    39.7761989932
  - # 11
    frequency:    43.1618297988
  - # 12
    frequency:    43.1691919112

- q-position: [   -0.5555556,    0.2222222,    0.3750000 ]
  weight: 8    
  band:
  - # 1
    frequency:    14.8179039346
  - # 2
    frequency:    15.2798371730
  - # 3
    frequency:    18.7666689745
  - # 4
    frequency:    18.8058496264
  - # 5
    frequency:    25.1947494468
  - # 6
    frequency:    25.2954026768
  - # 7
    frequency:    35.8125770695
  - # 8
    frequency:    35.8222181953
  - # 9
    frequency:    39.8471425336
  - # 10
    frequency:    39.8939848705
  - # 11
    frequency:    43.2002664274
  - # 12
    frequency:    43.2309025132

- q-position: [   -0.4444444,    0.2222222,    0.3750000 ]
  weight: 8    
  band:
  - # 1
    frequency:    12.5336574198
  - # 2
    frequency:    13.2552129153
  - # 3
    frequency:    20.5686612493
  - # 4
    frequency:    20.9073724895
  - # 5
    frequency:    21.1929011267
  - # 6
    frequency:    21.2487763914
  - # 7
    frequency:    31.7022293779
  - # 8
    frequency:    31.7234587521
  - # 9
    frequency:    43.0623131985
  - # 10
    frequency:    43.1074218586
  - # 11
    frequency:    43.3786265874
  - # 12
    frequency:    43.4416008584

- q-position: [   -0.3333333,    0.2222222,    0.3750000 ]
  weight: 8    
  band:
  - # 1
    frequency:    10.0693530289
  - # 2
    frequency:    11.0586034567
  - # 3
    frequency:    15.2281342493
  - # 4
    frequency:    15.4505786643
  - # 5
    frequency:    22.2674918065
  - # 6
    frequency:    22.9275001891
  - # 7
    frequency:    26.8324406004
  - # 8
    frequency:    26.8845924084
  - # 9
    frequency:    43.7794744784
  - # 10
    frequency:    43.9330976561
  - # 11
    frequency:    45.0860381937
  - # 12
    frequency:    45.2439656879

- q-position: [   -0.2222222,    0.2222222,    0.3750000 ]
  weight: 4    
  band:
  - # 1
    frequency:     7.9943257128
  - # 2
    frequency:     9.2342057239
  - # 3
    frequency:    10.3712117388
  - # 4
    frequency:    10.9109351221
  - # 5
    frequency:    21.4268684646
  - # 6
    frequency:    21.5682398163
  - # 7
    frequency:    23.4466330892
  - # 8
    frequency:    24.3390047333
  - # 9
    frequency:    44.4539329906
  - # 10
    frequency:    44.6929539120
  - # 11
    frequency:    45.8657822127
  - # 12
    frequency:    46.0936571631

- q-position: [   -0.6666667,    0.3333333,    0.3750000 ]
  weight: 4    
  band:
  - # 1
    frequency:    16.3968792596
  - # 2
    frequency:    16.6275699530
  - # 3
    frequency:    17.3000438483
  - # 4
    frequency:    17.3909464474
  - # 5
    frequency:    28.8109004429
  - # 6
    frequency:    28.8187029490
  - # 7
    frequency:    36.8085847191
  - # 8
    frequency:    36.8142978044
  - # 9
    frequency:    36.9458424182
  - # 10
    frequency:    36.9467930734
  - # 11
    frequency:    43.4527037876
  - # 12
    frequency:    43.4908179664

- q-position: [   -0.5555556,    0.3333333,    0.3750000 ]
  weight: 8    
  band:
  - # 1
    frequency:    14.8159508160
  - # 2
    frequency:    15.2492492948
  - # 3
    frequency:    18.7698038068
  - # 4
    frequency:    18.8313102852
  - # 5
    frequency:    25.1918507310
  - # 6
    frequency:    25.2401689160
  - # 7
    frequency:    35.8362155217
  - # 8
    frequency:    35.8680947274
  - # 9
    frequency:    39.8486487815
  - # 10
    frequency:    39.8688355068
  - # 11
    frequency:    43.2039296334
  - # 12
    frequency:    43.2249900873

- q-position: [   -0.4444444,    0.3333333,    0.3750000 ]
  weight: 8    
  band:
  - # 1
    frequency:    13.0030299818
  - # 2
    frequency:    13.6501550130
  - # 3
    frequency:    19.3865234628
  - # 4
    frequency:    19.4727748554
  - # 5
    frequency:    20.2719730658
  - # 6
    frequency:    20.5583181977
  - # 7
    frequency:    33.9909549178
  - # 8
    frequency:    34.0337842180
  - # 9
    frequency:    42.4082427533
  - # 10
    frequency:    42.4371720815
  - # 11
    frequency:    43.3732242643
  - # 12
    frequency:    43.4480218871

- q-position: [   -0.3333333,    0.3333333,    0.3750000 ]
  weight: 4    
  band:
  - # 1
    frequency:    11.1884509963
  - # 2
    frequency:    12.0549837716
  - # 3
    frequency:    15.4145823981
  - # 4
    frequency:    15.5989604266
  - # 5
    frequency:    21.5607369382
  - # 6
    frequency:    22.0841139820
  - # 7
    frequency:    30.5305807286
  - # 8
    frequency:    30.5824112224
  - # 9
    frequency:    42.9782936574
  - # 10
    frequency:    43.0814361781
  - # 11
    frequency:    44.7925392089
  - # 12
    frequency:    44.9202168794

- q-position: [   -0.5555556,    0.4444444,    0.3750000 ]
  weight: 4    
  band:
  - # 1
    frequency:    14.9150952638
  - # 2
    frequency:    15.1889897409
  - # 3
    frequency:    18.8414782535
  - # 4
    frequency:    18.9371075338
  - # 5
    frequency:    20.9700755815
  - # 6
    frequency:    20.9790037952
  - # 7
    frequency:    39.2779814804
  - # 8
    frequency:    39.2818133067
  - # 9
    frequency:    39.4358639961
  - # 10
    frequency:    39.4887533326
  - # 11
    frequency:    42.3780969367
  - # 12
    frequency:    42.3883800696

- q-position: [   -0.4444444,    0.4444444,    0.3750000 ]
  weight: 4    
  band:
  - # 1
    frequency:    14.1331790492
  - # 2
    frequency:    14.5623373370
  - # 3
    frequency:    18.3147213385
  - # 4
    frequency:    18.3662800409
  - # 5
    frequency:    19.4968583005
  - # 6
    frequency:    19.6652247297
  - # 7
    frequency:    37.4660788624
  - # 8
    frequency:    37.5190561726
  - # 9
    frequency:    41.8276317895
  - # 10
    frequency:    41.8478766007
  - # 11
    frequency:    42.1727293027
  - # 12
    frequency:    42.2363086027

