# Thermal properties / unit cell (natom)

unit:
  temperature:   K
  free_energy:   kJ/mol
  entropy:       J/K/mol
  heat_capacity: J/K/mol

natom:     4
num_modes: 3888
num_integrated_modes: 2444

zero_point_energy:      20.5473259
high_T_entropy:        186.1073792

thermal_properties:
- temperature:         0.0000000
  free_energy:        20.5473259
  entropy:             0.0000000
  heat_capacity:       0.0000000
  energy:             20.5473259

- temperature:        10.0000000
  free_energy:        20.5473213
  entropy:             0.0036947
  heat_capacity:       0.0229032
  energy:             20.5473582

- temperature:        20.0000000
  free_energy:        20.5469690
  entropy:             0.0886476
  heat_capacity:       0.3034464
  energy:             20.5487419

- temperature:        30.0000000
  free_energy:        20.5451000
  entropy:             0.3074281
  heat_capacity:       0.8561663
  energy:             20.5543229

- temperature:        40.0000000
  free_energy:        20.5403817
  entropy:             0.6575926
  heat_capacity:       1.6535479
  energy:             20.5666854

- temperature:        50.0000000
  free_energy:        20.5315404
  entropy:             1.1298684
  heat_capacity:       2.6426849
  energy:             20.5880338

- temperature:        60.0000000
  free_energy:        20.5174276
  entropy:             1.7091509
  heat_capacity:       3.7641863
  energy:             20.6199767

- temperature:        70.0000000
  free_energy:        20.4970528
  entropy:             2.3799647
  heat_capacity:       4.9867237
  energy:             20.6636503

- temperature:        80.0000000
  free_energy:        20.4695611
  entropy:             3.1311344
  heat_capacity:       6.3119744
  energy:             20.7200518

- temperature:        90.0000000
  free_energy:        20.4341824
  entropy:             3.9567416
  heat_capacity:       7.7568498
  energy:             20.7902891

- temperature:       100.0000000
  free_energy:        20.3901860
  entropy:             4.8544701
  heat_capacity:       9.3344838
  energy:             20.8756330

- temperature:       110.0000000
  free_energy:        20.3368559
  entropy:             5.8233244
  heat_capacity:      11.0444344
  energy:             20.9774215

- temperature:       120.0000000
  free_energy:        20.2734870
  entropy:             6.8618941
  heat_capacity:      12.8718019
  energy:             21.0969143

- temperature:       130.0000000
  free_energy:        20.1993945
  entropy:             7.9674650
  heat_capacity:      14.7911992
  energy:             21.2351649

- temperature:       140.0000000
  free_energy:        20.1139282
  entropy:             9.1358193
  heat_capacity:      16.7719875
  energy:             21.3929429

- temperature:       150.0000000
  free_energy:        20.0164871
  entropy:            10.3614491
  heat_capacity:      18.7827892
  energy:             21.5707044

- temperature:       160.0000000
  free_energy:        19.9065296
  entropy:            11.6379497
  heat_capacity:      20.7945924
  energy:             21.7686016

- temperature:       170.0000000
  free_energy:        19.7835814
  entropy:            12.9584388
  heat_capacity:      22.7824817
  energy:             21.9865160

- temperature:       180.0000000
  free_energy:        19.6472376
  entropy:            14.3159237
  heat_capacity:      24.7263117
  energy:             22.2241038

- temperature:       190.0000000
  free_energy:        19.4971624
  entropy:            15.7035851
  heat_capacity:      26.6106814
  energy:             22.4808436

- temperature:       200.0000000
  free_energy:        19.3330868
  entropy:            17.1149755
  heat_capacity:      28.4245097
  energy:             22.7560819

- temperature:       210.0000000
  free_energy:        19.1548037
  entropy:            18.5441430
  heat_capacity:      30.1604248
  energy:             23.0490737

- temperature:       220.0000000
  free_energy:        18.9621627
  entropy:            19.9856967
  heat_capacity:      31.8141046
  energy:             23.3590160

- temperature:       230.0000000
  free_energy:        18.7550646
  entropy:            21.4348286
  heat_capacity:      33.3836483
  energy:             23.6850752

- temperature:       240.0000000
  free_energy:        18.5334551
  entropy:            22.8873049
  heat_capacity:      34.8690168
  energy:             24.0264082

- temperature:       250.0000000
  free_energy:        18.2973197
  entropy:            24.3394385
  heat_capacity:      36.2715596
  energy:             24.3821793

- temperature:       260.0000000
  free_energy:        18.0466781
  entropy:            25.7880500
  heat_capacity:      37.5936247
  energy:             24.7515711

- temperature:       270.0000000
  free_energy:        17.7815795
  entropy:            27.2304226
  heat_capacity:      38.8382484
  energy:             25.1337936

- temperature:       280.0000000
  free_energy:        17.5020982
  entropy:            28.6642548
  heat_capacity:      40.0089118
  energy:             25.5280895

- temperature:       290.0000000
  free_energy:        17.2083294
  entropy:            30.0876152
  heat_capacity:      41.1093536
  energy:             25.9337378

- temperature:       300.0000000
  free_energy:        16.9003861
  entropy:            31.4988974
  heat_capacity:      42.1434303
  energy:             26.3500554

- temperature:       310.0000000
  free_energy:        16.5783961
  entropy:            32.8967805
  heat_capacity:      43.1150119
  energy:             26.7763981

- temperature:       320.0000000
  free_energy:        16.2424988
  entropy:            34.2801912
  heat_capacity:      44.0279075
  energy:             27.2121600

- temperature:       330.0000000
  free_energy:        15.8928434
  entropy:            35.6482713
  heat_capacity:      44.8858130
  energy:             27.6567729

- temperature:       340.0000000
  free_energy:        15.5295867
  entropy:            37.0003472
  heat_capacity:      45.6922758
  energy:             28.1097048

- temperature:       350.0000000
  free_energy:        15.1528915
  entropy:            38.3359049
  heat_capacity:      46.4506732
  energy:             28.5704582

- temperature:       360.0000000
  free_energy:        14.7629250
  entropy:            39.6545659
  heat_capacity:      47.1641999
  energy:             29.0385687

- temperature:       370.0000000
  free_energy:        14.3598574
  entropy:            40.9560683
  heat_capacity:      47.8358627
  energy:             29.5136027

- temperature:       380.0000000
  free_energy:        13.9438614
  entropy:            42.2402486
  heat_capacity:      48.4684808
  energy:             29.9951558

- temperature:       390.0000000
  free_energy:        13.5151105
  entropy:            43.5070270
  heat_capacity:      49.0646892
  energy:             30.4828510

- temperature:       400.0000000
  free_energy:        13.0737789
  entropy:            44.7563940
  heat_capacity:      49.6269452
  energy:             30.9763365

- temperature:       410.0000000
  free_energy:        12.6200405
  entropy:            45.9883997
  heat_capacity:      50.1575358
  energy:             31.4752844

- temperature:       420.0000000
  free_energy:        12.1540684
  entropy:            47.2031436
  heat_capacity:      50.6585868
  energy:             31.9793887

- temperature:       430.0000000
  free_energy:        11.6760347
  entropy:            48.4007664
  heat_capacity:      51.1320720
  energy:             32.4883642

- temperature:       440.0000000
  free_energy:        11.1861096
  entropy:            49.5814428
  heat_capacity:      51.5798229
  energy:             33.0019444

- temperature:       450.0000000
  free_energy:        10.6844616
  entropy:            50.7453754
  heat_capacity:      52.0035378
  energy:             33.5198806

- temperature:       460.0000000
  free_energy:        10.1712571
  entropy:            51.8927895
  heat_capacity:      52.4047914
  energy:             34.0419403

- temperature:       470.0000000
  free_energy:         9.6466601
  entropy:            53.0239283
  heat_capacity:      52.7850431
  energy:             34.5679064

- temperature:       480.0000000
  free_energy:         9.1108320
  entropy:            54.1390494
  heat_capacity:      53.1456460
  energy:             35.0975757

- temperature:       490.0000000
  free_energy:         8.5639316
  entropy:            55.2384213
  heat_capacity:      53.4878546
  energy:             35.6307580

- temperature:       500.0000000
  free_energy:         8.0061151
  entropy:            56.3223205
  heat_capacity:      53.8128322
  energy:             36.1672754

- temperature:       510.0000000
  free_energy:         7.4375358
  entropy:            57.3910294
  heat_capacity:      54.1216577
  energy:             36.7069608

- temperature:       520.0000000
  free_energy:         6.8583442
  entropy:            58.4448343
  heat_capacity:      54.4153326
  energy:             37.2496580

- temperature:       530.0000000
  free_energy:         6.2686879
  entropy:            59.4840231
  heat_capacity:      54.6947865
  energy:             37.7952201

- temperature:       540.0000000
  free_energy:         5.6687115
  entropy:            60.5088847
  heat_capacity:      54.9608828
  energy:             38.3435092

- temperature:       550.0000000
  free_energy:         5.0585570
  entropy:            61.5197072
  heat_capacity:      55.2144239
  energy:             38.8943959

- temperature:       560.0000000
  free_energy:         4.4383632
  entropy:            62.5167771
  heat_capacity:      55.4561561
  energy:             39.4477583

- temperature:       570.0000000
  free_energy:         3.8082663
  entropy:            63.5003784
  heat_capacity:      55.6867735
  energy:             40.0034820

- temperature:       580.0000000
  free_energy:         3.1683996
  entropy:            64.4707920
  heat_capacity:      55.9069222
  energy:             40.5614589

- temperature:       590.0000000
  free_energy:         2.5188935
  entropy:            65.4282950
  heat_capacity:      56.1172044
  energy:             41.1215875

- temperature:       600.0000000
  free_energy:         1.8598758
  entropy:            66.3731603
  heat_capacity:      56.3181811
  energy:             41.6837720

- temperature:       610.0000000
  free_energy:         1.1914715
  entropy:            67.3056563
  heat_capacity:      56.5103756
  energy:             42.2479219

- temperature:       620.0000000
  free_energy:         0.5138030
  entropy:            68.2260465
  heat_capacity:      56.6942765
  energy:             42.8139519

- temperature:       630.0000000
  free_energy:        -0.1730099
  entropy:            69.1345892
  heat_capacity:      56.8703398
  energy:             43.3817813

- temperature:       640.0000000
  free_energy:        -0.8688501
  entropy:            70.0315376
  heat_capacity:      57.0389919
  energy:             43.9513340

- temperature:       650.0000000
  free_energy:        -1.5736028
  entropy:            70.9171394
  heat_capacity:      57.2006315
  energy:             44.5225378

- temperature:       660.0000000
  free_energy:        -2.2871559
  entropy:            71.7916369
  heat_capacity:      57.3556316
  energy:             45.0953245

- temperature:       670.0000000
  free_energy:        -3.0093994
  entropy:            72.6552668
  heat_capacity:      57.5043415
  energy:             45.6696294

- temperature:       680.0000000
  free_energy:        -3.7402258
  entropy:            73.5082606
  heat_capacity:      57.6470886
  energy:             46.2453914

- temperature:       690.0000000
  free_energy:        -4.4795299
  entropy:            74.3508438
  heat_capacity:      57.7841797
  energy:             46.8225524

- temperature:       700.0000000
  free_energy:        -5.2272087
  entropy:            75.1832368
  heat_capacity:      57.9159029
  energy:             47.4010571

- temperature:       710.0000000
  free_energy:        -5.9831613
  entropy:            76.0056546
  heat_capacity:      58.0425284
  energy:             47.9808534

- temperature:       720.0000000
  free_energy:        -6.7472892
  entropy:            76.8183066
  heat_capacity:      58.1643101
  energy:             48.5618915

- temperature:       730.0000000
  free_energy:        -7.5194956
  entropy:            77.6213971
  heat_capacity:      58.2814868
  energy:             49.1441243

- temperature:       740.0000000
  free_energy:        -8.2996859
  entropy:            78.4151252
  heat_capacity:      58.3942830
  energy:             49.7275067

- temperature:       750.0000000
  free_energy:        -9.0877676
  entropy:            79.1996848
  heat_capacity:      58.5029100
  energy:             50.3119960

- temperature:       760.0000000
  free_energy:        -9.8836497
  entropy:            79.9752649
  heat_capacity:      58.6075667
  energy:             50.8975516

- temperature:       770.0000000
  free_energy:       -10.6872435
  entropy:            80.7420497
  heat_capacity:      58.7084408
  energy:             51.4841348

- temperature:       780.0000000
  free_energy:       -11.4984620
  entropy:            81.5002185
  heat_capacity:      58.8057090
  energy:             52.0717084

- temperature:       790.0000000
  free_energy:       -12.3172198
  entropy:            82.2499459
  heat_capacity:      58.8995381
  energy:             52.6602375

- temperature:       800.0000000
  free_energy:       -13.1434333
  entropy:            82.9914020
  heat_capacity:      58.9900855
  energy:             53.2496883

- temperature:       810.0000000
  free_energy:       -13.9770208
  entropy:            83.7247525
  heat_capacity:      59.0775000
  energy:             53.8400287

- temperature:       820.0000000
  free_energy:       -14.8179019
  entropy:            84.4501588
  heat_capacity:      59.1619220
  energy:             54.4312283

- temperature:       830.0000000
  free_energy:       -15.6659980
  entropy:            85.1677779
  heat_capacity:      59.2434846
  energy:             55.0232577

- temperature:       840.0000000
  free_energy:       -16.5212320
  entropy:            85.8777630
  heat_capacity:      59.3223132
  energy:             55.6160889

- temperature:       850.0000000
  free_energy:       -17.3835283
  entropy:            86.5802630
  heat_capacity:      59.3985270
  energy:             56.2096952

- temperature:       860.0000000
  free_energy:       -18.2528128
  entropy:            87.2754231
  heat_capacity:      59.4722387
  energy:             56.8040511

- temperature:       870.0000000
  free_energy:       -19.1290128
  entropy:            87.9633848
  heat_capacity:      59.5435550
  energy:             57.3991320

- temperature:       880.0000000
  free_energy:       -20.0120570
  entropy:            88.6442858
  heat_capacity:      59.6125771
  energy:             57.9949145

- temperature:       890.0000000
  free_energy:       -20.9018754
  entropy:            89.3182602
  heat_capacity:      59.6794010
  energy:             58.5913762

- temperature:       900.0000000
  free_energy:       -21.7983995
  entropy:            89.9854389
  heat_capacity:      59.7441179
  energy:             59.1884955

- temperature:       910.0000000
  free_energy:       -22.7015620
  entropy:            90.6459492
  heat_capacity:      59.8068143
  energy:             59.7862518

- temperature:       920.0000000
  free_energy:       -23.6112967
  entropy:            91.2999153
  heat_capacity:      59.8675724
  energy:             60.3846254

- temperature:       930.0000000
  free_energy:       -24.5275389
  entropy:            91.9474580
  heat_capacity:      59.9264702
  energy:             60.9835971

- temperature:       940.0000000
  free_energy:       -25.4502248
  entropy:            92.5886954
  heat_capacity:      59.9835821
  energy:             61.5831488

- temperature:       950.0000000
  free_energy:       -26.3792921
  entropy:            93.2237422
  heat_capacity:      60.0389785
  energy:             62.1832630

- temperature:       960.0000000
  free_energy:       -27.3146794
  entropy:            93.8527107
  heat_capacity:      60.0927269
  energy:             62.7839229

- temperature:       970.0000000
  free_energy:       -28.2563264
  entropy:            94.4757100
  heat_capacity:      60.1448911
  energy:             63.3851123

- temperature:       980.0000000
  free_energy:       -29.2041741
  entropy:            95.0928466
  heat_capacity:      60.1955321
  energy:             63.9868156

- temperature:       990.0000000
  free_energy:       -30.1581642
  entropy:            95.7042244
  heat_capacity:      60.2447080
  energy:             64.5890180

- temperature:      1000.0000000
  free_energy:       -31.1182397
  entropy:            96.3099448
  heat_capacity:      60.2924742
  energy:             65.1917051
