# Thermal properties / unit cell (natom)

unit:
  temperature:   K
  free_energy:   kJ/mol
  entropy:       J/K/mol
  heat_capacity: J/K/mol

natom:     4
num_modes: 3888
num_integrated_modes: 3862

zero_point_energy:      66.8870315
high_T_entropy:        224.3467749

thermal_properties:
- temperature:         0.0000000
  free_energy:        66.8870315
  entropy:             0.0000000
  heat_capacity:       0.0000000
  energy:             66.8870315

- temperature:        10.0000000
  free_energy:        66.8869964
  entropy:             0.0152407
  heat_capacity:       0.0405823
  energy:             66.8871488

- temperature:        20.0000000
  free_energy:        66.8866267
  entropy:             0.0585964
  heat_capacity:       0.0839132
  energy:             66.8877986

- temperature:        30.0000000
  free_energy:        66.8858308
  entropy:             0.1012192
  heat_capacity:       0.1373255
  energy:             66.8888674

- temperature:        40.0000000
  free_energy:        66.8845665
  entropy:             0.1544036
  heat_capacity:       0.2488113
  energy:             66.8907426

- temperature:        50.0000000
  free_energy:        66.8826740
  entropy:             0.2280762
  heat_capacity:       0.4306295
  energy:             66.8940779

- temperature:        60.0000000
  free_energy:        66.8799159
  entropy:             0.3284447
  heat_capacity:       0.6928456
  energy:             66.8996226

- temperature:        70.0000000
  free_energy:        66.8759987
  entropy:             0.4607661
  heat_capacity:       1.0503719
  energy:             66.9082523

- temperature:        80.0000000
  free_energy:        66.8705764
  entropy:             0.6303382
  heat_capacity:       1.5198755
  energy:             66.9210035

- temperature:        90.0000000
  free_energy:        66.8632500
  entropy:             0.8424833
  heat_capacity:       2.1163179
  energy:             66.9390734

- temperature:       100.0000000
  free_energy:        66.8535681
  entropy:             1.1022019
  heat_capacity:       2.8500718
  energy:             66.9637883

- temperature:       110.0000000
  free_energy:        66.8410330
  entropy:             1.4137564
  heat_capacity:       3.7249811
  energy:             66.9965462

- temperature:       120.0000000
  free_energy:        66.8251094
  entropy:             1.7803253
  heat_capacity:       4.7378515
  energy:             67.0387485

- temperature:       130.0000000
  free_energy:        66.8052366
  entropy:             2.2038131
  heat_capacity:       5.8792968
  energy:             67.0917323

- temperature:       140.0000000
  free_energy:        66.7808413
  entropy:             2.6848262
  heat_capacity:       7.1354216
  energy:             67.1567170

- temperature:       150.0000000
  free_energy:        66.7513502
  entropy:             3.2227867
  heat_capacity:       8.4897451
  energy:             67.2347682

- temperature:       160.0000000
  free_energy:        66.7162009
  entropy:             3.8161281
  heat_capacity:       9.9249392
  energy:             67.3267814

- temperature:       170.0000000
  free_energy:        66.6748507
  entropy:             4.4625267
  heat_capacity:      11.4241612
  energy:             67.4334802

- temperature:       180.0000000
  free_energy:        66.6267830
  entropy:             5.1591292
  heat_capacity:      12.9719318
  energy:             67.5554262

- temperature:       190.0000000
  free_energy:        66.5715113
  entropy:             5.9027561
  heat_capacity:      14.5546086
  energy:             67.6930350

- temperature:       200.0000000
  free_energy:        66.5085822
  entropy:             6.6900675
  heat_capacity:      16.1605475
  energy:             67.8465957

- temperature:       210.0000000
  free_energy:        66.4375756
  entropy:             7.5176921
  heat_capacity:      17.7800522
  energy:             68.0162910

- temperature:       220.0000000
  free_energy:        66.3581050
  entropy:             8.3823197
  heat_capacity:      19.4051962
  energy:             68.2022154

- temperature:       230.0000000
  free_energy:        66.2698165
  entropy:             9.2807639
  heat_capacity:      21.0295844
  energy:             68.4043922

- temperature:       240.0000000
  free_energy:        66.1723871
  entropy:            10.2100010
  heat_capacity:      22.6480982
  energy:             68.6227874

- temperature:       250.0000000
  free_energy:        66.0655233
  entropy:            11.1671902
  heat_capacity:      24.2566541
  energy:             68.8573209

- temperature:       260.0000000
  free_energy:        65.9489590
  entropy:            12.1496819
  heat_capacity:      25.8519889
  energy:             69.1078763

- temperature:       270.0000000
  free_energy:        65.8224536
  entropy:            13.1550157
  heat_capacity:      27.4314801
  energy:             69.3743078

- temperature:       280.0000000
  free_energy:        65.6857902
  entropy:            14.1809135
  heat_capacity:      28.9929997
  energy:             69.6564460

- temperature:       290.0000000
  free_energy:        65.5387738
  entropy:            15.2252698
  heat_capacity:      30.5348005
  energy:             69.9541020

- temperature:       300.0000000
  free_energy:        65.3812298
  entropy:            16.2861388
  heat_capacity:      32.0554294
  energy:             70.2670714

- temperature:       310.0000000
  free_energy:        65.2130020
  entropy:            17.3617225
  heat_capacity:      33.5536638
  energy:             70.5951360

- temperature:       320.0000000
  free_energy:        65.0339518
  entropy:            18.4503585
  heat_capacity:      35.0284642
  energy:             70.9380665

- temperature:       330.0000000
  free_energy:        64.8439565
  entropy:            19.5505082
  heat_capacity:      36.4789425
  energy:             71.2956242

- temperature:       340.0000000
  free_energy:        64.6429080
  entropy:            20.6607462
  heat_capacity:      37.9043384
  energy:             71.6675618

- temperature:       350.0000000
  free_energy:        64.4307123
  entropy:            21.7797509
  heat_capacity:      39.3040043
  energy:             72.0536252

- temperature:       360.0000000
  free_energy:        64.2072879
  entropy:            22.9062954
  heat_capacity:      40.6773940
  energy:             72.4535542

- temperature:       370.0000000
  free_energy:        63.9725651
  entropy:            24.0392401
  heat_capacity:      42.0240556
  energy:             72.8670839

- temperature:       380.0000000
  free_energy:        63.7264853
  entropy:            25.1775257
  heat_capacity:      43.3436254
  energy:             73.2939450

- temperature:       390.0000000
  free_energy:        63.4690001
  entropy:            26.3201670
  heat_capacity:      44.6358240
  energy:             73.7338652

- temperature:       400.0000000
  free_energy:        63.2000705
  entropy:            27.4662478
  heat_capacity:      45.9004519
  energy:             74.1865696

- temperature:       410.0000000
  free_energy:        62.9196665
  entropy:            28.6149156
  heat_capacity:      47.1373859
  energy:             74.6517819

- temperature:       420.0000000
  free_energy:        62.6277662
  entropy:            29.7653777
  heat_capacity:      48.3465751
  energy:             75.1292248

- temperature:       430.0000000
  free_energy:        62.3243554
  entropy:            30.9168966
  heat_capacity:      49.5280372
  energy:             75.6186210

- temperature:       440.0000000
  free_energy:        62.0094270
  entropy:            32.0687872
  heat_capacity:      50.6818539
  energy:             76.1196934

- temperature:       450.0000000
  free_energy:        61.6829806
  entropy:            33.2204129
  heat_capacity:      51.8081665
  energy:             76.6321664

- temperature:       460.0000000
  free_energy:        61.3450216
  entropy:            34.3711828
  heat_capacity:      52.9071719
  energy:             77.1557657

- temperature:       470.0000000
  free_energy:        60.9955616
  entropy:            35.5205490
  heat_capacity:      53.9791170
  energy:             77.6902196

- temperature:       480.0000000
  free_energy:        60.6346170
  entropy:            36.6680037
  heat_capacity:      55.0242952
  energy:             78.2352588

- temperature:       490.0000000
  free_energy:        60.2622095
  entropy:            37.8130774
  heat_capacity:      56.0430407
  energy:             78.7906174

- temperature:       500.0000000
  free_energy:        59.8783649
  entropy:            38.9553358
  heat_capacity:      57.0357246
  energy:             79.3560328

- temperature:       510.0000000
  free_energy:        59.4831135
  entropy:            40.0943782
  heat_capacity:      58.0027503
  energy:             79.9312464

- temperature:       520.0000000
  free_energy:        59.0764893
  entropy:            41.2298354
  heat_capacity:      58.9445493
  energy:             80.5160037

- temperature:       530.0000000
  free_energy:        58.6585298
  entropy:            42.3613678
  heat_capacity:      59.8615773
  energy:             81.1100548

- temperature:       540.0000000
  free_energy:        58.2292760
  entropy:            43.4886634
  heat_capacity:      60.7543101
  energy:             81.7131542

- temperature:       550.0000000
  free_energy:        57.7887717
  entropy:            44.6114363
  heat_capacity:      61.6232405
  energy:             82.3250616

- temperature:       560.0000000
  free_energy:        57.3370633
  entropy:            45.7294253
  heat_capacity:      62.4688745
  energy:             82.9455414

- temperature:       570.0000000
  free_energy:        56.8741999
  entropy:            46.8423917
  heat_capacity:      63.2917287
  energy:             83.5743632

- temperature:       580.0000000
  free_energy:        56.4002329
  entropy:            47.9501188
  heat_capacity:      64.0923273
  energy:             84.2113018

- temperature:       590.0000000
  free_energy:        55.9152156
  entropy:            49.0524096
  heat_capacity:      64.8711997
  energy:             84.8561373

- temperature:       600.0000000
  free_energy:        55.4192034
  entropy:            50.1490862
  heat_capacity:      65.6288779
  energy:             85.5086551

- temperature:       610.0000000
  free_energy:        54.9122532
  entropy:            51.2399882
  heat_capacity:      66.3658951
  energy:             86.1686460

- temperature:       620.0000000
  free_energy:        54.3944234
  entropy:            52.3249719
  heat_capacity:      67.0827829
  energy:             86.8359059

- temperature:       630.0000000
  free_energy:        53.8657739
  entropy:            53.4039086
  heat_capacity:      67.7800706
  energy:             87.5102363

- temperature:       640.0000000
  free_energy:        53.3263657
  entropy:            54.4766844
  heat_capacity:      68.4582831
  energy:             88.1914438

- temperature:       650.0000000
  free_energy:        52.7762611
  entropy:            55.5431985
  heat_capacity:      69.1179399
  energy:             88.8793401

- temperature:       660.0000000
  free_energy:        52.2155229
  entropy:            56.6033629
  heat_capacity:      69.7595543
  energy:             89.5737424

- temperature:       670.0000000
  free_energy:        51.6442152
  entropy:            57.6571008
  heat_capacity:      70.3836317
  energy:             90.2744728

- temperature:       680.0000000
  free_energy:        51.0624026
  entropy:            58.7043466
  heat_capacity:      70.9906695
  energy:             90.9813583

- temperature:       690.0000000
  free_energy:        50.4701501
  entropy:            59.7450447
  heat_capacity:      71.5811561
  energy:             91.6942310

- temperature:       700.0000000
  free_energy:        49.8675237
  entropy:            60.7791488
  heat_capacity:      72.1555704
  energy:             92.4129278

- temperature:       710.0000000
  free_energy:        49.2545893
  entropy:            61.8066213
  heat_capacity:      72.7143815
  energy:             93.1372904

- temperature:       720.0000000
  free_energy:        48.6314134
  entropy:            62.8274327
  heat_capacity:      73.2580478
  energy:             93.8671650

- temperature:       730.0000000
  free_energy:        47.9980629
  entropy:            63.8415609
  heat_capacity:      73.7870174
  energy:             94.6024023

- temperature:       740.0000000
  free_energy:        47.3546045
  entropy:            64.8489909
  heat_capacity:      74.3017276
  energy:             95.3428578

- temperature:       750.0000000
  free_energy:        46.7011054
  entropy:            65.8497138
  heat_capacity:      74.8026046
  energy:             96.0883908

- temperature:       760.0000000
  free_energy:        46.0376326
  entropy:            66.8437270
  heat_capacity:      75.2900637
  energy:             96.8388651

- temperature:       770.0000000
  free_energy:        45.3642532
  entropy:            67.8310330
  heat_capacity:      75.7645089
  energy:             97.5941487

- temperature:       780.0000000
  free_energy:        44.6810343
  entropy:            68.8116397
  heat_capacity:      76.2263335
  energy:             98.3541133

- temperature:       790.0000000
  free_energy:        43.9880427
  entropy:            69.7855593
  heat_capacity:      76.6759195
  energy:             99.1186346

- temperature:       800.0000000
  free_energy:        43.2853454
  entropy:            70.7528084
  heat_capacity:      77.1136382
  energy:             99.8875921

- temperature:       810.0000000
  free_energy:        42.5730087
  entropy:            71.7134077
  heat_capacity:      77.5398501
  energy:            100.6608690

- temperature:       820.0000000
  free_energy:        41.8510993
  entropy:            72.6673812
  heat_capacity:      77.9549049
  energy:            101.4383519

- temperature:       830.0000000
  free_energy:        41.1196831
  entropy:            73.6147565
  heat_capacity:      78.3591421
  energy:            102.2199310

- temperature:       840.0000000
  free_energy:        40.3788261
  entropy:            74.5555640
  heat_capacity:      78.7528906
  energy:            103.0054998

- temperature:       850.0000000
  free_energy:        39.6285936
  entropy:            75.4898368
  heat_capacity:      79.1364695
  energy:            103.7949549

- temperature:       860.0000000
  free_energy:        38.8690510
  entropy:            76.4176108
  heat_capacity:      79.5101878
  energy:            104.5881963

- temperature:       870.0000000
  free_energy:        38.1002629
  entropy:            77.3389240
  heat_capacity:      79.8743450
  energy:            105.3851268

- temperature:       880.0000000
  free_energy:        37.3222939
  entropy:            78.2538164
  heat_capacity:      80.2292311
  energy:            106.1856523

- temperature:       890.0000000
  free_energy:        36.5352079
  entropy:            79.1623299
  heat_capacity:      80.5751269
  energy:            106.9896815

- temperature:       900.0000000
  free_energy:        35.7390684
  entropy:            80.0645082
  heat_capacity:      80.9123042
  energy:            107.7971258

- temperature:       910.0000000
  free_energy:        34.9339387
  entropy:            80.9603964
  heat_capacity:      81.2410261
  energy:            108.6078994

- temperature:       920.0000000
  free_energy:        34.1198813
  entropy:            81.8500409
  heat_capacity:      81.5615473
  energy:            109.4219190

- temperature:       930.0000000
  free_energy:        33.2969585
  entropy:            82.7334896
  heat_capacity:      81.8741142
  energy:            110.2391038

- temperature:       940.0000000
  free_energy:        32.4652320
  entropy:            83.6107910
  heat_capacity:      82.1789652
  energy:            111.0593755

- temperature:       950.0000000
  free_energy:        31.6247630
  entropy:            84.4819949
  heat_capacity:      82.4763308
  energy:            111.8826582

- temperature:       960.0000000
  free_energy:        30.7756123
  entropy:            85.3471517
  heat_capacity:      82.7664343
  energy:            112.7088779

- temperature:       970.0000000
  free_energy:        29.9178400
  entropy:            86.2063128
  heat_capacity:      83.0494913
  energy:            113.5379634

- temperature:       980.0000000
  free_energy:        29.0515058
  entropy:            87.0595298
  heat_capacity:      83.3257107
  energy:            114.3698450

- temperature:       990.0000000
  free_energy:        28.1766690
  entropy:            87.9068550
  heat_capacity:      83.5952943
  energy:            115.2044554

- temperature:      1000.0000000
  free_energy:        27.2933882
  entropy:            88.7483412
  heat_capacity:      83.8584373
  energy:            116.0417294
