  32  32   0   0
  0.9079817E+01  0.4932875E-09  0.4932875E-09  0.1379404E-08  0.5000000E-15
  1.000000000000000E-004
  CAR 
 graphite                                
     15.08014223    -17.16832992  301      4.43541706      1.00000000
    -17.168  0.0000E+00  0.0000E+00
    -17.061  0.0000E+00  0.0000E+00
    -16.953  0.0000E+00  0.0000E+00
    -16.846  0.0000E+00  0.0000E+00
    -16.738  0.0000E+00  0.0000E+00
    -16.631  0.0000E+00  0.0000E+00
    -16.523  0.0000E+00  0.0000E+00
    -16.416  0.0000E+00  0.0000E+00
    -16.308  0.0000E+00  0.0000E+00
    -16.201  0.0000E+00  0.0000E+00
    -16.093  0.0000E+00  0.0000E+00
    -15.986  0.0000E+00  0.0000E+00
    -15.878  0.0000E+00  0.0000E+00
    -15.771  0.0000E+00  0.0000E+00
    -15.663  0.0000E+00  0.0000E+00
    -15.556  0.0000E+00  0.0000E+00
    -15.448  0.0000E+00  0.0000E+00
    -15.341  0.0000E+00  0.0000E+00
    -15.233  0.0000E+00  0.0000E+00
    -15.126  0.3677E+00  0.5985E-02
    -15.018  0.2681E+01  0.1554E+00
    -14.911  0.3914E+01  0.4998E+00
    -14.803  0.5169E+01  0.1004E+01
    -14.696  0.4857E+01  0.1523E+01
    -14.588  0.5099E+01  0.2063E+01
    -14.481  0.5012E+01  0.2608E+01
    -14.373  0.4825E+01  0.3137E+01
    -14.266  0.4845E+01  0.3653E+01
    -14.158  0.5078E+01  0.4187E+01
    -14.051  0.5312E+01  0.4745E+01
    -13.943  0.7228E+01  0.5415E+01
    -13.836  0.7820E+01  0.6229E+01
    -13.728  0.6093E+01  0.7066E+01
    -13.621  0.2454E+01  0.7492E+01
    -13.514  0.1871E+01  0.7713E+01
    -13.406  0.2129E+01  0.7924E+01
    -13.299  0.2501E+01  0.8173E+01
    -13.191  0.2898E+01  0.8462E+01
    -13.084  0.8615E+01  0.8958E+01
    -12.976  0.9059E+01  0.1004E+02
    -12.869  0.7033E+01  0.1095E+02
    -12.761  0.4006E+01  0.1144E+02
    -12.654  0.4109E+01  0.1188E+02
    -12.546  0.4213E+01  0.1233E+02
    -12.439  0.4349E+01  0.1279E+02
    -12.331  0.4485E+01  0.1326E+02
    -12.224  0.4611E+01  0.1375E+02
    -12.116  0.4737E+01  0.1425E+02
    -12.009  0.5470E+01  0.1480E+02
    -11.901  0.6329E+01  0.1542E+02
    -11.794  0.6105E+01  0.1611E+02
    -11.686  0.5633E+01  0.1674E+02
    -11.579  0.5429E+01  0.1733E+02
    -11.471  0.5593E+01  0.1792E+02
    -11.364  0.5756E+01  0.1853E+02
    -11.256  0.5920E+01  0.1916E+02
    -11.149  0.5935E+01  0.1980E+02
    -11.041  0.5587E+01  0.2042E+02
    -10.934  0.5368E+01  0.2100E+02
    -10.826  0.5308E+01  0.2158E+02
    -10.719  0.4144E+01  0.2209E+02
    -10.611  0.4447E+01  0.2254E+02
    -10.504  0.4994E+01  0.2305E+02
    -10.396  0.5174E+01  0.2360E+02
    -10.289  0.5354E+01  0.2416E+02
    -10.181  0.8174E+01  0.2489E+02
    -10.074  0.1097E+02  0.2601E+02
     -9.966  0.8681E+01  0.2706E+02
     -9.859  0.6390E+01  0.2787E+02
     -9.751  0.4758E+01  0.2846E+02
     -9.644  0.4299E+01  0.2894E+02
     -9.536  0.3840E+01  0.2938E+02
     -9.429  0.4433E+01  0.2977E+02
     -9.321  0.6602E+01  0.3053E+02
     -9.214  0.2001E+01  0.3093E+02
     -9.106  0.1799E+01  0.3114E+02
     -8.999  0.1597E+01  0.3132E+02
     -8.891  0.1395E+01  0.3148E+02
     -8.784  0.1207E+01  0.3162E+02
     -8.676  0.1612E+01  0.3177E+02
     -8.569  0.2109E+01  0.3197E+02
     -8.461  0.2607E+01  0.3222E+02
     -8.354  0.3657E+01  0.3254E+02
     -8.246  0.8181E+01  0.3316E+02
     -8.139  0.8159E+01  0.3422E+02
     -8.031  0.4663E+01  0.3482E+02
     -7.924  0.5805E+01  0.3538E+02
     -7.816  0.6948E+01  0.3606E+02
     -7.709  0.8090E+01  0.3687E+02
     -7.601  0.9233E+01  0.3780E+02
     -7.494  0.8285E+01  0.3881E+02
     -7.386  0.5593E+01  0.3953E+02
     -7.279  0.5578E+01  0.4012E+02
     -7.171  0.5627E+01  0.4073E+02
     -7.064  0.5477E+01  0.4132E+02
     -6.956  0.5320E+01  0.4190E+02
     -6.849  0.5155E+01  0.4247E+02
     -6.741  0.5036E+01  0.4301E+02
     -6.634  0.4918E+01  0.4355E+02
     -6.526  0.4799E+01  0.4407E+02
     -6.419  0.4681E+01  0.4458E+02
     -6.311  0.4562E+01  0.4508E+02
     -6.204  0.4444E+01  0.4556E+02
     -6.096  0.4378E+01  0.4603E+02
     -5.989  0.4954E+01  0.4653E+02
     -5.881  0.5536E+01  0.4710E+02
     -5.774  0.6118E+01  0.4772E+02
     -5.666  0.6700E+01  0.4841E+02
     -5.559  0.7282E+01  0.4916E+02
     -5.451  0.7864E+01  0.4998E+02
     -5.344  0.8446E+01  0.5085E+02
     -5.236  0.9028E+01  0.5179E+02
     -5.129  0.3831E+01  0.5246E+02
     -5.021  0.6214E+01  0.5296E+02
     -4.914  0.6723E+01  0.5372E+02
     -4.806  0.5285E+01  0.5436E+02
     -4.699  0.3848E+01  0.5485E+02
     -4.591  0.2411E+01  0.5519E+02
     -4.484  0.1075E+01  0.5537E+02
     -4.376  0.2244E+01  0.5554E+02
     -4.269  0.3701E+01  0.5586E+02
     -4.161  0.5158E+01  0.5633E+02
     -4.054  0.8172E+01  0.5699E+02
     -3.946  0.1139E+02  0.5811E+02
     -3.839  0.1092E+02  0.5930E+02
     -3.731  0.1374E+02  0.6060E+02
     -3.624  0.7884E+01  0.6177E+02
     -3.516  0.4786E+01  0.6237E+02
     -3.409  0.5806E+01  0.6293E+02
     -3.301  0.6833E+01  0.6362E+02
     -3.194  0.1099E+02  0.6454E+02
     -3.086  0.1636E+02  0.6599E+02
     -2.979  0.2351E+02  0.6823E+02
     -2.872  0.6676E+01  0.6923E+02
     -2.764  0.6904E+01  0.6996E+02
     -2.657  0.7227E+01  0.7072E+02
     -2.549  0.7956E+01  0.7152E+02
     -2.442  0.1112E+02  0.7252E+02
     -2.334  0.1616E+02  0.7418E+02
     -2.227  0.1272E+02  0.7573E+02
     -2.119  0.1216E+02  0.7693E+02
     -2.012  0.1945E+02  0.7852E+02
     -1.904  0.1462E+02  0.8158E+02
     -1.797  0.2107E+02  0.8357E+02
     -1.689  0.1321E+02  0.8523E+02
     -1.582  0.1494E+02  0.8673E+02
     -1.474  0.1441E+02  0.8842E+02
     -1.367  0.8438E+01  0.8959E+02
     -1.259  0.6745E+01  0.9036E+02
     -1.152  0.7737E+01  0.9114E+02
     -1.044  0.8513E+01  0.9202E+02
     -0.937  0.9712E+01  0.9299E+02
     -0.829  0.1065E+02  0.9410E+02
     -0.722  0.1030E+02  0.9523E+02
     -0.614  0.1102E+02  0.9638E+02
     -0.507  0.1146E+02  0.9816E+02
     -0.399  0.1134E+02  0.9938E+02
     -0.292  0.1209E+02  0.1006E+03
     -0.184  0.1073E+02  0.1019E+03
     -0.077  0.1023E+02  0.1030E+03
      0.031  0.9965E+01  0.1041E+03
      0.138  0.9675E+01  0.1051E+03
      0.246  0.9581E+01  0.1061E+03
      0.353  0.9620E+01  0.1072E+03
      0.461  0.9356E+01  0.1082E+03
      0.568  0.9118E+01  0.1092E+03
      0.676  0.9014E+01  0.1102E+03
      0.783  0.9388E+01  0.1111E+03
      0.891  0.9569E+01  0.1122E+03
      0.998  0.9696E+01  0.1132E+03
      1.106  0.1135E+02  0.1143E+03
      1.213  0.1036E+02  0.1155E+03
      1.321  0.8969E+01  0.1165E+03
      1.428  0.7212E+01  0.1174E+03
      1.536  0.6171E+01  0.1181E+03
      1.643  0.5668E+01  0.1187E+03
      1.751  0.3982E+01  0.1193E+03
      1.858  0.3250E+01  0.1196E+03
      1.966  0.2800E+01  0.1200E+03
      2.073  0.4325E+01  0.1203E+03
      2.181  0.6428E+01  0.1209E+03
      2.288  0.9539E+01  0.1217E+03
      2.396  0.9081E+01  0.1228E+03
      2.503  0.7467E+01  0.1237E+03
      2.611  0.6504E+01  0.1244E+03
      2.718  0.4999E+01  0.1250E+03
      2.826  0.3997E+01  0.1255E+03
      2.933  0.3385E+01  0.1259E+03
      3.041  0.3042E+01  0.1263E+03
      3.148  0.2685E+01  0.1266E+03
      3.256  0.2337E+01  0.1268E+03
      3.363  0.2032E+01  0.1271E+03
      3.471  0.1730E+01  0.1273E+03
      3.578  0.1435E+01  0.1274E+03
      3.686  0.1220E+01  0.1276E+03
      3.793  0.1004E+01  0.1277E+03
      3.901  0.7887E+00  0.1278E+03
      4.008  0.5965E+00  0.1279E+03
      4.116  0.4265E+00  0.1279E+03
      4.223  0.2702E+00  0.1280E+03
      4.331  0.1259E+00  0.1280E+03
      4.438  0.9580E-04  0.1280E+03
      4.546  0.1050E+00  0.1280E+03
      4.653  0.2279E+00  0.1280E+03
      4.761  0.3646E+00  0.1281E+03
      4.868  0.5167E+00  0.1281E+03
      4.976  0.6909E+00  0.1282E+03
      5.083  0.9054E+00  0.1283E+03
      5.191  0.1135E+01  0.1284E+03
      5.298  0.1366E+01  0.1285E+03
      5.406  0.1596E+01  0.1287E+03
      5.513  0.1827E+01  0.1288E+03
      5.621  0.3009E+01  0.1291E+03
      5.728  0.3719E+01  0.1295E+03
      5.836  0.3894E+01  0.1299E+03
      5.943  0.5369E+01  0.1304E+03
      6.051  0.9506E+01  0.1312E+03
      6.158  0.1133E+02  0.1324E+03
      6.266  0.8535E+01  0.1335E+03
      6.373  0.6798E+01  0.1343E+03
      6.481  0.6130E+01  0.1350E+03
      6.588  0.5702E+01  0.1356E+03
      6.696  0.5375E+01  0.1362E+03
      6.803  0.4712E+01  0.1368E+03
      6.911  0.4183E+01  0.1372E+03
      7.018  0.3774E+01  0.1377E+03
      7.126  0.3742E+01  0.1381E+03
      7.233  0.4034E+01  0.1385E+03
      7.341  0.4496E+01  0.1389E+03
      7.448  0.4818E+01  0.1394E+03
      7.555  0.4791E+01  0.1400E+03
      7.663  0.4646E+01  0.1405E+03
      7.770  0.4491E+01  0.1410E+03
      7.878  0.4313E+01  0.1414E+03
      7.985  0.4190E+01  0.1419E+03
      8.093  0.4106E+01  0.1423E+03
      8.200  0.4048E+01  0.1428E+03
      8.308  0.4002E+01  0.1432E+03
      8.415  0.3968E+01  0.1436E+03
      8.523  0.3946E+01  0.1441E+03
      8.630  0.3893E+01  0.1445E+03
      8.738  0.3988E+01  0.1449E+03
      8.845  0.3959E+01  0.1453E+03
      8.953  0.3842E+01  0.1458E+03
      9.060  0.3824E+01  0.1462E+03
      9.168  0.3777E+01  0.1466E+03
      9.275  0.3818E+01  0.1470E+03
      9.383  0.3835E+01  0.1474E+03
      9.490  0.3857E+01  0.1478E+03
      9.598  0.3878E+01  0.1482E+03
      9.705  0.3901E+01  0.1486E+03
      9.813  0.3921E+01  0.1491E+03
      9.920  0.3951E+01  0.1495E+03
     10.028  0.4342E+01  0.1499E+03
     10.135  0.6194E+01  0.1505E+03
     10.243  0.5919E+01  0.1511E+03
     10.350  0.5605E+01  0.1518E+03
     10.458  0.5442E+01  0.1524E+03
     10.565  0.5561E+01  0.1529E+03
     10.673  0.6479E+01  0.1535E+03
     10.780  0.4750E+01  0.1542E+03
     10.888  0.2848E+01  0.1546E+03
     10.995  0.2605E+01  0.1549E+03
     11.103  0.3410E+01  0.1552E+03
     11.210  0.3662E+01  0.1556E+03
     11.318  0.3138E+01  0.1560E+03
     11.425  0.3026E+01  0.1563E+03
     11.533  0.3118E+01  0.1566E+03
     11.640  0.3638E+01  0.1570E+03
     11.748  0.6839E+01  0.1575E+03
     11.855  0.6948E+01  0.1583E+03
     11.963  0.8930E+01  0.1591E+03
     12.070  0.1120E+02  0.1602E+03
     12.178  0.1303E+02  0.1615E+03
     12.285  0.1332E+02  0.1629E+03
     12.393  0.1378E+02  0.1644E+03
     12.500  0.1341E+02  0.1659E+03
     12.608  0.1022E+02  0.1672E+03
     12.715  0.2818E+01  0.1679E+03
     12.823  0.1288E+00  0.1680E+03
     12.930  0.4370E-01  0.1680E+03
     13.038  0.3497E-02  0.1680E+03
     13.145  0.0000E+00  0.1680E+03
     13.253  0.0000E+00  0.1680E+03
     13.360  0.0000E+00  0.1680E+03
     13.468  0.0000E+00  0.1680E+03
     13.575  0.0000E+00  0.1680E+03
     13.683  0.0000E+00  0.1680E+03
     13.790  0.0000E+00  0.1680E+03
     13.898  0.0000E+00  0.1680E+03
     14.005  0.0000E+00  0.1680E+03
     14.113  0.0000E+00  0.1680E+03
     14.220  0.0000E+00  0.1680E+03
     14.328  0.0000E+00  0.1680E+03
     14.435  0.0000E+00  0.1680E+03
     14.543  0.0000E+00  0.1680E+03
     14.650  0.0000E+00  0.1680E+03
     14.758  0.0000E+00  0.1680E+03
     14.865  0.0000E+00  0.1680E+03
     14.973  0.0000E+00  0.1680E+03
     15.080  0.0000E+00  0.1680E+03
