   32   32    1    1
  0.9079817E+01  0.4932875E-09  0.4932875E-09  0.1379404E-08  0.5000000E-15
  1.000000000000000E-004
  CAR 
 graphite                                
    128     76     84
 
  0.0000000E+00  0.0000000E+00  0.0000000E+00  0.6944444E-02
    1      -15.168330
    2      -15.050979
    3      -15.050613
    4      -14.926603
    5       -9.862616
    6       -9.852071
    7       -9.849734
    8       -9.816301
    9       -9.814619
   10       -9.804591
   11       -9.803036
   12       -9.802997
   13       -9.799376
   14       -9.774588
   15       -9.762243
   16       -9.759132
   17       -8.793237
   18       -8.791873
   19       -8.790144
   20       -8.766386
   21       -8.765735
   22       -8.763727
   23       -8.763028
   24       -8.762985
   25       -8.760740
   26       -8.724649
   27       -8.724097
   28       -8.722116
   29       -3.952737
   30       -3.179250
   31       -3.177833
   32       -2.247929
   33       -1.967253
   34       -1.965058
   35       -1.949824
   36       -1.946112
   37       -1.945593
   38       -1.945584
   39       -1.941819
   40       -1.929156
   41       -1.926844
   42       -1.924573
   43       -1.921850
   44       -1.906570
   45        1.424926
   46        1.430902
   47        1.431160
   48        1.435491
   49        1.442664
   50        1.446994
   51        1.447140
   52        1.452845
   53        1.740473
   54        1.743596
   55        1.745192
   56        2.075712
   57        2.078896
   58        2.085746
   59        2.086132
   60        2.086342
   61        2.090532
   62        2.321845
   63        2.338418
   64        2.340950
   65        5.942528
   66        5.945545
   67        5.950571
   68        6.094226
   69        6.096030
   70        6.098281
   71        6.100582
   72        6.100793
   73        6.103093
   74        6.546722
   75        6.553648
   76        6.556126
   77        8.525591
   78       10.951044
   79       10.954755
   80       11.667405
   81       11.671231
   82       11.703041
   83       11.826923
   84       11.827829
 
  0.1666667E+00  0.0000000E+00  0.0000000E+00  0.1388889E-01
    1      -15.002955
    2      -14.886755
    3      -14.886395
    4      -14.763709
    5      -11.154629
    6      -11.066442
    7      -11.066129
    8      -10.974459
    9      -10.285045
   10      -10.277776
   11      -10.207980
   12      -10.207269
   13      -10.200229
   14      -10.199477
   15      -10.128065
   16      -10.120198
   17       -8.165298
   18       -8.159231
   19       -8.104453
   20       -8.102526
   21       -8.097364
   22       -8.096713
   23       -8.037942
   24       -8.031589
   25       -7.320930
   26       -7.258325
   27       -7.256838
   28       -7.192087
   29       -3.752099
   30       -2.983512
   31       -2.982096
   32       -2.457319
   33       -2.440720
   34       -2.430978
   35       -2.430825
   36       -2.415078
   37       -2.413044
   38       -2.404147
   39       -2.387380
   40       -2.059037
   41       -1.802834
   42       -1.783294
   43       -1.780598
   44       -1.760813
   45        0.676293
   46        0.775234
   47        0.787364
   48        0.791291
   49        0.802630
   50        1.087094
   51        1.096274
   52        1.100404
   53        1.111146
   54        1.238838
   55        1.241086
   56        1.524818
   57        1.529407
   58        1.849336
   59        1.968532
   60        1.971505
   61        1.977254
   62        1.978510
   63        2.383956
   64        2.396459
   65        6.145113
   66        6.147599
   67        6.375006
   68        6.377982
   69        6.380749
   70        6.383257
   71        6.825376
   72        6.832153
   73        6.852124
   74        7.198791
   75        7.202108
   76        7.709954
   77        8.727933
   78       11.131966
   79       11.135575
   80       11.758906
   81       11.910467
   82       11.911759
   83       12.061491
   84       12.411686
 
  0.3333333E+00  0.0000000E+00  0.0000000E+00  0.1388889E-01
    1      -14.508586
    2      -14.395893
    3      -14.395552
    4      -14.276789
    5      -12.562914
    6      -12.463912
    7      -12.463618
    8      -12.360075
    9      -10.706260
   10      -10.702611
   11      -10.621920
   12      -10.621296
   13      -10.618076
   14      -10.617050
   15      -10.533452
   16      -10.529646
   17       -6.992518
   18       -6.983442
   19       -6.936192
   20       -6.934228
   21       -6.926486
   22       -6.925537
   23       -6.875989
   24       -6.867043
   25       -5.207543
   26       -5.156391
   27       -5.154644
   28       -5.102272
   29       -3.612526
   30       -3.598467
   31       -3.577868
   32       -3.577423
   33       -3.564410
   34       -3.562359
   35       -3.541547
   36       -3.527326
   37       -3.154604
   38       -2.401461
   39       -2.400054
   40       -1.498642
   41       -1.329018
   42       -1.310421
   43       -1.307517
   44       -1.288633
   45       -0.875840
   46       -0.859029
   47       -0.849410
   48       -0.848222
   49       -0.824636
   50       -0.184568
   51       -0.182923
   52        0.289344
   53        0.303063
   54        0.306996
   55        0.321395
   56        0.601351
   57        1.230760
   58        1.234117
   59        1.780258
   60        1.783094
   61        1.786062
   62        1.787122
   63        2.380436
   64        2.386790
   65        6.668262
   66        6.671477
   67        6.950575
   68        6.952554
   69        6.955226
   70        6.958297
   71        7.310266
   72        7.313850
   73        9.005872
   74        9.330073
   75        9.340924
   76        9.345264
   77        9.772893
   78       11.660558
   79       11.663727
   80       11.681087
   81       12.056370
   82       12.136774
   83       12.138524
   84       12.383357
 
  0.5000000E+00  0.0000000E+00  0.0000000E+00  0.6944444E-02
    1      -13.692548
    2      -13.689808
    3      -13.586736
    4      -13.584124
    5      -13.584099
    6      -13.581214
    7      -13.472898
    8      -13.470098
    9      -10.854521
   10      -10.852855
   11      -10.768810
   12      -10.767360
   13      -10.767333
   14      -10.765390
   15      -10.678293
   16      -10.676561
   17       -6.086191
   18       -6.084546
   19       -6.055655
   20       -6.055645
   21       -6.055056
   22       -6.051137
   23       -6.025844
   24       -6.023324
   25       -4.501235
   26       -4.499456
   27       -4.482051
   28       -4.479548
   29       -4.478455
   30       -4.478446
   31       -4.455682
   32       -4.454651
   33       -2.990652
   34       -2.987210
   35       -2.954385
   36       -2.949163
   37       -2.949146
   38       -2.948590
   39       -2.912209
   40       -2.909662
   41       -2.177265
   42       -2.175051
   43       -1.453535
   44       -1.451386
   45       -1.451302
   46       -1.448112
   47       -0.595929
   48       -0.592656
   49       -0.591561
   50       -0.588995
   51       -0.578324
   52       -0.577022
   53       -0.577011
   54       -0.570078
   55       -0.559255
   56       -0.551607
   57        1.114566
   58        1.116515
   59        1.696254
   60        1.699649
   61        1.699991
   62        1.701275
   63        2.355720
   64        2.358084
   65        7.001103
   66        7.003435
   67        7.255875
   68        7.256784
   69        7.257172
   70        7.261824
   71        7.514120
   72        7.516844
   73       10.343899
   74       10.344756
   75       11.427063
   76       11.430628
   77       11.602804
   78       11.608685
   79       11.610264
   80       11.614191
   81       11.959866
   82       11.963205
   83       12.346008
   84       12.347892
 
  0.0000000E+00  0.1666667E+00  0.0000000E+00  0.1388889E-01
    1      -15.002951
    2      -14.886753
    3      -14.886388
    4      -14.763705
    5      -11.154641
    6      -11.066451
    7      -11.066158
    8      -10.974485
    9      -10.285144
   10      -10.277545
   11      -10.208195
   12      -10.207276
   13      -10.200222
   14      -10.198869
   15      -10.128101
   16      -10.119906
   17       -8.165636
   18       -8.160114
   19       -8.104463
   20       -8.103791
   21       -8.097604
   22       -8.097317
   23       -8.038190
   24       -8.032256
   25       -7.320033
   26       -7.256869
   27       -7.256555
   28       -7.191240
   29       -3.752109
   30       -2.983522
   31       -2.982109
   32       -2.456199
   33       -2.440551
   34       -2.430963
   35       -2.428536
   36       -2.415074
   37       -2.413044
   38       -2.402916
   39       -2.387404
   40       -2.059051
   41       -1.803877
   42       -1.783302
   43       -1.783015
   44       -1.762279
   45        0.675733
   46        0.778772
   47        0.791295
   48        0.791593
   49        0.804262
   50        1.085618
   51        1.096261
   52        1.096394
   53        1.106920
   54        1.238523
   55        1.239933
   56        1.524908
   57        1.530305
   58        1.848375
   59        1.968926
   60        1.971464
   61        1.977415
   62        1.980371
   63        2.384082
   64        2.397722
   65        6.143412
   66        6.147178
   67        6.374656
   68        6.376286
   69        6.380263
   70        6.381726
   71        6.824902
   72        6.830558
   73        6.853900
   74        7.201143
   75        7.202735
   76        7.711351
   77        8.727924
   78       11.131926
   79       11.135535
   80       11.758294
   81       11.910265
   82       11.910703
   83       12.060842
   84       12.411079
 
  0.1666667E+00  0.1666667E+00  0.0000000E+00  0.1388889E-01
    1      -14.672840
    2      -14.558986
    3      -14.558639
    4      -14.438555
    5      -11.775694
    6      -11.772822
    7      -11.683567
    8      -11.680883
    9      -11.680857
   10      -11.677778
   11      -11.584816
   12      -11.581874
   13       -9.437720
   14       -9.393211
   15       -9.391969
   16       -9.353621
   17       -8.388722
   18       -8.366346
   19       -8.362991
   20       -8.329510
   21       -6.212872
   22       -6.209430
   23       -6.157889
   24       -6.154047
   25       -6.154023
   26       -6.151207
   27       -6.097579
   28       -6.094266
   29       -3.784383
   30       -3.748622
   31       -3.746752
   32       -3.709931
   33       -3.352679
   34       -2.594267
   35       -2.592857
   36       -2.129359
   37       -2.126831
   38       -2.104811
   39       -2.103268
   40       -2.103259
   41       -2.099290
   42       -2.078400
   43       -2.075203
   44       -1.683981
   45       -0.258871
   46       -0.246856
   47       -0.242917
   48       -0.232443
   49        0.038041
   50        0.039997
   51        0.410338
   52        0.417523
   53        0.421504
   54        0.431391
   55        0.663713
   56        0.665826
   57        0.665943
   58        0.669062
   59        1.379715
   60        1.382159
   61        2.339851
   62        2.673680
   63        2.676431
   64        2.909443
   65        5.854837
   66        5.880372
   67        5.884863
   68        6.135154
   69        7.807903
   70        7.810532
   71        8.150144
   72        8.153799
   73        8.154057
   74        8.155914
   75        8.589589
   76        8.592109
   77        9.134872
   78       11.495832
   79       11.499220
   80       12.521400
   81       12.524851
   82       12.716366
   83       12.720316
   84       12.725018
 
  0.3333333E+00  0.1666667E+00  0.0000000E+00  0.1388889E-01
    1      -14.016703
    2      -13.907470
    3      -13.907151
    4      -13.792270
    5      -13.045128
    6      -12.942760
    7      -12.942444
    8      -12.835138
    9      -12.090729
   10      -11.995183
   11      -11.994787
   12      -11.895039
   13       -9.417802
   14       -9.347190
   15       -9.346828
   16       -9.274674
   17       -7.526170
   18       -7.479970
   19       -7.477236
   20       -7.429461
   21       -5.218633
   22       -5.183305
   23       -5.181309
   24       -5.143169
   25       -5.054887
   26       -5.014967
   27       -5.013350
   28       -4.973031
   29       -4.073022
   30       -4.031033
   31       -4.029320
   32       -3.986474
   33       -3.028703
   34       -3.001984
   35       -3.000574
   36       -2.972432
   37       -2.563611
   38       -1.985507
   39       -1.961413
   40       -1.957826
   41       -1.931826
   42       -1.826086
   43       -1.824415
   44       -1.489934
   45       -1.468544
   46       -1.465938
   47       -1.444055
   48       -1.411719
   49       -0.947735
   50       -0.713672
   51       -0.712202
   52       -0.594027
   53       -0.579061
   54       -0.574734
   55       -0.558729
   56       -0.295823
   57        0.110151
   58        0.358133
   59        0.359498
   60        1.118613
   61        2.639684
   62        3.082282
   63        3.084701
   64        3.504555
   65        5.545606
   66        5.737059
   67        5.740603
   68        6.009419
   69        8.610976
   70        8.868234
   71        8.870232
   72        9.143432
   73        9.947782
   74       10.098780
   75       10.360540
   76       10.362903
   77       10.686175
   78       11.152862
   79       12.163442
   80       12.169442
   81       12.346590
   82       12.360411
   83       12.554054
   84       12.561183
 
  0.5000000E+00  0.1666667E+00  0.0000000E+00  0.1388889E-01
    1      -14.017899
    2      -13.908669
    3      -13.908337
    4      -13.793459
    5      -13.043445
    6      -12.941072
    7      -12.940770
    8      -12.833461
    9      -12.091937
   10      -11.996408
   11      -11.996004
   12      -11.896265
   13       -9.414939
   14       -9.344035
   15       -9.343817
   16       -9.271311
   17       -7.521503
   18       -7.474399
   19       -7.473358
   20       -7.424774
   21       -5.226838
   22       -5.191076
   23       -5.190508
   24       -5.151900
   25       -5.064248
   26       -5.024671
   27       -5.021705
   28       -4.981684
   29       -4.076704
   30       -4.035059
   31       -4.032655
   32       -3.990163
   33       -3.017629
   34       -2.991334
   35       -2.988376
   36       -2.960740
   37       -2.564902
   38       -1.983413
   39       -1.958686
   40       -1.956957
   41       -1.930140
   42       -1.827332
   43       -1.825683
   44       -1.486487
   45       -1.465442
   46       -1.462037
   47       -1.440434
   48       -1.409995
   49       -0.949001
   50       -0.712011
   51       -0.710474
   52       -0.595818
   53       -0.580209
   54       -0.577812
   55       -0.561608
   56       -0.297101
   57        0.111799
   58        0.356672
   59        0.358105
   60        1.116918
   61        2.640879
   62        3.086189
   63        3.087746
   64        3.512402
   65        5.542671
   66        5.737606
   67        5.739623
   68        6.009080
   69        8.607218
   70        8.864872
   71        8.867486
   72        9.142073
   73        9.946077
   74       10.099075
   75       10.359179
   76       10.362054
   77       10.683863
   78       11.155216
   79       12.162897
   80       12.168815
   81       12.344395
   82       12.358821
   83       12.552518
   84       12.559545
 
 -0.3333333E+00  0.1666667E+00  0.0000000E+00  0.1388889E-01
    1      -14.673555
    2      -14.559704
    3      -14.559346
    4      -14.439265
    5      -11.777861
    6      -11.772066
    7      -11.684642
    8      -11.684258
    9      -11.678783
   10      -11.678502
   11      -11.587113
   12      -11.581272
   13       -9.427135
   14       -9.381172
   15       -9.380932
   16       -9.341075
   17       -8.389174
   18       -8.364753
   19       -8.364527
   20       -8.329023
   21       -6.220748
   22       -6.215125
   23       -6.164982
   24       -6.162830
   25       -6.159244
   26       -6.157546
   27       -6.105532
   28       -6.100152
   29       -3.797860
   30       -3.761369
   31       -3.761097
   32       -3.723525
   33       -3.353473
   34       -2.595050
   35       -2.593651
   36       -2.124866
   37       -2.111906
   38       -2.100909
   39       -2.098075
   40       -2.087723
   41       -2.085305
   42       -2.073719
   43       -2.060848
   44       -1.684765
   45       -0.263395
   46       -0.250658
   47       -0.250464
   48       -0.238330
   49        0.035146
   50        0.041227
   51        0.416588
   52        0.425144
   53        0.425251
   54        0.434581
   55        0.660834
   56        0.662375
   57        0.667400
   58        0.669317
   59        1.375456
   60        1.382972
   61        2.342303
   62        2.682388
   63        2.683840
   64        2.925521
   65        5.848938
   66        5.882151
   67        5.883762
   68        6.138314
   69        7.804379
   70        7.807668
   71        8.146188
   72        8.149272
   73        8.149693
   74        8.152701
   75        8.586391
   76        8.587523
   77        9.133814
   78       11.494717
   79       11.498103
   80       12.522319
   81       12.542633
   82       12.718829
   83       12.723437
   84       12.740109
 
 -0.1666667E+00  0.1666667E+00  0.0000000E+00  0.1388889E-01
    1      -15.003190
    2      -14.886991
    3      -14.886623
    4      -14.763941
    5      -11.160940
    6      -11.072805
    7      -11.072509
    8      -10.980909
    9      -10.276408
   10      -10.274475
   11      -10.199523
   12      -10.197890
   13      -10.197859
   14      -10.195467
   15      -10.119001
   16      -10.116887
   17       -8.163541
   18       -8.161722
   19       -8.102740
   20       -8.100192
   21       -8.100171
   22       -8.099253
   23       -8.035916
   24       -8.034236
   25       -7.327330
   26       -7.264955
   27       -7.262965
   28       -7.198428
   29       -3.752376
   30       -2.983787
   31       -2.982377
   32       -2.456851
   33       -2.454845
   34       -2.430956
   35       -2.430130
   36       -2.430120
   37       -2.426463
   38       -2.403946
   39       -2.401330
   40       -2.059317
   41       -1.786826
   42       -1.767083
   43       -1.764828
   44       -1.744989
   45        0.670195
   46        0.767426
   47        0.778594
   48        0.783005
   49        0.795520
   50        1.094380
   51        1.105121
   52        1.109099
   53        1.118164
   54        1.231617
   55        1.233413
   56        1.530368
   57        1.532171
   58        1.839526
   59        1.977606
   60        1.978516
   61        1.978724
   62        1.982691
   63        2.396383
   64        2.398889
   65        6.142891
   66        6.145914
   67        6.375049
   68        6.379927
   69        6.380139
   70        6.381299
   71        6.827752
   72        6.830267
   73        6.850944
   74        7.194674
   75        7.198129
   76        7.705344
   77        8.727558
   78       11.131521
   79       11.135131
   80       11.791191
   81       11.942902
   82       11.944040
   83       12.093552
   84       12.401482
 
  0.2710505E-19  0.3333333E+00  0.0000000E+00  0.1388889E-01
    1      -14.508570
    2      -14.395884
    3      -14.395527
    4      -14.276772
    5      -12.562878
    6      -12.463893
    7      -12.463566
    8      -12.360040
    9      -10.706586
   10      -10.702355
   11      -10.622696
   12      -10.621312
   13      -10.618072
   14      -10.616258
   15      -10.533700
   16      -10.529327
   17       -6.993023
   18       -6.984347
   19       -6.936205
   20       -6.935665
   21       -6.926620
   22       -6.926430
   23       -6.876382
   24       -6.867736
   25       -5.206521
   26       -5.154667
   27       -5.154394
   28       -5.101314
   29       -3.611381
   30       -3.598157
   31       -3.577427
   32       -3.575522
   33       -3.563842
   34       -3.562357
   35       -3.540260
   36       -3.527078
   37       -3.154648
   38       -2.401503
   39       -2.400113
   40       -1.498704
   41       -1.330166
   42       -1.310431
   43       -1.310210
   44       -1.290304
   45       -0.873602
   46       -0.858912
   47       -0.848219
   48       -0.846437
   49       -0.823018
   50       -0.184764
   51       -0.183372
   52        0.287892
   53        0.303053
   54        0.303271
   55        0.318565
   56        0.600935
   57        1.230798
   58        1.234952
   59        1.780585
   60        1.783019
   61        1.786130
   62        1.788882
   63        2.380675
   64        2.387823
   65        6.667128
   66        6.670588
   67        6.949148
   68        6.951002
   69        6.955223
   70        6.957119
   71        7.308841
   72        7.313044
   73        9.007031
   74        9.330788
   75        9.340964
   76        9.346458
   77        9.773855
   78       11.660398
   79       11.663555
   80       11.680928
   81       12.055687
   82       12.136525
   83       12.137245
   84       12.382700
 
  0.1666667E+00  0.3333333E+00  0.0000000E+00  0.1388889E-01
    1      -14.016690
    2      -13.907461
    3      -13.907130
    4      -13.792254
    5      -13.045093
    6      -12.942744
    7      -12.942386
    8      -12.835100
    9      -12.090774
   10      -11.995197
   11      -11.994864
   12      -11.895085
   13       -9.417739
   14       -9.347074
   15       -9.346810
   16       -9.274602
   17       -7.526513
   18       -7.479975
   19       -7.478062
   20       -7.429962
   21       -5.218193
   22       -5.182566
   23       -5.181305
   24       -5.142852
   25       -5.056215
   26       -5.016063
   27       -5.014969
   28       -4.974429
   29       -4.071682
   30       -4.029320
   31       -4.028404
   32       -3.985175
   33       -3.027113
   34       -3.000569
   35       -2.998824
   36       -2.970827
   37       -2.563647
   38       -1.984261
   39       -1.959623
   40       -1.957821
   41       -1.931110
   42       -1.826113
   43       -1.824453
   44       -1.491369
   45       -1.469069
   46       -1.468548
   47       -1.445821
   48       -1.411925
   49       -0.947785
   50       -0.713881
   51       -0.712496
   52       -0.594691
   53       -0.579065
   54       -0.576726
   55       -0.560559
   56       -0.295518
   57        0.109841
   58        0.358456
   59        0.359901
   60        1.119068
   61        2.640130
   62        3.083093
   63        3.084820
   64        3.504966
   65        5.545320
   66        5.736974
   67        5.739324
   68        6.008414
   69        8.609857
   70        8.867320
   71        8.868883
   72        9.142233
   73        9.947788
   74       10.099832
   75       10.361549
   76       10.363804
   77       10.687179
   78       11.152815
   79       12.163107
   80       12.169194
   81       12.346889
   82       12.360480
   83       12.554558
   84       12.561644
 
  0.3333333E+00  0.3333333E+00  0.0000000E+00  0.1388889E-01
    1      -13.209268
    2      -13.206635
    3      -13.204138
    4      -13.107253
    5      -13.104026
    6      -13.103999
    7      -13.102530
    8      -13.101117
    9      -13.098748
   10      -12.996780
   11      -12.994195
   12      -12.991617
   13       -8.201282
   14       -8.132576
   15       -8.130776
   16       -8.124676
   17       -8.122585
   18       -8.118499
   19       -8.116336
   20       -8.049975
   21       -6.081156
   22       -6.080928
   23       -6.078348
   24       -6.077641
   25       -3.316531
   26       -3.313004
   27       -3.311423
   28       -3.296243
   29       -3.291807
   30       -3.291785
   31       -3.291265
   32       -3.290838
   33       -3.286365
   34       -3.272379
   35       -3.270432
   36       -3.266641
   37       -1.957966
   38       -1.953713
   39       -1.951334
   40       -1.943261
   41       -1.940371
   42       -1.938693
   43       -1.937802
   44       -1.937791
   45       -1.933328
   46       -1.923670
   47       -1.922326
   48       -1.917187
   49       -1.600807
   50       -1.598668
   51       -1.596090
   52       -0.896146
   53       -0.892871
   54       -0.892725
   55       -0.891505
   56       -0.890165
   57       -0.887404
   58       -0.059241
   59       -0.056914
   60       -0.054207
   61        3.899037
   62        4.421906
   63        4.429093
   64        4.433232
   65        4.435552
   66        4.450806
   67        4.452199
   68        5.042603
   69       10.611984
   70       10.615211
   71       10.618868
   72       10.805799
   73       10.811954
   74       10.812141
   75       10.812975
   76       10.813847
   77       10.815378
   78       10.960481
   79       10.961347
   80       10.964806
   81       11.016535
   82       11.019689
   83       11.024688
   84       13.080142
 
  0.5000000E+00  0.3333333E+00  0.0000000E+00  0.1388889E-01
    1      -14.018596
    2      -13.909378
    3      -13.909023
    4      -13.794154
    5      -13.046982
    6      -12.944659
    7      -12.944245
    8      -12.836984
    9      -12.086931
   10      -11.991344
   11      -11.991062
   12      -11.891245
   13       -9.407600
   14       -9.336818
   15       -9.336436
   16       -9.264090
   17       -7.529825
   18       -7.483000
   19       -7.482362
   20       -7.434036
   21       -5.225109
   22       -5.189661
   23       -5.188671
   24       -5.150359
   25       -5.062654
   26       -5.023249
   27       -5.020772
   28       -4.981015
   29       -4.083520
   30       -4.041898
   31       -4.039080
   32       -3.996561
   33       -3.023203
   34       -2.997433
   35       -2.994051
   36       -2.966744
   37       -2.565732
   38       -1.992412
   39       -1.967559
   40       -1.965419
   41       -1.938596
   42       -1.828258
   43       -1.826631
   44       -1.476214
   45       -1.454859
   46       -1.451847
   47       -1.430190
   48       -1.413989
   49       -0.949883
   50       -0.716041
   51       -0.714636
   52       -0.585856
   53       -0.569936
   54       -0.567932
   55       -0.551577
   56       -0.291781
   57        0.107520
   58        0.362018
   59        0.363682
   60        1.122637
   61        2.646292
   62        3.090959
   63        3.092703
   64        3.515443
   65        5.545908
   66        5.733576
   67        5.735457
   68        5.998603
   69        8.611321
   70        8.864850
   71        8.867551
   72        9.136698
   73        9.945147
   74       10.093240
   75       10.355323
   76       10.358193
   77       10.683596
   78       11.150570
   79       12.159164
   80       12.165471
   81       12.341897
   82       12.364303
   83       12.554138
   84       12.561500
 
 -0.3333333E+00  0.3333333E+00  0.0000000E+00  0.1388889E-01
    1      -14.509521
    2      -14.396840
    3      -14.396467
    4      -14.277716
    5      -12.566719
    6      -12.467757
    7      -12.467362
    8      -12.363872
    9      -10.698974
   10      -10.697248
   11      -10.614915
   12      -10.613353
   13      -10.613325
   14      -10.611370
   15      -10.526069
   16      -10.524271
   17       -6.991634
   18       -6.989731
   19       -6.935778
   20       -6.932946
   21       -6.932933
   22       -6.932115
   23       -6.875385
   24       -6.873618
   25       -5.216527
   26       -5.165494
   27       -5.163305
   28       -5.111046
   29       -3.609899
   30       -3.608214
   31       -3.575221
   32       -3.575028
   33       -3.575005
   34       -3.571408
   35       -3.539185
   36       -3.537019
   37       -3.155709
   38       -2.402558
   39       -2.401178
   40       -1.499774
   41       -1.314129
   42       -1.295315
   43       -1.292768
   44       -1.273913
   45       -0.885298
   46       -0.864362
   47       -0.861597
   48       -0.855408
   49       -0.833874
   50       -0.189006
   51       -0.187593
   52        0.299821
   53        0.314117
   54        0.317705
   55        0.331587
   56        0.596305
   57        1.237233
   58        1.239072
   59        1.788337
   60        1.789402
   61        1.789609
   62        1.793356
   63        2.388965
   64        2.391368
   65        6.668515
   66        6.671237
   67        6.947874
   68        6.952683
   69        6.952917
   70        6.953987
   71        7.305129
   72        7.307771
   73        9.000111
   74        9.327540
   75        9.333330
   76        9.342441
   77        9.768740
   78       11.659148
   79       11.662319
   80       11.680856
   81       12.085469
   82       12.166036
   83       12.167565
   84       12.410058
 
 -0.1666667E+00  0.3333333E+00  0.0000000E+00  0.1388889E-01
    1      -14.673543
    2      -14.559699
    3      -14.559327
    4      -14.439252
    5      -11.778268
    6      -11.771768
    7      -11.685552
    8      -11.684578
    9      -11.678712
   10      -11.677341
   11      -11.587424
   12      -11.580853
   13       -9.426464
   14       -9.381147
   15       -9.379506
   16       -9.340296
   17       -8.390947
   18       -8.367553
   19       -8.364759
   20       -8.330426
   21       -6.221287
   22       -6.214023
   23       -6.164990
   24       -6.164505
   25       -6.157552
   26       -6.156097
   27       -6.105950
   28       -6.098808
   29       -3.796909
   30       -3.761354
   31       -3.759052
   32       -3.722402
   33       -3.353503
   34       -2.595082
   35       -2.593689
   36       -2.126073
   37       -2.111969
   38       -2.100917
   39       -2.100538
   40       -2.087173
   41       -2.085304
   42       -2.074872
   43       -2.060564
   44       -1.684809
   45       -0.261913
   46       -0.250644
   47       -0.246567
   48       -0.234789
   49        0.035017