 vasp.5.3.5 31Mar14 (build Nov 02 2014 15:17:37) complex                        
  
 executed on        ion-Intel-MKL date 2016.11.23  12:44:53
 running on    6 total cores
 distrk:  each k-point on    6 cores,    1 groups
 distr:  one band on NCORES_PER_BAND=   1 cores,    6 groups


--------------------------------------------------------------------------------------------------------


 INCAR:
 POTCAR:   PAW_PBE C 08Apr2002                    

 ----------------------------------------------------------------------------- 
|                                                                             |
|           W    W    AA    RRRRR   N    N  II  N    N   GGGG   !!!           |
|           W    W   A  A   R    R  NN   N  II  NN   N  G    G  !!!           |
|           W    W  A    A  R    R  N N  N  II  N N  N  G       !!!           |
|           W WW W  AAAAAA  RRRRR   N  N N  II  N  N N  G  GGG   !            |
|           WW  WW  A    A  R   R   N   NN  II  N   NN  G    G                |
|           W    W  A    A  R    R  N    N  II  N    N   GGGG   !!!           |
|                                                                             |
|      For optimal performance we recommend to set                            |
|        NCORE= 4 - approx SQRT( number of cores)                             |
|      NCORE specifies how many cores store one orbital (NPAR=cpu/NCORE).     |
|      This setting can  greatly improve the performance of VASP for DFT.     |
|      The default, NPAR=number of cores might be grossly inefficient         |
|      on modern multi-core architectures or massively parallel machines.     |
|      Do your own testing !!!!                                               |
|      Unfortunately you need to use the default for GW and RPA calculations. |
|      (for HF NCORE is supported but not extensively tested yet)             |
|                                                                             |
 ----------------------------------------------------------------------------- 

 POTCAR:   PAW_PBE C 08Apr2002                    
   VRHFIN =C: s2p2                                                              
   LEXCH  = PE                                                                  
   EATOM  =   147.1560 eV,   10.8157 Ry                                         
                                                                                
   TITEL  = PAW_PBE C 08Apr2002                                                 
   LULTRA =        F    use ultrasoft PP ?                                      
   IUNSCR =        0    unscreen: 0-lin 1-nonlin 2-no                           
   RPACOR =     .000    partial core radius                                     
   POMASS =   12.011; ZVAL   =    4.000    mass and valenz                      
   RCORE  =    1.500    outmost cutoff radius                                   
   RWIGS  =    1.630; RWIGS  =     .863    wigner-seitz radius (au A)           
   ENMAX  =  400.000; ENMIN  =  300.000 eV                                      
   ICORE  =        2    local potential                                         
   LCOR   =        T    correct aug charges                                     
   LPAW   =        T    paw PP                                                  
   EAUG   =  644.873                                                            
   DEXC   =     .000                                                            
   RMAX   =    2.266    core radius for proj-oper                               
   RAUG   =    1.300    factor for augmentation sphere                          
   RDEP   =    1.501    radius for radial grids                                 
   RDEPT  =    1.300    core radius for aug-charge                              
   QCUT   =   -5.516; QGAM   =   11.032    optimization parameters              
                                                                                
   Description                                                                  
     l     E      TYP  RCUT    TYP  RCUT                                        
     0   .000     23  1.200                                                     
     0   .000     23  1.200                                                     
     1   .000     23  1.500                                                     
     1  2.500     23  1.500                                                     
     2   .000      7  1.500                                                     
  local pseudopotential read in
  atomic valenz-charges read in
  non local Contribution for L=           0  read in
    real space projection operators read in
  non local Contribution for L=           0  read in
    real space projection operators read in
  non local Contribution for L=           1  read in
    real space projection operators read in
  non local Contribution for L=           1  read in
    real space projection operators read in
    PAW grid and wavefunctions read in
 
   number of l-projection  operators is LMAX  =           4
   number of lm-projection operators is LMMAX =           8
 

 ----------------------------------------------------------------------------- 
|                                                                             |
|  ADVICE TO THIS USER RUNNING 'VASP/VAMP'   (HEAR YOUR MASTER'S VOICE ...):  |
|                                                                             |
|      You have a (more or less) 'large supercell' and for larger cells       |
|      it might be more efficient to use real space projection operators      |
|      So try LREAL= Auto  in the INCAR   file.                               |
|      Mind: If you want to do a very accurate calculations keep the          |
|      reciprocal projection scheme          (i.e. LREAL=.FALSE.)             |
|                                                                             |
 ----------------------------------------------------------------------------- 

 PAW_PBE C 08Apr2002                    :
 energy of atom  1       EATOM= -147.1560
 kinetic energy error for atom=    0.0016 (will be added to EATOM!!)
 
 
 POSCAR: C                                       
  positions in direct lattice
  No initial velocities read in
 exchange correlation table for  LEXCH =        8
   RHO(1)=    0.500       N(1)  =     2000
   RHO(2)=  100.500       N(2)  =     4000
 


--------------------------------------------------------------------------------------------------------


 ion  position               nearest neighbor table
   1  0.500  0.000  0.125-  18 1.42  19 1.42  20 1.42
   2  1.000  0.000  0.125-  20 1.42  17 1.42  19 1.42
   3  0.500  0.500  0.125-  20 1.42  18 1.42  17 1.43
   4  1.000  0.500  0.125-  17 1.42  19 1.42  18 1.42
   5  0.500  0.000  0.625-  22 1.42  23 1.42  24 1.42
   6  1.000  0.000  0.625-  21 1.42  24 1.42  23 1.42
   7  0.500  0.500  0.625-  24 1.42  21 1.42  22 1.42
   8  1.000  0.500  0.625-  23 1.42  22 1.42  21 1.42
   9  0.000  0.500  0.375-  27 1.42  26 1.42  28 1.42
  10  0.500  0.500  0.375-  28 1.42  25 1.42  27 1.42
  11  0.000  1.000  0.375-  25 1.42  28 1.42  26 1.42
  12  0.500  1.000  0.375-  26 1.42  27 1.42  25 1.42
  13  0.000  0.500  0.875-  31 1.42  30 1.42  32 1.42
  14  0.500  0.500  0.875-  32 1.42  29 1.42  31 1.42
  15  0.000  1.000  0.875-  29 1.42  32 1.42  30 1.42
  16  0.500  1.000  0.875-  30 1.42  31 1.42  29 1.42
  17  0.166  0.334  0.124-   4 1.42   2 1.42   3 1.43
  18  0.666  0.334  0.125-   1 1.42   4 1.42   3 1.42
  19  0.166  0.834  0.125-   4 1.42   1 1.42   2 1.42
  20  0.666  0.834  0.125-   3 1.42   2 1.42   1 1.42
  21  0.166  0.334  0.625-   6 1.42   7 1.42   8 1.42
  22  0.666  0.334  0.625-   5 1.42   8 1.42   7 1.42
  23  0.166  0.834  0.625-   8 1.42   5 1.42   6 1.42
  24  0.666  0.834  0.625-   7 1.42   6 1.42   5 1.42
  25  0.334  0.166  0.375-  11 1.42  10 1.42  12 1.42
  26  0.834  0.166  0.375-  12 1.42   9 1.42  11 1.42
  27  0.334  0.666  0.375-   9 1.42  12 1.42  10 1.42
  28  0.834  0.666  0.375-  10 1.42  11 1.42   9 1.42
  29  0.334  0.166  0.875-  15 1.42  14 1.42  16 1.42
  30  0.834  0.166  0.875-  16 1.42  13 1.42  15 1.42
  31  0.334  0.666  0.875-  13 1.42  16 1.42  14 1.42
  32  0.834  0.666  0.875-  14 1.42  15 1.42  13 1.42
 
  LATTYP: Found a base centered orthorhombic cell.
 ALAT       =     4.9295501972
 B/A-ratio  =     1.7336081796
 C/A-ratio  =     2.7367202808
  
  Lattice vectors:
  
 A1 = (   4.9328744980,  -0.0019192860,   0.0000000000)
 A2 = (  -2.4680993993,   4.2710349859,   0.0000000000)
 A3 = (   0.0000000000,   0.0000000000,  13.4908000000)


Analysis of symmetry for initial positions (statically):
=====================================================================
 Subroutine PRICEL returns:
 Original cell was already a primitive cell.
 

 Routine SETGRP: Setting up the symmetry group for a 
 base centered orthorhombic supercell.


 Subroutine GETGRP returns: Found  1 space group operations
 (whereof  1 operations were pure point group operations)
 out of a pool of  8 trial point group operations.


The static configuration has the point symmetry C_1 .


Analysis of symmetry for dynamics (positions and initial velocities):
=====================================================================
 Subroutine PRICEL returns:
 Original cell was already a primitive cell.
 

 Routine SETGRP: Setting up the symmetry group for a 
 base centered orthorhombic supercell.


 Subroutine GETGRP returns: Found  1 space group operations
 (whereof  1 operations were pure point group operations)
 out of a pool of  8 trial point group operations.


The dynamic configuration has the point symmetry C_1 .
 
 
 KPOINTS: B4C B11C-CBC                            

Automatic generation of k-mesh.
Space group operators:
 irot       det(A)        alpha          n_x          n_y          n_z        tau_x        tau_y        tau_z
    1     1.000000     0.000001     1.000000     0.000000     0.000000     0.000000     0.000000     0.000000
 
 Subroutine IBZKPT returns following result:
 ===========================================
 
 Found     76 irreducible k-points:
 
 Following reciprocal coordinates:
            Coordinates               Weight
  0.000000  0.000000  0.000000      1.000000
  0.166667  0.000000  0.000000      2.000000
  0.333333  0.000000  0.000000      2.000000
  0.500000  0.000000  0.000000      1.000000
 -0.000000  0.166667  0.000000      2.000000
  0.166667  0.166667  0.000000      2.000000
  0.333333  0.166667  0.000000      2.000000
  0.500000  0.166667  0.000000      2.000000
 -0.333333  0.166667  0.000000      2.000000
 -0.166667  0.166667  0.000000      2.000000
 -0.000000  0.333333  0.000000      2.000000
  0.166667  0.333333  0.000000      2.000000
  0.333333  0.333333  0.000000      2.000000
  0.500000  0.333333  0.000000      2.000000
 -0.333333  0.333333  0.000000      2.000000
 -0.166667  0.333333  0.000000      2.000000
 -0.000000  0.500000  0.000000      1.000000
  0.166667  0.500000  0.000000      2.000000
  0.333333  0.500000  0.000000      2.000000
  0.500000  0.500000  0.000000      1.000000
  0.000000  0.000000  0.250000      2.000000
  0.166667  0.000000  0.250000      2.000000
  0.333333  0.000000  0.250000      2.000000
  0.500000  0.000000  0.250000      2.000000
 -0.333333 -0.000000  0.250000      2.000000
 -0.166667 -0.000000  0.250000      2.000000
 -0.000000  0.166667  0.250000      2.000000
  0.166667  0.166667  0.250000      2.000000
  0.333333  0.166667  0.250000      2.000000
  0.500000  0.166667  0.250000      2.000000
 -0.333333  0.166667  0.250000      2.000000
 -0.166667  0.166667  0.250000      2.000000
 -0.000000  0.333333  0.250000      2.000000
  0.166667  0.333333  0.250000      2.000000
  0.333333  0.333333  0.250000      2.000000
  0.500000  0.333333  0.250000      2.000000
 -0.333333  0.333333  0.250000      2.000000
 -0.166667  0.333333  0.250000      2.000000
 -0.000000  0.500000  0.250000      2.000000
  0.166667  0.500000  0.250000      2.000000
  0.333333  0.500000  0.250000      2.000000
  0.500000  0.500000  0.250000      2.000000
 -0.333333  0.500000  0.250000      2.000000
 -0.166667  0.500000  0.250000      2.000000
  0.000000 -0.333333  0.250000      2.000000
  0.166667 -0.333333  0.250000      2.000000
  0.333333 -0.333333  0.250000      2.000000
  0.500000 -0.333333  0.250000      2.000000
 -0.333333 -0.333333  0.250000      2.000000
 -0.166667 -0.333333  0.250000      2.000000
  0.000000 -0.166667  0.250000      2.000000
  0.166667 -0.166667  0.250000      2.000000
  0.333333 -0.166667  0.250000      2.000000
  0.500000 -0.166667  0.250000      2.000000
 -0.333333 -0.166667  0.250000      2.000000
 -0.166667 -0.166667  0.250000      2.000000
  0.000000  0.000000  0.500000      1.000000
  0.166667  0.000000  0.500000      2.000000
  0.333333  0.000000  0.500000      2.000000
  0.500000  0.000000  0.500000      1.000000
 -0.000000  0.166667  0.500000      2.000000
  0.166667  0.166667  0.500000      2.000000
  0.333333  0.166667  0.500000      2.000000
  0.500000  0.166667  0.500000      2.000000
 -0.333333  0.166667  0.500000      2.000000
 -0.166667  0.166667  0.500000      2.000000
 -0.000000  0.333333  0.500000      2.000000
  0.166667  0.333333  0.500000      2.000000
  0.333333  0.333333  0.500000      2.000000
  0.500000  0.333333  0.500000      2.000000
 -0.333333  0.333333  0.500000      2.000000
 -0.166667  0.333333  0.500000      2.000000
 -0.000000  0.500000  0.500000      1.000000
  0.166667  0.500000  0.500000      2.000000
  0.333333  0.500000  0.500000      2.000000
  0.500000  0.500000  0.500000      1.000000
 
 Following cartesian coordinates:
            Coordinates               Weight
  0.000000  0.000000  0.000000      1.000000
  0.033795  0.019529  0.000000      2.000000
  0.067589  0.039058  0.000000      2.000000
  0.101384  0.058586  0.000000      1.000000
  0.000015  0.039031  0.000000      2.000000
  0.033810  0.058560  0.000000      2.000000
  0.067604  0.078089  0.000000      2.000000
  0.101399  0.097618  0.000000      2.000000
 -0.067574 -0.000026  0.000000      2.000000
 -0.033779  0.019503  0.000000      2.000000
  0.000030  0.078063  0.000000      2.000000
  0.033825  0.097591  0.000000      2.000000
  0.067619  0.117120  0.000000      2.000000
  0.101414  0.136649  0.000000      2.000000
 -0.067559  0.039005  0.000000      2.000000
 -0.033764  0.058534  0.000000      2.000000
  0.000046  0.117094  0.000000      1.000000
  0.033840  0.136623  0.000000      2.000000
  0.067635  0.156152  0.000000      2.000000
  0.101429  0.175680  0.000000      1.000000
  0.000000  0.000000  0.018531      2.000000
  0.033795  0.019529  0.018531      2.000000
  0.067589  0.039058  0.018531      2.000000
  0.101384  0.058586  0.018531      2.000000
 -0.067589 -0.039058  0.018531      2.000000
 -0.033795 -0.019529  0.018531      2.000000
  0.000015  0.039031  0.018531      2.000000
  0.033810  0.058560  0.018531      2.000000
  0.067604  0.078089  0.018531      2.000000
  0.101399  0.097618  0.018531      2.000000
 -0.067574 -0.000026  0.018531      2.000000
 -0.033779  0.019503  0.018531      2.000000
  0.000030  0.078063  0.018531      2.000000
  0.033825  0.097591  0.018531      2.000000
  0.067619  0.117120  0.018531      2.000000
  0.101414  0.136649  0.018531      2.000000
 -0.067559  0.039005  0.018531      2.000000
 -0.033764  0.058534  0.018531      2.000000
  0.000046  0.117094  0.018531      2.000000
  0.033840  0.136623  0.018531      2.000000
  0.067635  0.156152  0.018531      2.000000
  0.101429  0.175680  0.018531      2.000000
 -0.067543  0.078036  0.018531      2.000000
 -0.033749  0.097565  0.018531      2.000000
 -0.000030 -0.078063  0.018531      2.000000
  0.033764 -0.058534  0.018531      2.000000
  0.067559 -0.039005  0.018531      2.000000
  0.101353 -0.019476  0.018531      2.000000
 -0.067619 -0.117120  0.018531      2.000000
 -0.033825 -0.097591  0.018531      2.000000
 -0.000015 -0.039031  0.018531      2.000000
  0.033779 -0.019503  0.018531      2.000000
  0.067574  0.000026  0.018531      2.000000
  0.101368  0.019555  0.018531      2.000000
 -0.067604 -0.078089  0.018531      2.000000
 -0.033810 -0.058560  0.018531      2.000000
  0.000000  0.000000  0.037062      1.000000
  0.033795  0.019529  0.037062      2.000000
  0.067589  0.039058  0.037062      2.000000
  0.101384  0.058586  0.037062      1.000000
  0.000015  0.039031  0.037062      2.000000
  0.033810  0.058560  0.037062      2.000000
  0.067604  0.078089  0.037062      2.000000
  0.101399  0.097618  0.037062      2.000000
 -0.067574 -0.000026  0.037062      2.000000
 -0.033779  0.019503  0.037062      2.000000
  0.000030  0.078063  0.037062      2.000000
  0.033825  0.097591  0.037062      2.000000
  0.067619  0.117120  0.037062      2.000000
  0.101414  0.136649  0.037062      2.000000
 -0.067559  0.039005  0.037062      2.000000
 -0.033764  0.058534  0.037062      2.000000
  0.000046  0.117094  0.037062      1.000000
  0.033840  0.136623  0.037062      2.000000
  0.067635  0.156152  0.037062      2.000000
  0.101429  0.175680  0.037062      1.000000
 
 TETIRR: Found    432 inequivalent tetrahedra from      864


--------------------------------------------------------------------------------------------------------




 Dimension of arrays:
   k-points           NKPTS =     76   k-points in BZ     NKDIM =     76   number of bands    NBANDS=     84
   number of dos      NEDOS =    301   number of ions     NIONS =     32
   non local maximal  LDIM  =      4   non local SUM 2l+1 LMDIM =      8
   total plane-waves  NPLWV = 290304
   max r-space proj   IRMAX =      1   max aug-charges    IRDMAX=  12254
   dimension x,y,z NGX =    48 NGY =   48 NGZ =  126
   dimension x,y,z NGXF=    96 NGYF=   96 NGZF=  252
   support grid    NGXF=    96 NGYF=   96 NGZF=  252
   ions per type =              32
 NGX,Y,Z   is equivalent  to a cutoff of  16.18, 16.18, 15.53 a.u.
 NGXF,Y,Z  is equivalent  to a cutoff of  32.35, 32.35, 31.05 a.u.


 I would recommend the setting:
   dimension x,y,z NGX =    46 NGY =   46 NGZ =  124
 SYSTEM =  graphite                                
 POSCAR =  C                                       

 Startparameter for this run:
   NWRITE =      2    write-flag & timer
   PREC   = accura    normal or accurate (medium, high low for compatibility)
   ISTART =      0    job   : 0-new  1-cont  2-samecut
   ICHARG =      2    charge: 1-file 2-atom 10-const
   ISPIN  =      1    spin polarized calculation?
   LNONCOLLINEAR =      F non collinear calculations
   LSORBIT =      F    spin-orbit coupling
   INIWAV =      1    electr: 0-lowe 1-rand  2-diag
   LASPH  =      F    aspherical Exc in radial PAW
   METAGGA=      F    non-selfconsistent MetaGGA calc.

 Electronic Relaxation 1
   ENCUT  =  800.0 eV  58.80 Ry    7.67 a.u.  11.38 11.38 31.11*2*pi/ulx,y,z
   ENINI  =  800.0     initial cutoff
   ENAUG  =  644.9 eV  augmentation charge cutoff
   NELM   =    200;   NELMIN=  2; NELMDL=  0     # of ELM steps 
   EDIFF  = 0.1E-07   stopping-criterion for ELM
   LREAL  =      F    real-space projection
   NLSPLINE    = F    spline interpolate recip. space projectors
   LCOMPAT=      F    compatible to vasp.4.4
   GGA_COMPAT  = T    GGA compatible to vasp.4.4-vasp.4.6
   LMAXPAW     = -100 max onsite density
   LMAXMIX     =    2 max onsite mixed and CHGCAR
   VOSKOWN=      0    Vosko Wilk Nusair interpolation
   ROPT   =    0.00000
 Ionic relaxation
   EDIFFG = 0.1E-02   stopping-criterion for IOM
   NSW    =      0    number of steps for IOM
   NBLOCK =      1;   KBLOCK =      1    inner block; outer block 
   IBRION =     -1    ionic relax: 0-MD 1-quasi-New 2-CG
   NFREE  =      0    steps in history (QN), initial steepest desc. (CG)
   ISIF   =      2    stress and relaxation
   IWAVPR =     10    prediction:  0-non 1-charg 2-wave 3-comb
   ISYM   =      2    0-nonsym 1-usesym 2-fastsym
   LCORR  =      T    Harris-Foulkes like correction to forces

   POTIM  = 0.5000    time-step for ionic-motion
   TEIN   =    0.0    initial temperature
   TEBEG  =    0.0;   TEEND  =   0.0 temperature during run
   SMASS  =  -3.00    Nose mass-parameter (am)
   estimated Nose-frequenzy (Omega)   =  0.10E-29 period in steps =****** mass=  -0.556E-27a.u.
   SCALEE = 1.0000    scale energy and forces
   NPACO  =    256;   APACO  = 16.0  distance and # of slots for P.C.
   PSTRESS=    0.0 pullay stress

  Mass of Ions in am
   POMASS =  12.01
  Ionic Valenz
   ZVAL   =   4.00
  Atomic Wigner-Seitz radii
   RWIGS  =  -1.00
  virtual crystal weights 
   VCA    =   1.00
   NELECT =     128.0000    total number of electrons
   NUPDOWN=      -1.0000    fix difference up-down

 DOS related values:
   EMIN   =  10.00;   EMAX   =-10.00  energy-range for DOS
   EFERMI =   0.00
   ISMEAR =    -5;   SIGMA  =   0.20  broadening in eV -4-tet -1-fermi 0-gaus

 Electronic relaxation 2 (details)
   IALGO  =     38    algorithm
   LDIAG  =      T    sub-space diagonalisation (order eigenvalues)
   LSUBROT=      F    optimize rotation matrix (better conditioning)
   TURBO    =      0    0=normal 1=particle mesh
   IRESTART =      0    0=no restart 2=restart with 2 vectors
   NREBOOT  =      0    no. of reboots
   NMIN     =      0    reboot dimension
   EREF     =   0.00    reference energy to select bands
   IMIX   =      4    mixing-type and parameters
     AMIX     =   0.40;   BMIX     =  1.00
     AMIX_MAG =   1.60;   BMIX_MAG =  1.00
     AMIN     =   0.10
     WC   =   100.;   INIMIX=   1;  MIXPRE=   1;  MAXMIX= -45

 Intra band minimization:
   WEIMIN = 0.0000     energy-eigenvalue tresh-hold
   EBREAK =  0.30E-10  absolut break condition
   DEPER  =   0.30     relativ break condition  

   TIME   =   0.40     timestep for ELM

  volume/ion in A,a.u.               =       8.88        59.93
  Fermi-wavevector in a.u.,A,eV,Ry     =   1.254933  2.371479 21.427215  1.574856
  Thomas-Fermi vector in A             =   2.388714
 
 Write flags
   LWAVE  =      F    write WAVECAR
   LCHARG =      F    write CHGCAR
   LVTOT  =      F    write LOCPOT, total local potential
   LVHAR  =      F    write LOCPOT, Hartree potential only
   LELF   =      F    write electronic localiz. function (ELF)
   LORBIT =      0    0 simple, 1 ext, 2 COOP (PROOUT)


 Dipole corrections
   LMONO  =      F    monopole corrections only (constant potential shift)
   LDIPOL =      F    correct potential (dipole corrections)
   IDIPOL =      0    1-x, 2-y, 3-z, 4-all directions 
   EPSILON=  1.0000000 bulk dielectric constant

 Exchange correlation treatment:
   GGA     =    PE    GGA type
   LEXCH   =     8    internal setting for exchange type
   VOSKOWN=      0    Vosko Wilk Nusair interpolation
   LHFCALC =     F    Hartree Fock is set to
   LHFONE  =     F    Hartree Fock one center treatment
   AEXX    =    0.0000 exact exchange contribution

 Linear response parameters
   LEPSILON=     F    determine dielectric tensor
   LRPA    =     F    only Hartree local field effects (RPA)
   LNABLA  =     F    use nabla operator in PAW spheres
   LVEL    =     F    velocity operator in full k-point grid
   LINTERFAST=   F  fast interpolation
   KINTER  =     0    interpolate to denser k-point grid
   CSHIFT  =0.1000    complex shift for real part using Kramers Kronig
   OMEGAMAX=  -1.0    maximum frequency
   DEG_THRESHOLD= 0.2000000E-02 threshold for treating states as degnerate
   RTIME   =    0.100 relaxation time in fs

 Orbital magnetization related:
   ORBITALMAG=     F  switch on orbital magnetization
   LCHIMAG   =     F  perturbation theory with respect to B field
   DQ        =  0.001000  dq finite difference perturbation B field



--------------------------------------------------------------------------------------------------------


 Static calculation
 charge density and potential will be updated during run
 non-spin polarized calculation
 Variant of blocked Davidson
 Davidson routine will perform the subspace rotation
 perform sub-space diagonalisation
    after iterative eigenvector-optimisation
 modified Broyden-mixing scheme, WC =      100.0
 initial mixing is a Kerker type mixing with AMIX =  0.4000 and BMIX =      1.0000
 Hartree-type preconditioning will be used
 using additional bands           20
 reciprocal scheme for non local part
 calculate Harris-corrections to forces 
   (improved forces if not selfconsistent)
 use gradient corrections 
 use of overlap-Matrix (Vanderbilt PP)
 Fermi weights with tetrahedron method with Bloechl corrections


--------------------------------------------------------------------------------------------------------


  energy-cutoff  :      800.00
  volume of cell :      284.17
      direct lattice vectors                 reciprocal lattice vectors
     4.932874498 -0.001919286  0.000000000     0.202767147  0.117172881  0.000000000
    -2.468099399  4.271034986  0.000000000     0.000091118  0.234187941  0.000000000
     0.000000000  0.000000000 13.490800000     0.000000000  0.000000000  0.074124589

  length of vectors
     4.932874871  4.932874871 13.490800000     0.234187958  0.234187958  0.074124589


 
 k-points in units of 2pi/SCALE and weight: B4C B11C-CBC                            
   0.00000000  0.00000000  0.00000000       0.007
   0.03379452  0.01952881  0.00000000       0.014
   0.06758905  0.03905763  0.00000000       0.014
   0.10138357  0.05858644  0.00000000       0.007
   0.00001519  0.03903132  0.00000000       0.014
   0.03380971  0.05856014  0.00000000       0.014
   0.06760424  0.07808895  0.00000000       0.014
   0.10139876  0.09761776  0.00000000       0.014
  -0.06757386 -0.00002630  0.00000000       0.014
  -0.03377934  0.01950251  0.00000000       0.014
   0.00003037  0.07806265  0.00000000       0.014
   0.03382490  0.09759146  0.00000000       0.014
   0.06761942  0.11712027  0.00000000       0.014
   0.10141395  0.13664909  0.00000000       0.014
  -0.06755868  0.03900502  0.00000000       0.014
  -0.03376415  0.05853383  0.00000000       0.014
   0.00004556  0.11709397  0.00000000       0.007
   0.03384008  0.13662278  0.00000000       0.014
   0.06763461  0.15615160  0.00000000       0.014
   0.10142913  0.17568041  0.00000000       0.007
   0.00000000  0.00000000  0.01853115       0.014
   0.03379452  0.01952881  0.01853115       0.014
   0.06758905  0.03905763  0.01853115       0.014
   0.10138357  0.05858644  0.01853115       0.014
  -0.06758905 -0.03905763  0.01853115       0.014
  -0.03379452 -0.01952881  0.01853115       0.014
   0.00001519  0.03903132  0.01853115       0.014
   0.03380971  0.05856014  0.01853115       0.014
   0.06760424  0.07808895  0.01853115       0.014
   0.10139876  0.09761776  0.01853115       0.014
  -0.06757386 -0.00002630  0.01853115       0.014
  -0.03377934  0.01950251  0.01853115       0.014
   0.00003037  0.07806265  0.01853115       0.014
   0.03382490  0.09759146  0.01853115       0.014
   0.06761942  0.11712027  0.01853115       0.014
   0.10141395  0.13664909  0.01853115       0.014
  -0.06755868  0.03900502  0.01853115       0.014
  -0.03376415  0.05853383  0.01853115       0.014
   0.00004556  0.11709397  0.01853115       0.014
   0.03384008  0.13662278  0.01853115       0.014
   0.06763461  0.15615160  0.01853115       0.014
   0.10142913  0.17568041  0.01853115       0.014
  -0.06754349  0.07803634  0.01853115       0.014
  -0.03374897  0.09756516  0.01853115       0.014
  -0.00003037 -0.07806265  0.01853115       0.014
   0.03376415 -0.05853383  0.01853115       0.014
   0.06755868 -0.03900502  0.01853115       0.014
   0.10135320 -0.01947621  0.01853115       0.014
  -0.06761942 -0.11712027  0.01853115       0.014
  -0.03382490 -0.09759146  0.01853115       0.014
  -0.00001519 -0.03903132  0.01853115       0.014
   0.03377934 -0.01950251  0.01853115       0.014
   0.06757386  0.00002630  0.01853115       0.014
   0.10136839  0.01955512  0.01853115       0.014
  -0.06760424 -0.07808895  0.01853115       0.014
  -0.03380971 -0.05856014  0.01853115       0.014
   0.00000000  0.00000000  0.03706229       0.007
   0.03379452  0.01952881  0.03706229       0.014
   0.06758905  0.03905763  0.03706229       0.014
   0.10138357  0.05858644  0.03706229       0.007
   0.00001519  0.03903132  0.03706229       0.014
   0.03380971  0.05856014  0.03706229       0.014
   0.06760424  0.07808895  0.03706229       0.014
   0.10139876  0.09761776  0.03706229       0.014
  -0.06757386 -0.00002630  0.03706229       0.014
  -0.03377934  0.01950251  0.03706229       0.014
   0.00003037  0.07806265  0.03706229       0.014
   0.03382490  0.09759146  0.03706229       0.014
   0.06761942  0.11712027  0.03706229       0.014
   0.10141395  0.13664909  0.03706229       0.014
  -0.06755868  0.03900502  0.03706229       0.014
  -0.03376415  0.05853383  0.03706229       0.014
   0.00004556  0.11709397  0.03706229       0.007
   0.03384008  0.13662278  0.03706229       0.014
   0.06763461  0.15615160  0.03706229       0.014
   0.10142913  0.17568041  0.03706229       0.007
 
 k-points in reciprocal lattice and weights: B4C B11C-CBC                            
   0.00000000  0.00000000  0.00000000       0.007
   0.16666667  0.00000000  0.00000000       0.014
   0.33333333  0.00000000  0.00000000       0.014
   0.50000000  0.00000000  0.00000000       0.007
  -0.00000000  0.16666667  0.00000000       0.014
   0.16666667  0.16666667  0.00000000       0.014
   0.33333333  0.16666667  0.00000000       0.014
   0.50000000  0.16666667  0.00000000       0.014
  -0.33333333  0.16666667  0.00000000       0.014
  -0.16666667  0.16666667  0.00000000       0.014
  -0.00000000  0.33333333  0.00000000       0.014
   0.16666667  0.33333333  0.00000000       0.014
   0.33333333  0.33333333  0.00000000       0.014
   0.50000000  0.33333333  0.00000000       0.014
  -0.33333333  0.33333333  0.00000000       0.014
  -0.16666667  0.33333333  0.00000000       0.014
  -0.00000000  0.50000000  0.00000000       0.007
   0.16666667  0.50000000  0.00000000       0.014
   0.33333333  0.50000000  0.00000000       0.014
   0.50000000  0.50000000  0.00000000       0.007
   0.00000000  0.00000000  0.25000000       0.014
   0.16666667  0.00000000  0.25000000       0.014
   0.33333333  0.00000000  0.25000000       0.014
   0.50000000  0.00000000  0.25000000       0.014
  -0.33333333 -0.00000000  0.25000000       0.014
  -0.16666667 -0.00000000  0.25000000       0.014
  -0.00000000  0.16666667  0.25000000       0.014
   0.16666667  0.16666667  0.25000000       0.014
   0.33333333  0.16666667  0.25000000       0.014
   0.50000000  0.16666667  0.25000000       0.014
  -0.33333333  0.16666667  0.25000000       0.014
  -0.16666667  0.16666667  0.25000000       0.014
  -0.00000000  0.33333333  0.25000000       0.014
   0.16666667  0.33333333  0.25000000       0.014
   0.33333333  0.33333333  0.25000000       0.014
   0.50000000  0.33333333  0.25000000       0.014
  -0.33333333  0.33333333  0.25000000       0.014
  -0.16666667  0.33333333  0.25000000       0.014
  -0.00000000  0.50000000  0.25000000       0.014
   0.16666667  0.50000000  0.25000000       0.014
   0.33333333  0.50000000  0.25000000       0.014
   0.50000000  0.50000000  0.25000000       0.014
  -0.33333333  0.50000000  0.25000000       0.014
  -0.16666667  0.50000000  0.25000000       0.014
   0.00000000 -0.33333333  0.25000000       0.014
   0.16666667 -0.33333333  0.25000000       0.014
   0.33333333 -0.33333333  0.25000000       0.014
   0.50000000 -0.33333333  0.25000000       0.014
  -0.33333333 -0.33333333  0.25000000       0.014
  -0.16666667 -0.33333333  0.25000000       0.014
   0.00000000 -0.16666667  0.25000000       0.014
   0.16666667 -0.16666667  0.25000000       0.014
   0.33333333 -0.16666667  0.25000000       0.014
   0.50000000 -0.16666667  0.25000000       0.014
  -0.33333333 -0.16666667  0.25000000       0.014
  -0.16666667 -0.16666667  0.25000000       0.014
   0.00000000  0.00000000  0.50000000       0.007
   0.16666667  0.00000000  0.50000000       0.014
   0.33333333  0.00000000  0.50000000       0.014
   0.50000000  0.00000000  0.50000000       0.007
  -0.00000000  0.16666667  0.50000000       0.014
   0.16666667  0.16666667  0.50000000       0.014
   0.33333333  0.16666667  0.50000000       0.014
   0.50000000  0.16666667  0.50000000       0.014
  -0.33333333  0.16666667  0.50000000       0.014
  -0.16666667  0.16666667  0.50000000       0.014
  -0.00000000  0.33333333  0.50000000       0.014
   0.16666667  0.33333333  0.50000000       0.014
   0.33333333  0.33333333  0.50000000       0.014
   0.50000000  0.33333333  0.50000000       0.014
  -0.33333333  0.33333333  0.50000000       0.014
  -0.16666667  0.33333333  0.50000000       0.014
  -0.00000000  0.50000000  0.50000000       0.007
   0.16666667  0.50000000  0.50000000       0.014
   0.33333333  0.50000000  0.50000000       0.014
   0.50000000  0.50000000  0.50000000       0.007
 
 position of ions in fractional coordinates (direct lattice) 
   0.49967330  0.00032672  0.12500000
   0.99967330  0.00032672  0.12500000
   0.49967330  0.50032672  0.12500000
   0.99967330  0.50032672  0.12500000
   0.49967330  0.00032672  0.62500000
   0.99967330  0.00032672  0.62500000
   0.49967330  0.50032672  0.62500000
   0.99967330  0.50032672  0.62500000
   0.00032672  0.49967330  0.37500000
   0.50032672  0.49967330  0.37500000
   0.00032672  0.99967330  0.37500000
   0.50032672  0.99967330  0.37500000
   0.00032672  0.49967330  0.87500000
   0.50032672  0.49967330  0.87500000
   0.00032672  0.99967330  0.87500000
   0.50032672  0.99967330  0.87500000
   0.16559630  0.33370753  0.12430383
   0.66629246  0.33370753  0.12500000
   0.16629246  0.83370753  0.12500000
   0.66629246  0.83370753  0.12500000
   0.16629246  0.33370753  0.62500000
   0.66629246  0.33370753  0.62500000
   0.16629246  0.83370753  0.62500000
   0.66629246  0.83370753  0.62500000
   0.33370753  0.16629246  0.37500000
   0.83370753  0.16629246  0.37500000
   0.33370753  0.66629246  0.37500000
   0.83370753  0.66629246  0.37500000
   0.33370753  0.16629246  0.87500000
   0.83370753  0.16629246  0.87500000
   0.33370753  0.66629246  0.87500000
   0.83370753  0.66629246  0.87500000
 
 position of ions in cartesian coordinates  (Angst):
   2.46401933  0.00043641  1.68635000
   4.93045658 -0.00052323  1.68635000
   1.22996963  2.13595390  1.68635000
   3.69640688  2.13499426  1.68635000
   2.46401933  0.00043641  8.43175000
   4.93045658 -0.00052323  8.43175000
   1.22996963  2.13595390  8.43175000
   3.69640688  2.13499426  8.43175000
  -1.23163172  2.13412154  5.05905000
   1.23480553  2.13316189  5.05905000
  -2.46568142  4.26963903  5.05905000
   0.00075583  4.26867939  5.05905000
  -1.23163172  2.13412154 11.80445000
   1.23480553  2.13316189 11.80445000
  -2.46568142  4.26963903 11.80445000
   0.00075583  4.26867939 11.80445000
  -0.00675761  1.42495870  1.67695815
   2.46311374  1.42399773  1.68635000
  -1.23737320  3.56047486  1.68635000
   1.22906405  3.55951522  1.68635000
  -0.00332350  1.42495737  8.43175000
   2.46311374  1.42399773  8.43175000
  -1.23737320  3.56047486  8.43175000
   1.22906405  3.55951522  8.43175000
   1.23571103  0.70960044  5.05905000
   3.70214828  0.70864080  5.05905000
   0.00166133  2.84511794  5.05905000
   2.46809858  2.84415829  5.05905000
   1.23571103  0.70960044 11.80445000
   3.70214828  0.70864080 11.80445000
   0.00166133  2.84511794 11.80445000
   2.46809858  2.84415829 11.80445000
 


--------------------------------------------------------------------------------------------------------


 k-point  1 :   0.0000 0.0000 0.0000  plane waves:   14567
 k-point  2 :   0.1667 0.0000 0.0000  plane waves:   14612
 k-point  3 :   0.3333 0.0000 0.0000  plane waves:   14588
 k-point  4 :   0.5000 0.0000 0.0000  plane waves:   14612
 k-point  5 :  -0.0000 0.1667 0.0000  plane waves:   14612
 k-point  6 :   0.1667 0.1667 0.0000  plane waves:   14611
 k-point  7 :   0.3333 0.1667 0.0000  plane waves:   14583
 k-point  8 :   0.5000 0.1667 0.0000  plane waves:   14585
 k-point  9 :  -0.3333 0.1667 0.0000  plane waves:   14609
 k-point 10 :  -0.1667 0.1667 0.0000  plane waves:   14612
 k-point 11 :  -0.0000 0.3333 0.0000  plane waves:   14588
 k-point 12 :   0.1667 0.3333 0.0000  plane waves:   14583
 k-point 13 :   0.3333 0.3333 0.0000  plane waves:   14592
 k-point 14 :   0.5000 0.3333 0.0000  plane waves:   14581
 k-point 15 :  -0.3333 0.3333 0.0000  plane waves:   14586
 k-point 16 :  -0.1667 0.3333 0.0000  plane waves:   14609
 k-point 17 :  -0.0000 0.5000 0.0000  plane waves:   14612
 k-point 18 :   0.1667 0.5000 0.0000  plane waves:   14585
 k-point 19 :   0.3333 0.5000 0.0000  plane waves:   14581
 k-point 20 :   0.5000 0.5000 0.0000  plane waves:   14604
 k-point 21 :   0.0000 0.0000 0.2500  plane waves:   14612
 k-point 22 :   0.1667 0.0000 0.2500  plane waves:   14638
 k-point 23 :   0.3333 0.0000 0.2500  plane waves:   14598
 k-point 24 :   0.5000 0.0000 0.2500  plane waves:   14592
 k-point 25 :  -0.3333-0.0000 0.2500  plane waves:   14598
 k-point 26 :  -0.1667-0.0000 0.2500  plane waves:   14638
 k-point 27 :  -0.0000 0.1667 0.2500  plane waves:   14638
 k-point 28 :   0.1667 0.1667 0.2500  plane waves:   14617
 k-point 29 :   0.3333 0.1667 0.2500  plane waves:   14587
 k-point 30 :   0.5000 0.1667 0.2500  plane waves:   14588
 k-point 31 :  -0.3333 0.1667 0.2500  plane waves:   14611
 k-point 32 :  -0.1667 0.1667 0.2500  plane waves:   14642
 k-point 33 :  -0.0000 0.3333 0.2500  plane waves:   14598
 k-point 34 :   0.1667 0.3333 0.2500  plane waves:   14587
 k-point 35 :   0.3333 0.3333 0.2500  plane waves:   14580
 k-point 36 :   0.5000 0.3333 0.2500  plane waves:   14586
 k-point 37 :  -0.3333 0.3333 0.2500  plane waves:   14598
 k-point 38 :  -0.1667 0.3333 0.2500  plane waves:   14611
 k-point 39 :  -0.0000 0.5000 0.2500  plane waves:   14592
 k-point 40 :   0.1667 0.5000 0.2500  plane waves:   14588
 k-point 41 :   0.3333 0.5000 0.2500  plane waves:   14586
 k-point 42 :   0.5000 0.5000 0.2500  plane waves:   14582
 k-point 43 :  -0.3333 0.5000 0.2500  plane waves:   14586
 k-point 44 :  -0.1667 0.5000 0.2500  plane waves:   14588
 k-point 45 :   0.0000-0.3333 0.2500  plane waves:   14598
 k-point 46 :   0.1667-0.3333 0.2500  plane waves:   14611
 k-point 47 :   0.3333-0.3333 0.2500  plane waves:   14598
 k-point 48 :   0.5000-0.3333 0.2500  plane waves:   14586
 k-point 49 :  -0.3333-0.3333 0.2500  plane waves:   14580
 k-point 50 :  -0.1667-0.3333 0.2500  plane waves:   14587
 k-point 51 :   0.0000-0.1667 0.2500  plane waves:   14638
 k-point 52 :   0.1667-0.1667 0.2500  plane waves:   14642
 k-point 53 :   0.3333-0.1667 0.2500  plane waves:   14611
 k-point 54 :   0.5000-0.1667 0.2500  plane waves:   14588
 k-point 55 :  -0.3333-0.1667 0.2500  plane waves:   14587
 k-point 56 :  -0.1667-0.1667 0.2500  plane waves:   14617
 k-point 57 :   0.0000 0.0000 0.5000  plane waves:   14562
 k-point 58 :   0.1667 0.0000 0.5000  plane waves:   14658
 k-point 59 :   0.3333 0.0000 0.5000  plane waves:   14582
 k-point 60 :   0.5000 0.0000 0.5000  plane waves:   14628
 k-point 61 :  -0.0000 0.1667 0.5000  plane waves:   14658
 k-point 62 :   0.1667 0.1667 0.5000  plane waves:   14616
 k-point 63 :   0.3333 0.1667 0.5000  plane waves:   14580
 k-point 64 :   0.5000 0.1667 0.5000  plane waves:   14580
 k-point 65 :  -0.3333 0.1667 0.5000  plane waves:   14616
 k-point 66 :  -0.1667 0.1667 0.5000  plane waves:   14652
 k-point 67 :  -0.0000 0.3333 0.5000  plane waves:   14582
 k-point 68 :   0.1667 0.3333 0.5000  plane waves:   14580
 k-point 69 :   0.3333 0.3333 0.5000  plane waves:   14590
 k-point 70 :   0.5000 0.3333 0.5000  plane waves:   14592
 k-point 71 :  -0.3333 0.3333 0.5000  plane waves:   14588
 k-point 72 :  -0.1667 0.3333 0.5000  plane waves:   14616
 k-point 73 :  -0.0000 0.5000 0.5000  plane waves:   14628
 k-point 74 :   0.1667 0.5000 0.5000  plane waves:   14580
 k-point 75 :   0.3333 0.5000 0.5000  plane waves:   14592
 k-point 76 :   0.5000 0.5000 0.5000  plane waves:   14628

 maximum and minimum number of plane-waves per node :     14658    14562

 maximum number of plane-waves:     14658
 maximum index in each direction: 
   IXMAX=   11   IYMAX=   11   IZMAX=   31
   IXMIN=  -11   IYMIN=  -11   IZMIN=  -31

 NGX is ok and might be reduce to  46
 NGY is ok and might be reduce to  46
 NGZ is ok and might be reduce to 126

 serial   3D FFT for wavefunctions
 parallel 3D FFT for charge:
    minimum data exchange during FFTs selected (reduces bandwidth)


 total amount of memory used by VASP on root node   407401. kBytes
========================================================================

   base      :      30000. kBytes
   nonl-proj :      78801. kBytes
   fftplans  :      14247. kBytes
   grid      :      30326. kBytes
   one-center:         98. kBytes
   wavefun   :     253929. kBytes
 
     INWAV:  cpu time    0.00: real time    0.00
 Broyden mixing: mesh for mixing (old mesh)
   NGX = 23   NGY = 23   NGZ = 63
  (NGX  = 96   NGY  = 96   NGZ  =252)
  gives a total of  33327 points

 initial charge density was supplied:
 charge density of overlapping atoms calculated
 number of electron     128.0000000 magnetization 
 keeping initial charge density in first step


--------------------------------------------------------------------------------------------------------


 Maximum index for augmentation-charges         1970 (set IRDMAX)


--------------------------------------------------------------------------------------------------------


 First call to EWALD:  gamma=   0.270
 Maximum number of real-space cells 4x 4x 2
 Maximum number of reciprocal cells 2x 2x 5

 FEWALD executed in parallel
    FEWALD:  cpu time    0.01: real time    0.01


----------------------------------------- Iteration    1(   1)  ---------------------------------------


    POTLOK:  cpu time    1.60: real time    2.35
    SETDIJ:  cpu time    0.03: real time    0.06
     EDDAV:  cpu time  521.79: real time  782.15
 BZINTS: Fermi energy: 17.130007;128.000000 electrons
         Band energy: 162.351079;  BLOECHL correction: -0.132568
       DOS:  cpu time    0.09: real time    0.19
    --------------------------------------------
      LOOP:  cpu time  523.52: real time  784.78

 eigenvalue-minimisations  : 12768
 total energy-change (2. order) : 0.7062190E+03  (-0.8404695E+04)
 number of electron     128.0000000 magnetization 
 augmentation part      128.0000000 magnetization 

 Free energy of the ion-electron system (eV)
  ---------------------------------------------------
  alpha Z        PSCENC =       293.61525009
  Ewald energy   TEWEN  =     -3659.67181377
  -Hartree energ DENC   =     -1205.23101580
  -exchange      EXHF   =         0.00000000
  -V(xc)+E(xc)   XCENC  =       443.02932553
  PAW double counting   =      1210.60617908    -1247.42152856
  entropy T*S    EENTRO =         0.00000000
  eigenvalues    EBANDS =       162.35107885
  atomic energy  EATOM  =      4708.94155045
  ---------------------------------------------------
  free energy    TOTEN  =       706.21902586 eV

  energy without entropy =      706.21902586  energy(sigma->0) =      706.21902586


--------------------------------------------------------------------------------------------------------




----------------------------------------- Iteration    1(   2)  ---------------------------------------


     EDDAV:  cpu time  606.56: real time  917.96
 BZINTS: Fermi energy:  3.820914;128.000000 electrons
         Band energy:-798.518633;  BLOECHL correction: -0.000096
       DOS:  cpu time    0.09: real time    0.12
    --------------------------------------------
      LOOP:  cpu time  606.66: real time  918.10

 eigenvalue-minimisations  : 15852
 total energy-change (2. order) :-0.9608697E+03  (-0.9256304E+03)
 number of electron     128.0000000 magnetization 
 augmentation part      128.0000000 magnetization 

 Free energy of the ion-electron system (eV)
  ---------------------------------------------------
  alpha Z        PSCENC =       293.61525009
  Ewald energy   TEWEN  =     -3659.67181377
  -Hartree energ DENC   =     -1205.23101580
  -exchange      EXHF   =         0.00000000
  -V(xc)+E(xc)   XCENC  =       443.02932553
  PAW double counting   =      1210.60617908    -1247.42152856
  entropy T*S    EENTRO =         0.00000000
  eigenvalues    EBANDS =      -798.51863321
  atomic energy  EATOM  =      4708.94155045
  ---------------------------------------------------
  free energy    TOTEN  =      -254.65068619 eV

  energy without entropy =     -254.65068619  energy(sigma->0) =     -254.65068619


--------------------------------------------------------------------------------------------------------




----------------------------------------- Iteration    1(   3)  ---------------------------------------


     EDDAV:  cpu time  602.00: real time  744.41
 BZINTS: Fermi energy:  3.132702;128.000000 electrons
         Band energy:-856.531339;  BLOECHL correction: -0.000012
       DOS:  cpu time    0.06: real time    0.06
    --------------------------------------------
      LOOP:  cpu time  602.08: real time  744.52

 eigenvalue-minimisations  : 15552
 total energy-change (2. order) :-0.5801271E+02  (-0.5740927E+02)
 number of electron     128.0000000 magnetization 
 augmentation part      128.0000000 magnetization 

 Free energy of the ion-electron system (eV)
  ---------------------------------------------------
  alpha Z        PSCENC =       293.61525009
  Ewald energy   TEWEN  =     -3659.67181377
  -Hartree energ DENC   =     -1205.23101580
  -exchange      EXHF   =         0.00000000
  -V(xc)+E(xc)   XCENC  =       443.02932553
  PAW double counting   =      1210.60617908    -1247.42152856
  entropy T*S    EENTRO =         0.00000000
  eigenvalues    EBANDS =      -856.53133872
  atomic energy  EATOM  =      4708.94155045
  ---------------------------------------------------
  free energy    TOTEN  =      -312.66339170 eV

  energy without entropy =     -312.66339170  energy(sigma->0) =     -312.66339170


--------------------------------------------------------------------------------------------------------




----------------------------------------- Iteration    1(   4)  ---------------------------------------


     EDDAV:  cpu time  604.16: real time  604.47
 BZINTS: Fermi energy:  3.128205;128.000000 electrons
         Band energy:-857.677486;  BLOECHL correction:  0.000000
       DOS:  cpu time    0.03: real time    0.03
    --------------------------------------------
      LOOP:  cpu time  604.20: real time  604.51

 eigenvalue-minimisations  : 15936
 total energy-change (2. order) :-0.1146147E+01  (-0.1143690E+01)
 number of electron     128.0000000 magnetization 
 augmentation part      128.0000000 magnetization 

 Free energy of the ion-electron system (eV)
  ---------------------------------------------------
  alpha Z        PSCENC =       293.61525009
  Ewald energy   TEWEN  =     -3659.67181377
  -Hartree energ DENC   =     -1205.23101580
  -exchange      EXHF   =         0.00000000
  -V(xc)+E(xc)   XCENC  =       443.02932553
  PAW double counting   =      1210.60617908    -1247.42152856
  entropy T*S    EENTRO =         0.00000000
  eigenvalues    EBANDS =      -857.67748596
  atomic energy  EATOM  =      4708.94155045
  ---------------------------------------------------
  free energy    TOTEN  =      -313.80953895 eV

  energy without entropy =     -313.80953895  energy(sigma->0) =     -313.80953895


--------------------------------------------------------------------------------------------------------




----------------------------------------- Iteration    1(   5)  ---------------------------------------


     EDDAV:  cpu time  604.42: real time  604.72
 BZINTS: Fermi energy:  3.128223;128.000000 electrons
         Band energy:-857.711245;  BLOECHL correction:  0.000000
       DOS:  cpu time    0.04: real time    0.04
    CHARGE:  cpu time    8.41: real time    8.41
    MIXING:  cpu time    0.01: real time    0.01
    --------------------------------------------
      LOOP:  cpu time  612.88: real time  613.19

 eigenvalue-minimisations  : 16296
 total energy-change (2. order) :-0.3375946E-01  (-0.3374698E-01)
 number of electron     127.9999987 magnetization 
 augmentation part        3.3923422 magnetization 

 Broyden mixing:
  rms(total) = 0.22086E+01    rms(broyden)= 0.22085E+01
  rms(prec ) = 0.26060E+01
  weight for this iteration     100.00

 Free energy of the ion-electron system (eV)
  ---------------------------------------------------
  alpha Z        PSCENC =       293.61525009
  Ewald energy   TEWEN  =     -3659.67181377
  -Hartree energ DENC   =     -1205.23101580
  -exchange      EXHF   =         0.00000000
  -V(xc)+E(xc)   XCENC  =       443.02932553
  PAW double counting   =      1210.60617908    -1247.42152856
  entropy T*S    EENTRO =         0.00000000
  eigenvalues    EBANDS =      -857.71124543
  atomic energy  EATOM  =      4708.94155045
  ---------------------------------------------------
  free energy    TOTEN  =      -313.84329841 eV

  energy without entropy =     -313.84329841  energy(sigma->0) =     -313.84329841


--------------------------------------------------------------------------------------------------------




----------------------------------------- Iteration    1(   6)  ---------------------------------------


    POTLOK:  cpu time    1.54: real time    1.54
    SETDIJ:  cpu time    0.02: real time    0.02
     EDDAV:  cpu time  557.66: real time  557.94
 BZINTS: Fermi energy:  3.890454;128.000000 electrons
         Band energy:-717.193882;  BLOECHL correction:  0.000000
       DOS:  cpu time    0.03: real time    0.03
    CHARGE:  cpu time    8.97: real time    8.98
    MIXING:  cpu time    0.02: real time    0.02
    --------------------------------------------
      LOOP:  cpu time  568.24: real time  568.53

 eigenvalue-minimisations  : 14592
 total energy-change (2. order) : 0.1444965E+02  (-0.1489368E+01)
 number of electron     127.9999988 magnetization 
 augmentation part        3.2365961 magnetization 

 Broyden mixing:
  rms(total) = 0.11588E+01    rms(broyden)= 0.11588E+01
  rms(prec ) = 0.13581E+01
  weight for this iteration     100.00

 eigenvalues of (default mixing * dielectric matrix)
  average eigenvalue GAMMA=   2.0345
  2.0345

 Free energy of the ion-electron system (eV)
  ---------------------------------------------------
  alpha Z        PSCENC =       293.61525009
  Ewald energy   TEWEN  =     -3659.67181377
  -Hartree energ DENC   =     -1336.79334184
  -exchange      EXHF   =         0.00000000
  -V(xc)+E(xc)   XCENC  =       451.40652755
  PAW double counting   =      1641.94544332    -1681.64337950
  entropy T*S    EENTRO =         0.00000000
  eigenvalues    EBANDS =      -717.19388206
  atomic energy  EATOM  =      4708.94155045
  ---------------------------------------------------
  free energy    TOTEN  =      -299.39364576 eV

  energy without entropy =     -299.39364576  energy(sigma->0) =     -299.39364576


--------------------------------------------------------------------------------------------------------




----------------------------------------- Iteration    1(   7)  ---------------------------------------


    POTLOK:  cpu time    2.08: real time    2.08
    SETDIJ:  cpu time    0.02: real time    0.02
     EDDAV:  cpu time  555.37: real time  555.65
 BZINTS: Fermi energy:  4.637429;128.000000 electrons
         Band energy:-573.643157;  BLOECHL correction:  0.000000
       DOS:  cpu time    0.02: real time    0.02
    CHARGE:  cpu time    7.42: real time    7.43
    MIXING:  cpu time    0.02: real time    0.02
    --------------------------------------------
      LOOP:  cpu time  564.94: real time  565.22

 eigenvalue-minimisations  : 14460
 total energy-change (2. order) : 0.4585150E+01  (-0.1574387E+01)
 number of electron     127.9999989 magnetization 
 augmentation part        3.0710267 magnetization 

 Broyden mixing:
  rms(total) = 0.19667E+00    rms(broyden)= 0.19665E+00
  rms(prec ) = 0.21502E+00
  weight for this iteration     100.00

 eigenvalues of (default mixing * dielectric matrix)
  average eigenvalue GAMMA=   2.0702
  2.0702  2.0702

 Free energy of the ion-electron system (eV)
  ---------------------------------------------------
  alpha Z        PSCENC =       293.61525009
  Ewald energy   TEWEN  =     -3659.67181377
  -Hartree energ DENC   =     -1482.96464138
  -exchange      EXHF   =         0.00000000
  -V(xc)+E(xc)   XCENC  =       460.95060495
  PAW double counting   =      2180.67427305    -2222.71056219
  entropy T*S    EENTRO =         0.00000000
  eigenvalues    EBANDS =      -573.64315723
  atomic energy  EATOM  =      4708.94155045
  ---------------------------------------------------
  free energy    TOTEN  =      -294.80849602 eV

  energy without entropy =     -294.80849602  energy(sigma->0) =     -294.80849602


--------------------------------------------------------------------------------------------------------




----------------------------------------- Iteration    1(   8)  ---------------------------------------


    POTLOK:  cpu time    2.14: real time    2.14
    SETDIJ:  cpu time    0.02: real time    0.02
     EDDAV:  cpu time  614.57: real time  614.88
 BZINTS: Fermi energy:  4.571960;128.000000 electrons
         Band energy:-575.899295;  BLOECHL correction:  0.000000
       DOS:  cpu time    0.03: real time    0.03
    CHARGE:  cpu time    8.25: real time    8.26
    MIXING:  cpu time    0.02: real time    0.02
    --------------------------------------------
      LOOP:  cpu time  625.03: real time  625.38

 eigenvalue-minimisations  : 15120
 total energy-change (2. order) :-0.7102805E-01  (-0.7469902E-01)
 number of electron     127.9999989 magnetization 
 augmentation part        3.0645057 magnetization 

 Broyden mixing:
  rms(total) = 0.82040E-01    rms(broyden)= 0.82038E-01
  rms(prec ) = 0.10571E+00
  weight for this iteration     100.00

 eigenvalues of (default mixing * dielectric matrix)
  average eigenvalue GAMMA=   1.6549
  2.3579  2.0461  0.5607

 Free energy of the ion-electron system (eV)
  ---------------------------------------------------
  alpha Z        PSCENC =       293.61525009
  Ewald energy   TEWEN  =     -3659.67181377
  -Hartree energ DENC   =     -1481.30412339
  -exchange      EXHF   =         0.00000000
  -V(xc)+E(xc)   XCENC  =       460.85994964
  PAW double counting   =      2205.37204609    -2246.79308821
  entropy T*S    EENTRO =         0.00000000
  eigenvalues    EBANDS =      -575.89929497
  atomic energy  EATOM  =      4708.94155045
  ---------------------------------------------------
  free energy    TOTEN  =      -294.87952407 eV

  energy without entropy =     -294.87952407  energy(sigma->0) =     -294.87952407


--------------------------------------------------------------------------------------------------------




----------------------------------------- Iteration    1(   9)  ---------------------------------------


    POTLOK:  cpu time    2.42: real time    2.42
    SETDIJ:  cpu time    0.02: real time    0.02
     EDDAV:  cpu time  569.36: real time  569.64
 BZINTS: Fermi energy:  4.595104;128.000000 electrons
         Band energy:-575.249214;  BLOECHL correction:  0.000000
       DOS:  cpu time    0.02: real time    0.02
    CHARGE:  cpu time    8.42: real time    8.42
    MIXING:  cpu time    0.02: real time    0.02
    --------------------------------------------
      LOOP:  cpu time  580.26: real time  580.55

 eigenvalue-minimisations  : 14808
 total energy-change (2. order) : 0.3284833E-02  (-0.5323162E-02)
 number of electron     127.9999989 magnetization 
 augmentation part        3.0621608 magnetization 

 Broyden mixing:
  rms(total) = 0.44461E-01    rms(broyden)= 0.44461E-01
  rms(prec ) = 0.68803E-01
  weight for this iteration     100.00

 eigenvalues of (default mixing * dielectric matrix)
  average eigenvalue GAMMA=   1.4911
  2.4104  2.0205  0.7667  0.7667

 Free energy of the ion-electron system (eV)
  ---------------------------------------------------
  alpha Z        PSCENC =       293.61525009
  Ewald energy   TEWEN  =     -3659.67181377
  -Hartree energ DENC   =     -1482.22361802
  -exchange      EXHF   =         0.00000000
  -V(xc)+E(xc)   XCENC  =       460.93596440
  PAW double counting   =      2218.45923601    -2259.68359410
  entropy T*S    EENTRO =         0.00000000
  eigenvalues    EBANDS =      -575.24921430
  atomic energy  EATOM  =      4708.94155045
  ---------------------------------------------------
  free energy    TOTEN  =      -294.87623924 eV

  energy without entropy =     -294.87623924  energy(sigma->0) =     -294.87623924


--------------------------------------------------------------------------------------------------------




----------------------------------------- Iteration    1(  10)  ---------------------------------------


    POTLOK:  cpu time    1.89: real time    1.89
    SETDIJ:  cpu time    0.03: real time    0.03
     EDDAV:  cpu time  727.33: real time  727.70
 BZINTS: Fermi energy:  4.615831;128.000000 electrons
         Band energy:-574.394415;  BLOECHL correction:  0.000000
       DOS:  cpu time    0.03: real time    0.03
    CHARGE:  cpu time    8.60: real time    8.60
    MIXING:  cpu time    0.22: real time    0.22
    --------------------------------------------
      LOOP:  cpu time  738.09: real time  738.47

 eigenvalue-minimisations  : 20304
 total energy-change (2. order) : 0.7758791E-02  (-0.4698015E-02)
 number of electron     127.9999989 magnetization 
 augmentation part        3.0616109 magnetization 

 Broyden mixing:
  rms(total) = 0.13473E-01    rms(broyden)= 0.13470E-01
  rms(prec ) = 0.19057E-01
  weight for this iteration     100.00

 eigenvalues of (default mixing * dielectric matrix)
  average eigenvalue GAMMA=   1.4654
  2.5626  1.9253  1.3989  0.7201  0.7201

 Free energy of the ion-electron system (eV)
  ---------------------------------------------------
  alpha Z        PSCENC =       293.61525009
  Ewald energy   TEWEN  =     -3659.67181377
  -Hartree energ DENC   =     -1483.13724885
  -exchange      EXHF   =         0.00000000
  -V(xc)+E(xc)   XCENC  =       461.00118393
  PAW double counting   =      2221.02672183    -2262.24970873
  entropy T*S    EENTRO =         0.00000000
  eigenvalues    EBANDS =      -574.39441539
  atomic energy  EATOM  =      4708.94155045
  ---------------------------------------------------
  free energy    TOTEN  =      -294.86848045 eV

  energy without entropy =     -294.86848045  energy(sigma->0) =     -294.86848045


--------------------------------------------------------------------------------------------------------




----------------------------------------- Iteration    1(  11)  ---------------------------------------


    POTLOK:  cpu time    2.15: real time    2.15
    SETDIJ:  cpu time    0.02: real time    0.02
     EDDAV:  cpu time  562.00: real time  562.28
 BZINTS: Fermi energy:  4.620225;128.000000 electrons
         Band energy:-573.454403;  BLOECHL correction:  0.000000
       DOS:  cpu time    0.03: real time    0.03
    CHARGE:  cpu time    8.40: real time    8.41
    MIXING:  cpu time    0.02: real time    0.02
    --------------------------------------------
      LOOP:  cpu time  572.62: real time  572.91

 eigenvalue-minimisations  : 14544
 total energy-change (2. order) :-0.9625355E-03  (-0.1187335E-02)
 number of electron     127.9999989 magnetization 
 augmentation part        3.0607151 magnetization 

 Broyden mixing:
  rms(total) = 0.10111E-01    rms(broyden)= 0.10111E-01
  rms(prec ) = 0.16657E-01
  weight for this iteration     100.00

 eigenvalues of (default mixing * dielectric matrix)
  average eigenvalue GAMMA=   1.3514
  2.5105  1.9877  1.2992  0.8598  0.7256  0.7256

 Free energy of the ion-electron system (eV)
  ---------------------------------------------------
  alpha Z        PSCENC =       293.61525009
  Ewald energy   TEWEN  =     -3659.67181377
  -Hartree energ DENC   =     -1484.14998661
  -exchange      EXHF   =         0.00000000
  -V(xc)+E(xc)   XCENC  =       461.07257856
  PAW double counting   =      2223.77338484    -2264.99600319
  entropy T*S    EENTRO =         0.00000000
  eigenvalues    EBANDS =      -573.45440335
  atomic energy  EATOM  =      4708.94155045
  ---------------------------------------------------
  free energy    TOTEN  =      -294.86944298 eV

  energy without entropy =     -294.86944298  energy(sigma->0) =     -294.86944298


--------------------------------------------------------------------------------------------------------




----------------------------------------- Iteration    1(  12)  ---------------------------------------


    POTLOK:  cpu time    2.13: real time    2.13
    SETDIJ:  cpu time    0.02: real time    0.02
     EDDAV:  cpu time  604.20: real time  604.50
 BZINTS: Fermi energy:  4.621919;128.000000 electrons
         Band energy:-573.414822;  BLOECHL correction:  0.000000
       DOS:  cpu time    0.03: real time    0.03
    CHARGE:  cpu time    8.48: real time    8.49
    MIXING:  cpu time    0.02: real time    0.02
    --------------------------------------------
      LOOP:  cpu time  614.89: real time  615.19

 eigenvalue-minimisations  : 15648
 total energy-change (2. order) : 0.7592711E-04  (-0.9181356E-04)
 number of electron     127.9999989 magnetization 
 augmentation part        3.0605247 magnetization 

 Broyden mixing:
  rms(total) = 0.80882E-02    rms(broyden)= 0.80881E-02
  rms(prec ) = 0.13915E-01
  weight for this iteration     100.00

 eigenvalues of (default mixing * dielectric matrix)
  average eigenvalue GAMMA=   1.3604
  2.6395  1.9794  1.9794  0.8289  0.8289  0.6334  0.6334

 Free energy of the ion-electron system (eV)
  ---------------------------------------------------
  alpha Z        PSCENC =       293.61525009
  Ewald energy   TEWEN  =     -3659.67181377
  -Hartree energ DENC   =     -1484.19560344
  -exchange      EXHF   =         0.00000000
  -V(xc)+E(xc)   XCENC  =       461.07677142
  PAW double counting   =      2223.01624011    -2264.23694005
  entropy T*S    EENTRO =         0.00000000
  eigenvalues    EBANDS =      -573.41482186
  atomic energy  EATOM  =      4708.94155045
  ---------------------------------------------------
  free energy    TOTEN  =      -294.86936706 eV

  energy without entropy =     -294.86936706  energy(sigma->0) =     -294.86936706


--------------------------------------------------------------------------------------------------------




----------------------------------------- Iteration    1(  13)  ---------------------------------------


    POTLOK:  cpu time    2.37: real time    2.37
    SETDIJ:  cpu time    0.02: real time    0.03
     EDDAV:  cpu time  600.65: real time  600.95
 BZINTS: Fermi energy:  4.625511;128.000000 electrons
         Band energy:-573.191854;  BLOECHL correction:  0.000000
       DOS:  cpu time    0.04: real time    0.04
    CHARGE:  cpu time    9.91: real time    9.91
    MIXING:  cpu time    0.02: real time    0.02
    --------------------------------------------
      LOOP:  cpu time  613.00: real time  613.31

 eigenvalue-minimisations  : 16332
 total energy-change (2. order) :-0.2406115E-03  (-0.4226470E-03)
 number of electron     127.9999989 magnetization 
 augmentation part        3.0604500 magnetization 

 Broyden mixing:
  rms(total) = 0.11624E-01    rms(broyden)= 0.11624E-01
  rms(prec ) = 0.22224E-01
  weight for this iteration     100.00

 eigenvalues of (default mixing * dielectric matrix)
  average eigenvalue GAMMA=   1.3099
  2.8975  2.4437  1.9497  0.7874  0.7874  0.8602  0.6075  0.1456

 Free energy of the ion-electron system (eV)
  ---------------------------------------------------
  alpha Z        PSCENC =       293.61525009
  Ewald energy   TEWEN  =     -3659.67181377
  -Hartree energ DENC   =     -1484.43643090
  -exchange      EXHF   =         0.00000000
  -V(xc)+E(xc)   XCENC  =       461.09411975
  PAW double counting   =      2223.29753116    -2264.51796027
  entropy T*S    EENTRO =         0.00000000
  eigenvalues    EBANDS =      -573.19185418
  atomic energy  EATOM  =      4708.94155045
  ---------------------------------------------------
  free energy    TOTEN  =      -294.86960767 eV

  energy without entropy =     -294.86960767  energy(sigma->0) =     -294.86960767


--------------------------------------------------------------------------------------------------------




----------------------------------------- Iteration    1(  14)  ---------------------------------------


    POTLOK:  cpu time    1.82: real time    1.82
    SETDIJ:  cpu time    0.03: real time    0.03
     EDDAV:  cpu time  718.08: real time  718.44
 BZINTS: Fermi energy:  4.626748;128.000000 electrons
         Band energy:-573.000166;  BLOECHL correction:  0.000000
       DOS:  cpu time    0.03: real time    0.03
    CHARGE:  cpu time    8.58: real time    8.59
    MIXING:  cpu time    0.02: real time    0.02
    --------------------------------------------
      LOOP:  cpu time  728.57: real time  728.93

 eigenvalue-minimisations  : 19440
 total energy-change (2. order) :-0.5512816E-03  (-0.4193465E-03)
 number of electron     127.9999989 magnetization 
 augmentation part        3.0603498 magnetization 

 Broyden mixing:
  rms(total) = 0.10633E-01    rms(broyden)= 0.10633E-01
  rms(prec ) = 0.18345E-01
  weight for this iteration     100.00

 eigenvalues of (default mixing * dielectric matrix)
  average eigenvalue GAMMA=   1.2117
  2.9014  2.4668  1.9447  0.9218  0.8206  0.8206  0.4439  0.4439  0.1417

 Free energy of the ion-electron system (eV)
  ---------------------------------------------------
  alpha Z        PSCENC =       293.61525009
  Ewald energy   TEWEN  =     -3659.67181377
  -Hartree energ DENC   =     -1484.64596569
  -exchange      EXHF   =         0.00000000
  -V(xc)+E(xc)   XCENC  =       461.10995090
  PAW double counting   =      2222.90096134    -2264.11992603
  entropy T*S    EENTRO =         0.00000000
  eigenvalues    EBANDS =      -573.00016625
  atomic energy  EATOM  =      4708.94155045
  ---------------------------------------------------
  free energy    TOTEN  =      -294.87015895 eV

  energy without entropy =     -294.87015895  energy(sigma->0) =     -294.87015895


--------------------------------------------------------------------------------------------------------




----------------------------------------- Iteration    1(  15)  ---------------------------------------


    POTLOK:  cpu time    1.49: real time    1.49
    SETDIJ:  cpu time    0.03: real time    0.03
     EDDAV:  cpu time  556.61: real time  556.89
 BZINTS: Fermi energy:  4.626757;128.000000 electrons
         Band energy:-573.007178;  BLOECHL correction:  0.000000
       DOS:  cpu time    0.03: real time    0.03
    CHARGE:  cpu time    8.46: real time    8.47
    MIXING:  cpu time    0.02: real time    0.02
    --------------------------------------------
      LOOP:  cpu time  566.64: real time  566.92

 eigenvalue-minimisations  : 14532
 total energy-change (2. order) : 0.7871604E-04  (-0.1986939E-04)
 number of electron     127.9999989 magnetization 
 augmentation part        3.0602931 magnetization 

 Broyden mixing:
  rms(total) = 0.10536E-01    rms(broyden)= 0.10536E-01
  rms(prec ) = 0.17948E-01
  weight for this iteration     100.00

 eigenvalues of (default mixing * dielectric matrix)
  average eigenvalue GAMMA=   1.1629
  2.9466  2.4631  1.9428  0.9177  0.9469  0.9469  0.5643  0.5643  0.1955  0.1412

 Free energy of the ion-electron system (eV)
  ---------------------------------------------------
  alpha Z        PSCENC =       293.61525009
  Ewald energy   TEWEN  =     -3659.67181377
  -Hartree energ DENC   =     -1484.63849056
  -exchange      EXHF   =         0.00000000
  -V(xc)+E(xc)   XCENC  =       461.10942613
  PAW double counting   =      2222.84337013    -2264.06219504
  entropy T*S    EENTRO =         0.00000000
  eigenvalues    EBANDS =      -573.00717766
  atomic energy  EATOM  =      4708.94155045
  ---------------------------------------------------
  free energy    TOTEN  =      -294.87008023 eV

  energy without entropy =     -294.87008023  energy(sigma->0) =     -294.87008023


--------------------------------------------------------------------------------------------------------




----------------------------------------- Iteration    1(  16)  ---------------------------------------


    POTLOK:  cpu time    1.73: real time    1.73
    SETDIJ:  cpu time    0.03: real time    0.03
     EDDAV:  cpu time  774.30: real time  774.69
 BZINTS: Fermi energy:  4.627153;128.000000 electrons
         Band energy:-573.008002;  BLOECHL correction:  0.000000
       DOS:  cpu time    0.03: real time    0.03
    CHARGE:  cpu time    8.42: real time    8.43
    MIXING:  cpu time    0.03: real time    0.03
    --------------------------------------------
      LOOP:  cpu time  784.53: real time  784.93

 eigenvalue-minimisations  : 22572
 total energy-change (2. order) : 0.3285200E-03  (-0.2051532E-04)
 number of electron     127.9999989 magnetization 
 augmentation part        3.0602947 magnetization 

 Broyden mixing:
  rms(total) = 0.90240E-02    rms(broyden)= 0.90240E-02
  rms(prec ) = 0.15318E-01
  weight for this iteration     100.00

 eigenvalues of (default mixing * dielectric matrix)
  average eigenvalue GAMMA=   1.1922
  2.9211  2.5011  1.8980  1.1010  1.1010  1.0158  0.8764  0.6811  0.6811  0.1951
  0.1427

 Free energy of the ion-electron system (eV)
  ---------------------------------------------------
  alpha Z        PSCENC =       293.61525009
  Ewald energy   TEWEN  =     -3659.67181377
  -Hartree energ DENC   =     -1484.63802670
  -exchange      EXHF   =         0.00000000
  -V(xc)+E(xc)   XCENC  =       461.10932029
  PAW double counting   =      2222.78829135    -2264.00632111
  entropy T*S    EENTRO =         0.00000000
  eigenvalues    EBANDS =      -573.00800232
  atomic energy  EATOM  =      4708.94155045
  ---------------------------------------------------
  free energy    TOTEN  =      -294.86975171 eV

  energy without entropy =     -294.86975171  energy(sigma->0) =     -294.86975171


--------------------------------------------------------------------------------------------------------




----------------------------------------- Iteration    1(  17)  ---------------------------------------


    POTLOK:  cpu time    1.59: real time    1.59
    SETDIJ:  cpu time    0.02: real time    0.02
     EDDAV:  cpu time  808.75: real time  809.15
 BZINTS: Fermi energy:  4.624535;128.000000 electrons
         Band energy:-573.022807;  BLOECHL correction:  0.000000
       DOS:  cpu time    0.03: real time    0.03
    CHARGE:  cpu time    8.54: real time    8.55
    MIXING:  cpu time    0.02: real time    0.02
    --------------------------------------------
      LOOP:  cpu time  818.96: real time  819.37

 eigenvalue-minimisations  : 23424
 total energy-change (2. order) : 0.1505662E-03  (-0.3731521E-03)
 number of electron     127.9999989 magnetization 
 augmentation part        3.0603092 magnetization 

 Broyden mixing:
  rms(total) = 0.68503E-02    rms(broyden)= 0.68497E-02
  rms(prec ) = 0.12023E-01
  weight for this iteration     100.00

 eigenvalues of (default mixing * dielectric matrix)
  average eigenvalue GAMMA=   1.1214
  2.8888  2.5096  1.8311  1.5255  0.9061  0.8055  0.8055  0.6677  0.6677  0.5126
  0.1937  0.1428

 Free energy of the ion-electron system (eV)
  ---------------------------------------------------
  alpha Z        PSCENC =       293.61525009
  Ewald energy   TEWEN  =     -3659.67181377
  -Hartree energ DENC   =     -1484.62272748
  -exchange      EXHF   =         0.00000000
  -V(xc)+E(xc)   XCENC  =       461.10806195
  PAW double counting   =      2222.72235072    -2263.93946626
  entropy T*S    EENTRO =         0.00000000
  eigenvalues    EBANDS =      -573.02280685
  atomic energy  EATOM  =      4708.94155045
  ---------------------------------------------------
  free energy    TOTEN  =      -294.86960115 eV

  energy without entropy =     -294.86960115  energy(sigma->0) =     -294.86960115


--------------------------------------------------------------------------------------------------------




----------------------------------------- Iteration    1(  18)  ---------------------------------------


    POTLOK:  cpu time    2.21: real time    2.21
    SETDIJ:  cpu time    0.03: real time    0.03
     EDDAV:  cpu time  577.21: real time  577.52
 BZINTS: Fermi energy:  4.624448;128.000000 electrons
         Band energy:-573.025132;  BLOECHL correction:  0.000000
       DOS:  cpu time    0.03: real time    0.03
    CHARGE:  cpu time    8.88: real time    8.89
    MIXING:  cpu time    0.03: real time    0.03
    --------------------------------------------
      LOOP:  cpu time  588.39: real time  588.71

 eigenvalue-minimisations  : 14436
 total energy-change (2. order) : 0.9721399E-04  (-0.2923315E-04)
 number of electron     127.9999989 magnetization 
 augmentation part        3.0603196 magnetization 

 Broyden mixing:
  rms(total) = 0.26465E-02    rms(broyden)= 0.26465E-02
  rms(prec ) = 0.44648E-02
  weight for this iteration     100.00

 eigenvalues of (default mixing * dielectric matrix)
  average eigenvalue GAMMA=   1.0487
  2.8889  2.5086  1.8232  1.5546  0.8877  0.7972  0.7972  0.6215  0.6215  0.4987
  0.2979  0.1940  0.1428

 Free energy of the ion-electron system (eV)
  ---------------------------------------------------
  alpha Z        PSCENC =       293.61525009
  Ewald energy   TEWEN  =     -3659.67181377
  -Hartree energ DENC   =     -1484.62018996
  -exchange      EXHF   =         0.00000000
  -V(xc)+E(xc)   XCENC  =       461.10780786
  PAW double counting   =      2222.70578380    -2263.92276078
  entropy T*S    EENTRO =         0.00000000
  eigenvalues    EBANDS =      -573.02513163
  atomic energy  EATOM  =      4708.94155045
  ---------------------------------------------------
  free energy    TOTEN  =      -294.86950393 eV

  energy without entropy =     -294.86950393  energy(sigma->0) =     -294.86950393


--------------------------------------------------------------------------------------------------------




----------------------------------------- Iteration    1(  19)  ---------------------------------------


    POTLOK:  cpu time    1.39: real time    1.40
    SETDIJ:  cpu time    0.02: real time    0.03
     EDDAV:  cpu time  584.85: real time  585.15
 BZINTS: Fermi energy:  4.624425;128.000000 electrons
         Band energy:-573.022974;  BLOECHL correction:  0.000000
       DOS:  cpu time    0.04: real time    0.04
    CHARGE:  cpu time    8.44: real time    8.44
    MIXING:  cpu time    0.03: real time    0.03
    --------------------------------------------
      LOOP:  cpu time  594.77: real time  595.08

 eigenvalue-minimisations  : 15096
 total energy-change (2. order) : 0.5907605E-06  (-0.4283180E-05)
 number of electron     127.9999989 magnetization 
 augmentation part        3.0603150 magnetization 

 Broyden mixing:
  rms(total) = 0.18926E-02    rms(broyden)= 0.18925E-02
  rms(prec ) = 0.22993E-02
  weight for this iteration     100.00

 eigenvalues of (default mixing * dielectric matrix)
  average eigenvalue GAMMA=   1.0478
  2.8583  2.5195  1.7660  1.7660  0.9700  0.9700  0.8800  0.6831  0.6831  0.5936
  0.3212  0.3212  0.1937  0.1428

 Free energy of the ion-electron system (eV)
  ---------------------------------------------------
  alpha Z        PSCENC =       293.61525009
  Ewald energy   TEWEN  =     -3659.67181377
  -Hartree energ DENC   =     -1484.62244580
  -exchange      EXHF   =         0.00000000
  -V(xc)+E(xc)   XCENC  =       461.10794021
  PAW double counting   =      2222.70763543    -2263.92464589
  entropy T*S    EENTRO =         0.00000000
  eigenvalues    EBANDS =      -573.02297407
  atomic energy  EATOM  =      4708.94155045
  ---------------------------------------------------
  free energy    TOTEN  =      -294.86950334 eV

  energy without entropy =     -294.86950334  energy(sigma->0) =     -294.86950334


--------------------------------------------------------------------------------------------------------




----------------------------------------- Iteration    1(  20)  ---------------------------------------


    POTLOK:  cpu time    1.96: real time    1.96
    SETDIJ:  cpu time    0.02: real time    0.02
     EDDAV:  cpu time  679.95: real time  680.30
 BZINTS: Fermi energy:  4.624423;128.000000 electrons
         Band energy:-573.017132;  BLOECHL correction:  0.000000
       DOS:  cpu time    0.03: real time    0.03
    CHARGE:  cpu time    9.87: real time    9.87
    MIXING:  cpu time    0.03: real time    0.03
    --------------------------------------------
      LOOP:  cpu time  691.87: real time  692.23

 eigenvalue-minimisations  : 18744
 total energy-change (2. order) :-0.1961209E-05  (-0.3815584E-05)
 number of electron     127.9999989 magnetization 
 augmentation part        3.0603094 magnetization 

 Broyden mixing:
  rms(total) = 0.26195E-02    rms(broyden)= 0.26194E-02
  rms(prec ) = 0.44386E-02
  weight for this iteration     100.00

 eigenvalues of (default mixing * dielectric matrix)
  average eigenvalue GAMMA=   1.0604
  2.8817  2.5022  1.8259  1.8259  1.1470  1.1470  0.8293  0.7913  0.6772  0.6772
  0.5006  0.3821  0.3821  0.1937  0.1428

 Free energy of the ion-electron system (eV)
  ---------------------------------------------------
  alpha Z        PSCENC =       293.61525009
  Ewald energy   TEWEN  =     -3659.67181377
  -Hartree energ DENC   =     -1484.62848204
  -exchange      EXHF   =         0.00000000
  -V(xc)+E(xc)   XCENC  =       461.10827253
  PAW double counting   =      2222.71162509    -2263.92877541
  entropy T*S    EENTRO =         0.00000000
  eigenvalues    EBANDS =      -573.01713225
  atomic energy  EATOM  =      4708.94155045
  ---------------------------------------------------
  free energy    TOTEN  =      -294.86950530 eV

  energy without entropy =     -294.86950530  energy(sigma->0) =     -294.86950530


--------------------------------------------------------------------------------------------------------




----------------------------------------- Iteration    1(  21)  ---------------------------------------


    POTLOK:  cpu time    1.55: real time    1.55
    SETDIJ:  cpu time    0.03: real time    0.03
     EDDAV:  cpu time  726.36: real time  726.73
 BZINTS: Fermi energy:  4.624499;128.000000 electrons
         Band energy:-573.011930;  BLOECHL correction:  0.000000
       DOS:  cpu time    0.03: real time    0.03
    CHARGE:  cpu time    8.74: real time    8.75
    MIXING:  cpu time    0.03: real time    0.03
    --------------------------------------------
      LOOP:  cpu time  736.74: real time  737.12

 eigenvalue-minimisations  : 19176
 total energy-change (2. order) :-0.1379582E-04  (-0.3420398E-04)
 number of electron     127.9999989 magnetization 
 augmentation part        3.0603066 magnetization 

 Broyden mixing:
  rms(total) = 0.46086E-02    rms(broyden)= 0.46085E-02
  rms(prec ) = 0.77293E-02
  weight for this iteration     100.00

 eigenvalues of (default mixing * dielectric matrix)
  average eigenvalue GAMMA=   1.0495
  2.9273  2.5082  1.9768  1.9768  1.0945  1.0945  0.6998  0.6998  0.8215  0.7302
  0.7302  0.4837  0.3563  0.3563  0.1937  0.1428

 Free energy of the ion-electron system (eV)
  ---------------------------------------------------
  alpha Z        PSCENC =       293.61525009
  Ewald energy   TEWEN  =     -3659.67181377
  -Hartree energ DENC   =     -1484.63402139
  -exchange      EXHF   =         0.00000000
  -V(xc)+E(xc)   XCENC  =       461.10857988
[...]
     79      12.1413      0.00000
     80      12.1443      0.00000
     81      12.5643      0.00000
     82      12.5659      0.00000
     83      12.8571      0.00000
     84      12.8590      0.00000

 k-point    75 :       0.3333    0.5000    0.5000
  band No.  band energies     occupation 
      1     -13.8077      2.00000
      2     -13.8075      2.00000
      3     -13.6184      2.00000
      4     -13.6181      2.00000
      5     -12.8371      2.00000
      6     -12.8369      2.00000
      7     -12.6597      2.00000
      8     -12.6594      2.00000
      9     -11.8779      2.00000
     10     -11.8776      2.00000
     11     -11.7122      2.00000
     12     -11.7119      2.00000
     13      -9.2025      2.00000
     14      -9.2020      2.00000
     15      -9.0803      2.00000
     16      -9.0797      2.00000
     17      -7.3272      2.00000
     18      -7.3246      2.00000
     19      -7.2452      2.00000
     20      -7.2426      2.00000
     21      -5.0272      2.00000
     22      -5.0249      2.00000
     23      -4.9628      2.00000
     24      -4.9607      2.00000
     25      -4.8597      2.00000
     26      -4.8583      2.00000
     27      -4.7896      2.00000
     28      -4.7881      2.00000
     29      -3.8848      2.00000
     30      -3.8828      2.00000
     31      -3.8100      2.00000
     32      -3.8081      2.00000
     33      -2.8266      2.00000
     34      -2.8249      2.00000
     35      -2.7778      2.00000
     36      -2.7764      2.00000
     37      -2.2314      2.00000
     38      -2.2303      2.00000
     39      -1.7977      2.00000
     40      -1.7935      2.00000
     41      -1.7502      2.00000
     42      -1.7467      2.00000
     43      -1.2751      2.00000
     44      -1.2727      2.00000
     45      -1.2352      2.00000
     46      -1.2325      2.00000
     47      -1.0872      2.00000
     48      -1.0862      2.00000
     49      -0.9595      2.00000
     50      -0.9583      2.00000
     51      -0.3860      2.00000
     52      -0.3821      2.00000
     53      -0.3561      2.00000
     54      -0.3511      2.00000
     55       0.0252      2.00000
     56       0.0261      2.00000
     57       0.1129      2.00000
     58       0.1141      2.00000
     59       1.1435      2.00000
     60       1.1445      2.00000
     61       2.9229      2.00000
     62       2.9249      2.00000
     63       3.6232      2.00000
     64       3.6256      2.00000
     65       5.7657      0.00000
     66       5.7692      0.00000
     67       6.1320      0.00000
     68       6.1349      0.00000
     69       8.8484      0.00000
     70       8.8501      0.00000
     71       9.2743      0.00000
     72       9.2758      0.00000
     73      10.3154      0.00000
     74      10.3185      0.00000
     75      10.8027      0.00000
     76      10.8051      0.00000
     77      10.9789      0.00000
     78      10.9816      0.00000
     79      12.1384      0.00000
     80      12.1414      0.00000
     81      12.5602      0.00000
     82      12.5624      0.00000
     83      12.8550      0.00000
     84      12.8572      0.00000

 k-point    76 :       0.5000    0.5000    0.5000
  band No.  band energies     occupation 
      1     -13.4855      2.00000
      2     -13.4826      2.00000
      3     -13.4826      2.00000
      4     -13.4799      2.00000
      5     -13.3000      2.00000
      6     -13.2972      2.00000
      7     -13.2972      2.00000
      8     -13.2944      2.00000
      9     -10.6410      2.00000
     10     -10.6394      2.00000
     11     -10.6394      2.00000
     12     -10.6375      2.00000
     13     -10.4914      2.00000
     14     -10.4898      2.00000
     15     -10.4898      2.00000
     16     -10.4879      2.00000
     17      -5.8902      2.00000
     18      -5.8902      2.00000
     19      -5.8898      2.00000
     20      -5.8860      2.00000
     21      -5.8394      2.00000
     22      -5.8394      2.00000
     23      -5.8390      2.00000
     24      -5.8346      2.00000
     25      -4.3061      2.00000
     26      -4.3031      2.00000
     27      -4.3018      2.00000
     28      -4.3018      2.00000
     29      -4.2676      2.00000
     30      -4.2653      2.00000
     31      -4.2641      2.00000
     32      -4.2641      2.00000
     33      -2.8050      2.00000
     34      -2.7989      2.00000
     35      -2.7989      2.00000
     36      -2.7985      2.00000
     37      -2.7368      2.00000
     38      -2.7317      2.00000
     39      -2.7317      2.00000
     40      -2.7313      2.00000
     41      -1.8482      2.00000
     42      -1.8461      2.00000
     43      -1.8460      2.00000
     44      -1.8432      2.00000
     45      -0.5997      2.00000
     46      -0.5975      2.00000
     47      -0.5973      2.00000
     48      -0.5942      2.00000
     49      -0.3816      2.00000
     50      -0.3800      2.00000
     51      -0.3800      2.00000
     52      -0.3736      2.00000
     53      -0.3492      2.00000
     54      -0.3478      2.00000
     55      -0.3478      2.00000
     56      -0.3378      2.00000
     57       1.4222      2.00000
     58       1.4253      2.00000
     59       1.4254      2.00000
     60       1.4266      2.00000
     61       2.4077      2.00000
     62       2.4112      2.00000
     63       2.4114      2.00000
     64       2.4126      2.00000
     65       7.2432      0.00000
     66       7.2435      0.00000
     67       7.2435      0.00000
     68       7.2482      0.00000
     69       7.6476      0.00000
     70       7.6482      0.00000
     71       7.6483      0.00000
     72       7.6527      0.00000
     73      11.2675      0.00000
     74      11.2772      0.00000
     75      11.2778      0.00000
     76      11.2856      0.00000
     77      11.7256      0.00000
     78      11.7333      0.00000
     79      11.7355      0.00000
     80      11.7422      0.00000
     81      12.0681      0.00000
     82      12.0734      0.00000
     83      12.0742      0.00000
     84      12.0761      0.00000


--------------------------------------------------------------------------------------------------------


 soft charge-density along one line, spin component           1
         0         1         2         3         4         5         6         7         8         9
 total charge-density along one line
 
 pseudopotential strength for first ion, spin component:           1
  9.775   0.005  -0.000   0.000   0.000   0.000  -0.000   0.000
  0.005  -0.002   0.000   0.000  -0.000   0.000  -0.000   0.000
 -0.000   0.000  -3.948   0.000   0.000  -0.015  -0.000  -0.000
  0.000   0.000   0.000  -3.941  -0.000  -0.000  -0.012   0.000
  0.000  -0.000   0.000  -0.000  -3.948  -0.000   0.000  -0.015
  0.000   0.000  -0.015  -0.000  -0.000  -0.763   0.000   0.000
 -0.000  -0.000  -0.000  -0.012   0.000   0.000  -0.763  -0.000
  0.000   0.000  -0.000   0.000  -0.015   0.000  -0.000  -0.763
 total augmentation occupancy for first ion, spin component:           1
  1.469  -1.121   0.000   0.000  -0.000   0.000  -0.000  -0.000
 -1.121   1.059  -0.000   0.000   0.000  -0.000   0.000   0.000
  0.000  -0.000   1.222   0.000   0.000   0.228   0.000  -0.000
  0.000   0.000   0.000   0.926  -0.000   0.000   0.105  -0.000
 -0.000   0.000   0.000  -0.000   1.222  -0.000  -0.000   0.228
  0.000  -0.000   0.228   0.000  -0.000   0.048   0.000  -0.000
 -0.000   0.000   0.000   0.105  -0.000   0.000   0.013  -0.000
 -0.000   0.000  -0.000  -0.000   0.228  -0.000  -0.000   0.048


------------------------ aborting loop because EDIFF is reached ----------------------------------------


    CHARGE:  cpu time    9.36: real time    9.39
    FORLOC:  cpu time    0.09: real time    0.09
    FORNL :  cpu time   43.35: real time   43.43
    STRESS:  cpu time   89.05: real time   89.09
    FORHAR:  cpu time    0.35: real time    0.35
    MIXING:  cpu time    0.05: real time    0.05
    OFIELD:  cpu time    0.00: real time    0.00

 ---------------------------------------------------------------------------------------------

         DFTD3 V3.0 Rev 1        
 IVDW         = 12
 DF pbe       
 parameters
 VDW_S6       =    1.0000
 VDW_S8       =    0.7875
 VDW_A1       =    0.4289
 VDW_A2       =    4.4407
 k1-k3        =   16.0000    1.3333   -4.0000
 VDW_RADIUS   =   50.2022 A
 VDW_CNRADIUS =   21.1671 A
 Edisp (eV)   -4.97097

 E6    (eV) :    -3.5633
 E8    (eV) :    -1.4076
 % E8        : 28.32
    FORVDW:  cpu time    0.20: real time    0.21

  FORCE on cell =-STRESS in cart. coord.  units (eV):
  Direction    XX          YY          ZZ          XY          YZ          ZX
  --------------------------------------------------------------------------------------
  Alpha Z   293.61525   293.61525   293.61525
  Ewald     643.91184   643.43404 -4947.03791    -1.16717    -0.00061    -0.00694
  Hartree  1304.22759  1304.23638 -1123.81959    -0.09876    -0.00024    -0.00133
  E(xc)    -467.61901  -467.62575  -484.80538    -0.00880    -0.00004     0.00004
  Local   -3572.11458 -3571.74935  4177.89529     1.03584     0.00006     0.00731
  n-local  -111.70853  -111.82150  -102.46123    -0.10303    -0.00071     0.00082
  augment   -12.36448   -12.36356   -11.33448     0.00198     0.00001     0.00000
  Kinetic  1922.27760  1923.04444  2203.35626     0.79150     0.00940    -0.00954
  Fock        0.00000     0.00000     0.00000     0.00000     0.00000     0.00000
  vdW        -0.76599    -0.75618    -5.95253     0.00889     0.00000    -0.00001
  -------------------------------------------------------------------------------------
  Total      -0.54031     0.01377    -0.54432     0.46044     0.00787    -0.00966
  in kB      -3.04635     0.07765    -3.06896     2.59602     0.04437    -0.05444
  external pressure =       -2.01 kB  Pullay stress =        0.00 kB


 VOLUME and BASIS-vectors are now :
 -----------------------------------------------------------------------------
  energy-cutoff  :      800.00
  volume of cell :      284.17
      direct lattice vectors                 reciprocal lattice vectors
     4.932874498 -0.001919286  0.000000000     0.202767147  0.117172881  0.000000000
    -2.468099399  4.271034986  0.000000000     0.000091118  0.234187941  0.000000000
     0.000000000  0.000000000 13.490800000     0.000000000  0.000000000  0.074124589

  length of vectors
     4.932874871  4.932874871 13.490800000     0.234187958  0.234187958  0.074124589


 FORCES acting on ions
    electron-ion (+dipol)            ewald-force                    non-local-force                 convergence-correction
 -----------------------------------------------------------------------------------------------
   -.332E-01 0.670E-01 -.324E+00   0.311E-01 -.623E-01 0.322E+00   -.412E-02 0.293E-02 -.666E-02   -.942E-04 0.307E-04 0.359E-03
   -.344E+00 0.587E-01 -.848E+00   0.339E+00 -.531E-01 0.879E+00   -.291E-01 0.275E-02 -.748E-01   -.973E-04 0.308E-04 0.357E-03
   0.224E+00 0.393E+00 -.844E+00   -.282E+00 -.419E+00 0.874E+00   -.209E-01 0.754E-02 -.745E-01   -.942E-04 0.341E-04 0.356E-03
   0.213E+00 -.255E+00 -.851E+00   -.270E+00 0.291E+00 0.883E+00   -.219E-01 -.126E-02 -.750E-01   -.950E-04 0.306E-04 0.357E-03
   -.118E+00 0.665E-01 0.959E-01   0.107E+00 -.620E-01 -.954E-01   -.588E-02 0.286E-02 0.370E-02   0.995E-04 0.347E-04 0.114E-03
   -.118E+00 0.665E-01 0.963E-01   0.107E+00 -.620E-01 -.958E-01   -.588E-02 0.286E-02 0.365E-02   0.993E-04 0.347E-04 0.114E-03
   -.118E+00 0.665E-01 0.963E-01   0.107E+00 -.620E-01 -.958E-01   -.588E-02 0.287E-02 0.365E-02   0.995E-04 0.345E-04 0.114E-03
   -.118E+00 0.665E-01 0.963E-01   0.107E+00 -.620E-01 -.958E-01   -.588E-02 0.286E-02 0.366E-02   0.996E-04 0.343E-04 0.114E-03
   0.971E-01 -.590E-01 0.942E-01   -.878E-01 0.528E-01 -.944E-01   0.535E-02 -.340E-02 -.424E-02   -.554E-04 0.175E-04 -.252E-03
   0.137E+00 -.547E-01 0.108E+00   -.128E+00 0.484E-01 -.109E+00   0.534E-02 -.338E-02 -.400E-02   -.560E-04 0.178E-04 -.253E-03
   0.113E+00 -.910E-01 0.101E+00   -.104E+00 0.848E-01 -.101E+00   0.533E-02 -.338E-02 -.411E-02   -.559E-04 0.174E-04 -.253E-03
   0.120E+00 -.681E-01 0.768E-01   -.111E+00 0.619E-01 -.773E-01   0.538E-02 -.338E-02 -.331E-02   -.555E-04 0.171E-04 -.253E-03
   0.136E+00 -.797E-01 0.108E+00   -.128E+00 0.759E-01 -.109E+00   0.515E-02 -.264E-02 -.402E-02   -.661E-04 0.542E-04 -.214E-03
   0.963E-01 -.751E-01 0.938E-01   -.876E-01 0.711E-01 -.940E-01   0.517E-02 -.261E-02 -.426E-02   -.664E-04 0.543E-04 -.214E-03
   0.112E+00 -.428E-01 0.101E+00   -.104E+00 0.389E-01 -.101E+00   0.513E-02 -.264E-02 -.414E-02   -.662E-04 0.542E-04 -.214E-03
   0.119E+00 -.659E-01 0.766E-01   -.111E+00 0.620E-01 -.772E-01   0.525E-02 -.264E-02 -.331E-02   -.659E-04 0.539E-04 -.214E-03
   -.642E+00 -.623E-01 0.173E+01   0.759E+00 0.576E-01 -.177E+01   0.979E-01 -.270E-02 0.180E+00   0.949E-04 -.327E-04 0.412E-03
   0.307E+00 -.657E-01 -.385E+00   -.324E+00 0.619E-01 0.369E+00   -.155E-01 -.261E-02 0.231E-01   0.897E-04 -.311E-04 0.351E-03
   0.133E+00 -.166E+00 -.386E+00   -.126E+00 0.176E+00 0.369E+00   -.467E-02 0.372E-02 0.232E-01   0.937E-04 -.291E-04 0.352E-03
   0.133E+00 0.350E-01 -.386E+00   -.126E+00 -.530E-01 0.369E+00   -.476E-02 -.873E-02 0.231E-01   0.950E-04 -.349E-04 0.349E-03
   0.116E+00 -.656E-01 0.966E-01   -.107E+00 0.618E-01 -.962E-01   0.523E-02 -.250E-02 -.120E-02   -.103E-03 -.320E-04 0.110E-03
   0.117E+00 -.656E-01 0.958E-01   -.107E+00 0.618E-01 -.955E-01   0.524E-02 -.250E-02 -.990E-03   -.102E-03 -.318E-04 0.110E-03
   0.117E+00 -.656E-01 0.958E-01   -.107E+00 0.618E-01 -.955E-01   0.524E-02 -.250E-02 -.990E-03   -.103E-03 -.316E-04 0.110E-03
   0.117E+00 -.655E-01 0.958E-01   -.107E+00 0.617E-01 -.955E-01   0.523E-02 -.250E-02 -.989E-03   -.102E-03 -.314E-04 0.110E-03
   -.947E-01 0.534E-01 0.108E+00   0.869E-01 -.481E-01 -.108E+00   -.499E-02 0.308E-02 0.107E-02   0.542E-04 -.180E-04 -.249E-03
   -.135E+00 0.578E-01 0.942E-01   0.127E+00 -.525E-01 -.944E-01   -.467E-02 0.315E-02 0.732E-03   0.542E-04 -.181E-04 -.249E-03
   -.119E+00 0.905E-01 0.101E+00   0.111E+00 -.846E-01 -.102E+00   -.490E-02 0.284E-02 0.933E-03   0.544E-04 -.173E-04 -.249E-03
   -.112E+00 0.672E-01 0.772E-01   0.104E+00 -.617E-01 -.774E-01   -.474E-02 0.302E-02 0.987E-03   0.541E-04 -.173E-04 -.249E-03
   -.134E+00 0.742E-01 0.937E-01   0.127E+00 -.710E-01 -.939E-01   -.419E-02 0.210E-02 0.643E-03   0.724E-04 -.550E-04 -.210E-03
   -.932E-01 0.789E-01 0.108E+00   0.867E-01 -.757E-01 -.109E+00   -.452E-02 0.217E-02 0.114E-02   0.729E-04 -.565E-04 -.210E-03
   -.118E+00 0.413E-01 0.101E+00   0.111E+00 -.386E-01 -.102E+00   -.442E-02 0.242E-02 0.931E-03   0.741E-04 -.554E-04 -.210E-03
   -.110E+00 0.647E-01 0.770E-01   0.103E+00 -.617E-01 -.772E-01   -.423E-02 0.223E-02 0.101E-02   0.716E-04 -.552E-04 -.210E-03
 -----------------------------------------------------------------------------------------------
   0.743E-04 -.439E-04 -.520E-02   0.162E-13 0.395E-13 0.213E-13   -.918E-04 0.394E-04 0.510E-02   0.119E-05 0.324E-05 0.838E-04
 
 
 POSITION                                       TOTAL-FORCE (eV/Angst)
 -----------------------------------------------------------------------------------
      2.46402      0.00044      1.68635        -0.006486      0.007740     -0.008159
      4.93046     -0.00052      1.68635        -0.033706      0.008435     -0.043229
      1.22997      2.13595      1.68635        -0.079027     -0.018310     -0.043631
      3.69641      2.13499      1.68635        -0.079162      0.034014     -0.042758
      2.46402      0.00044      8.43175        -0.016666      0.007440      0.004303
      4.93046     -0.00052      8.43175        -0.016666      0.007440      0.004287
      1.22997      2.13595      8.43175        -0.016668      0.007439      0.004283
      3.69641      2.13499      8.43175        -0.016668      0.007441      0.004289
     -1.23163      2.13412      5.05905         0.014695     -0.009607     -0.004666
      1.23481      2.13316      5.05905         0.014568     -0.009657     -0.004834
     -2.46568      4.26964      5.05905         0.014670     -0.009568     -0.004740
      0.00076      4.26868      5.05905         0.014551     -0.009615     -0.004062
     -1.23163      2.13412     11.80445         0.013676     -0.006364     -0.004849
      1.23481      2.13316     11.80445         0.013797     -0.006539     -0.004675
     -2.46568      4.26964     11.80445         0.013882     -0.006499     -0.004757
      0.00076      4.26868     11.80445         0.013677     -0.006460     -0.004060
     -0.00676      1.42496      1.67696         0.216962     -0.007465      0.135398
      2.46311      1.42400      1.68635        -0.033186     -0.006502      0.006869
     -1.23737      3.56047      1.68635         0.002667      0.014225      0.006801
      1.22906      3.55952      1.68635         0.002775     -0.027351      0.007040
     -0.00332      1.42496      8.43175         0.014785     -0.006378     -0.000729
      2.46311      1.42400      8.43175         0.014788     -0.006377     -0.000549
     -1.23737      3.56047      8.43175         0.014786     -0.006379     -0.000549
      1.22906      3.55952      8.43175         0.014785     -0.006376     -0.000550
      1.23571      0.70960      5.05905        -0.012829      0.008432      0.000387
      3.70215      0.70864      5.05905        -0.013160      0.008457      0.000330
      0.00166      2.84512      5.05905        -0.013020      0.008728      0.000383
      2.46810      2.84416      5.05905        -0.013004      0.008554      0.000651
      1.23571      0.70960     11.80445        -0.011392      0.005382      0.000257
      3.70215      0.70864     11.80445        -0.011048      0.005367      0.000452
      0.00166      2.84512     11.80445        -0.011211      0.005090      0.000389
      2.46810      2.84416     11.80445        -0.011163      0.005263      0.000680
 -----------------------------------------------------------------------------------
    total drift:                               -0.000016     -0.000001     -0.000018


--------------------------------------------------------------------------------------------------------



  FREE ENERGIE OF THE ION-ELECTRON SYSTEM (eV)
  ---------------------------------------------------
  free  energy   TOTEN  =      -299.84047354 eV

  energy  without entropy=     -299.84047354  energy(sigma->0) =     -299.84047354
 


--------------------------------------------------------------------------------------------------------


    POTLOK:  cpu time    1.30: real time    1.30


--------------------------------------------------------------------------------------------------------


     LOOP+:  cpu time20588.84: real time21313.95
    4ORBIT:  cpu time    0.00: real time    0.00
 BZINTS: Fermi energy:  4.624788;128.000000 electrons
         Band energy:-573.002117;  BLOECHL correction:  0.000000

 total amount of memory used by VASP on root node   407401. kBytes
========================================================================

   base      :      30000. kBytes
   nonl-proj :      78801. kBytes
   fftplans  :      14247. kBytes
   grid      :      30326. kBytes
   one-center:         98. kBytes
   wavefun   :     253929. kBytes
 
  
  
 General timing and accounting informations for this job:
 ========================================================
  
                  Total CPU time used (sec):    20756.480
                            User time (sec):    10057.863
                          System time (sec):    10698.617
                         Elapsed time (sec):    21564.762
  
                   Maximum memory used (kb):      497384.
                   Average memory used (kb):           0.
  
                          Minor page faults:     69993822
                          Major page faults:            0
                 Voluntary context switches:         1280
