   4   4   0   0
  0.8206758E+01  0.2466437E-09  0.2466437E-09  0.6233846E-09  0.5000000E-15
  1.000000000000000E-004
  CAR 
 graphite                                
     19.20086761    -16.38227913  301      5.32216762      1.00000000
    -16.382  0.0000E+00  0.0000E+00
    -16.264  0.0000E+00  0.0000E+00
    -16.145  0.0000E+00  0.0000E+00
    -16.026  0.0000E+00  0.0000E+00
    -15.908  0.0000E+00  0.0000E+00
    -15.789  0.0000E+00  0.0000E+00
    -15.671  0.0000E+00  0.0000E+00
    -15.552  0.0000E+00  0.0000E+00
    -15.433  0.0000E+00  0.0000E+00
    -15.315  0.0000E+00  0.0000E+00
    -15.196  0.0000E+00  0.0000E+00
    -15.078  0.0000E+00  0.0000E+00
    -14.959  0.0000E+00  0.0000E+00
    -14.840  0.0000E+00  0.0000E+00
    -14.722  0.0000E+00  0.0000E+00
    -14.603  0.0000E+00  0.0000E+00
    -14.485  0.0000E+00  0.0000E+00
    -14.366  0.2832E-04  0.1546E-06
    -14.247  0.9228E-03  0.4840E-04
    -14.129  0.1355E-02  0.1916E-03
    -14.010  0.1819E-02  0.3788E-03
    -13.891  0.2437E-02  0.6285E-03
    -13.773  0.3198E-02  0.9688E-03
    -13.654  0.2983E-02  0.1336E-02
    -13.536  0.3073E-02  0.1695E-02
    -13.417  0.3127E-02  0.2063E-02
    -13.298  0.3092E-02  0.2432E-02
    -13.180  0.3098E-02  0.2799E-02
    -13.061  0.3117E-02  0.3168E-02
    -12.943  0.3126E-02  0.3538E-02
    -12.824  0.3119E-02  0.3909E-02
    -12.705  0.3078E-02  0.4276E-02
    -12.587  0.3099E-02  0.4642E-02
    -12.468  0.3134E-02  0.5012E-02
    -12.350  0.3175E-02  0.5386E-02
    -12.231  0.3171E-02  0.5763E-02
    -12.112  0.3171E-02  0.6139E-02
    -11.994  0.3165E-02  0.6515E-02
    -11.875  0.3137E-02  0.6889E-02
    -11.756  0.3134E-02  0.7260E-02
    -11.638  0.3155E-02  0.7633E-02
    -11.519  0.3181E-02  0.8009E-02
    -11.401  0.3211E-02  0.8388E-02
    -11.282  0.3246E-02  0.8771E-02
    -11.163  0.3247E-02  0.9156E-02
    -11.045  0.3250E-02  0.9541E-02
    -10.926  0.3245E-02  0.9926E-02
    -10.808  0.3233E-02  0.1031E-01
    -10.689  0.3243E-02  0.1069E-01
    -10.570  0.3260E-02  0.1108E-01
    -10.452  0.3289E-02  0.1147E-01
    -10.333  0.3318E-02  0.1186E-01
    -10.215  0.3356E-02  0.1226E-01
    -10.096  0.3403E-02  0.1266E-01
     -9.977  0.3455E-02  0.1306E-01
     -9.859  0.3512E-02  0.1348E-01
     -9.740  0.3595E-02  0.1390E-01
     -9.621  0.3695E-02  0.1433E-01
     -9.503  0.3823E-02  0.1478E-01
     -9.384  0.4686E-02  0.1527E-01
     -9.266  0.5048E-02  0.1585E-01
     -9.147  0.5189E-02  0.1646E-01
     -9.028  0.4750E-02  0.1708E-01
     -8.910  0.3500E-02  0.1756E-01
     -8.791  0.2723E-02  0.1793E-01
     -8.673  0.2434E-02  0.1823E-01
     -8.554  0.3758E-02  0.1858E-01
     -8.435  0.2643E-02  0.1893E-01
     -8.317  0.2590E-02  0.1924E-01
     -8.198  0.1176E-02  0.1944E-01
     -8.080  0.1029E-02  0.1957E-01
     -7.961  0.8813E-03  0.1969E-01
     -7.842  0.8017E-03  0.1978E-01
     -7.724  0.9967E-03  0.1989E-01
     -7.605  0.1289E-02  0.2002E-01
     -7.486  0.1581E-02  0.2019E-01
     -7.368  0.3622E-02  0.2048E-01
     -7.249  0.4131E-02  0.2099E-01
     -7.131  0.4292E-02  0.2149E-01
     -7.012  0.3856E-02  0.2198E-01
     -6.893  0.4644E-02  0.2249E-01
     -6.775  0.5432E-02  0.2309E-01
     -6.656  0.5944E-02  0.2378E-01
     -6.538  0.4842E-02  0.2440E-01
     -6.419  0.3545E-02  0.2490E-01
     -6.300  0.3443E-02  0.2532E-01
     -6.182  0.3349E-02  0.2572E-01
     -6.063  0.3264E-02  0.2611E-01
     -5.945  0.3181E-02  0.2649E-01
     -5.826  0.3090E-02  0.2687E-01
     -5.707  0.2995E-02  0.2723E-01
     -5.589  0.2899E-02  0.2758E-01
     -5.470  0.2804E-02  0.2792E-01
     -5.352  0.2709E-02  0.2824E-01
     -5.233  0.2612E-02  0.2856E-01
     -5.114  0.2612E-02  0.2886E-01
     -4.996  0.2836E-02  0.2919E-01
     -4.877  0.3070E-02  0.2954E-01
     -4.758  0.3304E-02  0.2991E-01
     -4.640  0.3538E-02  0.3032E-01
     -4.521  0.3772E-02  0.3075E-01
     -4.403  0.4006E-02  0.3122E-01
     -4.284  0.4080E-02  0.3170E-01
     -4.165  0.4076E-02  0.3218E-01
     -4.047  0.3925E-02  0.3266E-01
     -3.928  0.3824E-02  0.3312E-01
     -3.810  0.3822E-02  0.3357E-01
     -3.691  0.3821E-02  0.3402E-01
     -3.572  0.3823E-02  0.3448E-01
     -3.454  0.3917E-02  0.3493E-01
     -3.335  0.4310E-02  0.3542E-01
     -3.217  0.4514E-02  0.3595E-01
     -3.098  0.4761E-02  0.3650E-01
     -2.979  0.4976E-02  0.3707E-01
     -2.861  0.5208E-02  0.3768E-01
     -2.742  0.5481E-02  0.3831E-01
     -2.623  0.5756E-02  0.3898E-01
     -2.505  0.5988E-02  0.3967E-01
     -2.386  0.6244E-02  0.4040E-01
     -2.268  0.6595E-02  0.4116E-01
     -2.149  0.7024E-02  0.4197E-01
     -2.030  0.6416E-02  0.4278E-01
     -1.912  0.6215E-02  0.4353E-01
     -1.793  0.6007E-02  0.4426E-01
     -1.675  0.5948E-02  0.4496E-01
     -1.556  0.6134E-02  0.4567E-01
     -1.437  0.7402E-02  0.4647E-01
     -1.319  0.8482E-02  0.4742E-01
     -1.200  0.9439E-02  0.4848E-01
     -1.082  0.1136E-01  0.4967E-01
     -0.963  0.1344E-01  0.5126E-01
     -0.844  0.9457E-02  0.5257E-01
     -0.726  0.8522E-02  0.5362E-01
     -0.607  0.7956E-02  0.5460E-01
     -0.488  0.7201E-02  0.5551E-01
     -0.370  0.5784E-02  0.5626E-01
     -0.251  0.5773E-02  0.5695E-01
     -0.133  0.5531E-02  0.5762E-01
     -0.014  0.5422E-02  0.5827E-01
      0.105  0.5797E-02  0.5892E-01
      0.223  0.7416E-02  0.5971E-01
      0.342  0.7188E-02  0.6065E-01
      0.460  0.7583E-02  0.6152E-01
      0.579  0.7044E-02  0.6238E-01
      0.698  0.6613E-02  0.6319E-01
      0.816  0.6554E-02  0.6397E-01
      0.935  0.6372E-02  0.6474E-01
      1.053  0.6129E-02  0.6548E-01
      1.172  0.5912E-02  0.6619E-01
      1.291  0.5895E-02  0.6689E-01
      1.409  0.5996E-02  0.6760E-01
      1.528  0.5862E-02  0.6830E-01
      1.647  0.5747E-02  0.6899E-01
      1.765  0.6060E-02  0.6969E-01
      1.884  0.5756E-02  0.7039E-01
      2.002  0.5507E-02  0.7105E-01
      2.121  0.6048E-02  0.7177E-01
      2.240  0.5421E-02  0.7246E-01
      2.358  0.4280E-02  0.7304E-01
      2.477  0.3945E-02  0.7351E-01
      2.595  0.3929E-02  0.7398E-01
      2.714  0.3882E-02  0.7444E-01
      2.833  0.3890E-02  0.7490E-01
      2.951  0.3908E-02  0.7536E-01
      3.070  0.4033E-02  0.7583E-01
      3.188  0.4474E-02  0.7633E-01
      3.307  0.4406E-02  0.7686E-01
      3.426  0.3934E-02  0.7736E-01
      3.544  0.3200E-02  0.7779E-01
      3.663  0.2967E-02  0.7815E-01
      3.782  0.2402E-02  0.7847E-01
      3.900  0.1889E-02  0.7873E-01
      4.019  0.1696E-02  0.7894E-01
      4.137  0.1518E-02  0.7913E-01
      4.256  0.1335E-02  0.7930E-01
      4.375  0.1159E-02  0.7945E-01
      4.493  0.9947E-03  0.7957E-01
      4.612  0.8777E-03  0.7968E-01
      4.730  0.7650E-03  0.7978E-01
      4.849  0.5983E-03  0.7986E-01
      4.968  0.4376E-03  0.7993E-01
      5.086  0.2816E-03  0.7997E-01
      5.205  0.1298E-03  0.7999E-01
      5.323  0.1097E-04  0.8000E-01
      5.442  0.8030E-04  0.8000E-01
      5.561  0.1688E-03  0.8002E-01
      5.679  0.2629E-03  0.8005E-01
      5.798  0.3630E-03  0.8008E-01
      5.916  0.4711E-03  0.8013E-01
      6.035  0.5874E-03  0.8019E-01
      6.154  0.7132E-03  0.8027E-01
      6.272  0.8552E-03  0.8036E-01
      6.391  0.1164E-02  0.8048E-01
      6.510  0.1572E-02  0.8064E-01
      6.628  0.1934E-02  0.8085E-01
      6.747  0.2137E-02  0.8110E-01
      6.865  0.2758E-02  0.8138E-01
      6.984  0.6995E-02  0.8190E-01
      7.103  0.5025E-02  0.8262E-01
      7.221  0.4384E-02  0.8321E-01
      7.340  0.4137E-02  0.8372E-01
      7.458  0.3935E-02  0.8419E-01
      7.577  0.3804E-02  0.8465E-01
      7.696  0.3737E-02  0.8510E-01
      7.814  0.3797E-02  0.8555E-01
      7.933  0.3752E-02  0.8599E-01
      8.051  0.3182E-02  0.8642E-01
      8.170  0.3028E-02  0.8678E-01
      8.289  0.2888E-02  0.8713E-01
      8.407  0.2761E-02  0.8747E-01
      8.526  0.2645E-02  0.8779E-01
      8.645  0.2563E-02  0.8810E-01
      8.763  0.2501E-02  0.8840E-01
      8.882  0.2443E-02  0.8869E-01
      9.000  0.2390E-02  0.8898E-01
      9.119  0.2339E-02  0.8926E-01
      9.238  0.2289E-02  0.8953E-01
      9.356  0.2224E-02  0.8980E-01
      9.475  0.2166E-02  0.9006E-01
      9.593  0.2116E-02  0.9032E-01
      9.712  0.2070E-02  0.9056E-01
      9.831  0.2026E-02  0.9081E-01
      9.949  0.1984E-02  0.9104E-01
     10.068  0.1945E-02  0.9128E-01
     10.186  0.1908E-02  0.9151E-01
     10.305  0.1877E-02  0.9173E-01
     10.424  0.1863E-02  0.9195E-01
     10.542  0.1973E-02  0.9218E-01
     10.661  0.2117E-02  0.9242E-01
     10.780  0.2166E-02  0.9268E-01
     10.898  0.2230E-02  0.9294E-01
     11.017  0.2343E-02  0.9321E-01
     11.135  0.2438E-02  0.9349E-01
     11.254  0.2515E-02  0.9378E-01
     11.373  0.2603E-02  0.9409E-01
     11.491  0.2670E-02  0.9440E-01
     11.610  0.2741E-02  0.9472E-01
     11.728  0.2827E-02  0.9505E-01
     11.847  0.2722E-02  0.9538E-01
     11.966  0.2516E-02  0.9569E-01
     12.084  0.2325E-02  0.9598E-01
     12.203  0.2174E-02  0.9625E-01
     12.321  0.2052E-02  0.9650E-01
     12.440  0.1938E-02  0.9673E-01
     12.559  0.2395E-02  0.9698E-01
     12.677  0.2997E-02  0.9730E-01
     12.796  0.3784E-02  0.9770E-01
     12.915  0.5556E-02  0.9825E-01
     13.033  0.6903E-02  0.9900E-01
     13.152  0.7914E-02  0.9987E-01
     13.270  0.9272E-02  0.1009E+00
     13.389  0.9617E-02  0.1020E+00
     13.508  0.9840E-02  0.1032E+00
     13.626  0.1117E-01  0.1044E+00
     13.745  0.1321E-01  0.1060E+00
     13.863  0.1226E-01  0.1075E+00
     13.982  0.8890E-02  0.1088E+00
     14.101  0.7086E-02  0.1097E+00
     14.219  0.6538E-02  0.1105E+00
     14.338  0.6062E-02  0.1112E+00
     14.456  0.6220E-02  0.1120E+00
     14.575  0.5738E-02  0.1127E+00
     14.694  0.5003E-02  0.1133E+00
     14.812  0.4283E-02  0.1139E+00
     14.931  0.3609E-02  0.1143E+00
     15.050  0.3234E-02  0.1147E+00
     15.168  0.3207E-02  0.1151E+00
     15.287  0.4836E-02  0.1156E+00
     15.405  0.3937E-02  0.1161E+00
     15.524  0.3525E-02  0.1165E+00
     15.643  0.3796E-02  0.1169E+00
     15.761  0.4228E-02  0.1174E+00
     15.880  0.4377E-02  0.1179E+00
     15.998  0.3251E-02  0.1184E+00
     16.117  0.2346E-02  0.1187E+00
     16.236  0.1976E-02  0.1190E+00
     16.354  0.1665E-02  0.1192E+00
     16.473  0.1449E-02  0.1194E+00
     16.591  0.1354E-02  0.1195E+00
     16.710  0.1201E-02  0.1197E+00
     16.829  0.1090E-02  0.1198E+00
     16.947  0.6255E-03  0.1199E+00
     17.066  0.3596E-03  0.1200E+00
     17.184  0.5557E-05  0.1200E+00
     17.303  0.0000E+00  0.1200E+00
     17.422  0.0000E+00  0.1200E+00
     17.540  0.0000E+00  0.1200E+00
     17.659  0.0000E+00  0.1200E+00
     17.778  0.0000E+00  0.1200E+00
     17.896  0.0000E+00  0.1200E+00
     18.015  0.0000E+00  0.1200E+00
     18.133  0.0000E+00  0.1200E+00
     18.252  0.0000E+00  0.1200E+00
     18.371  0.0000E+00  0.1200E+00
     18.489  0.0000E+00  0.1200E+00
     18.608  0.0000E+00  0.1200E+00
     18.726  0.0000E+00  0.1200E+00
     18.845  0.0000E+00  0.1200E+00
     18.964  0.0000E+00  0.1200E+00
     19.082  0.0000E+00  0.1200E+00
     19.201  0.0000E+00  0.1200E+00
