    4    4  200    1
  0.8206758E+01  0.2466437E-09  0.2466437E-09  0.6233846E-09  0.5000000E-15
  1.000000000000000E-004
  CAR 
 graphite                                
     16    215     12
 
  0.0000000E+00  0.0000000E+00  0.0000000E+00  0.8680556E-03
    1      -14.382279
    2      -13.864329
    3       -3.503583
    4       -0.695360
    5        2.344910
    6        2.361425
    7        2.384218
    8        2.399490
    9       10.387269
   10       13.671928
   11       13.680431
   12       13.767554
 
  0.8333333E-01  0.1387779E-16  0.0000000E+00  0.3472222E-02
    1      -14.215698
    2      -13.702511
    3       -3.301340
    4       -0.510721
    5        1.690402
    6        1.757778
    7        2.000713
    8        2.058584
    9       10.578811
   10       13.712210
   11       13.857989
   12       14.366033
 
  0.1666667E+00  0.2775558E-16  0.0000000E+00  0.3472222E-02
    1      -13.717800
    2      -13.218787
    3       -2.698688
    4        0.021241
    5        0.036025
    6        0.145030
    7        1.195398
    8        1.276987
    9       11.155496
   10       13.576669
   11       13.883519
   12       14.396359
 
  0.2500000E+00  0.2775558E-16  0.0000000E+00  0.3472222E-02
    1      -12.894496
    2      -12.418797
    3       -2.111780
    4       -1.925917
    5       -1.710128
    6        0.307657
    7        0.403977
    8        0.917437
    9       12.100899
   10       12.128160
   11       13.098879
   12       13.214991
 
  0.3333333E+00  0.5551115E-16  0.0000000E+00  0.3472222E-02
    1      -11.758014
    2      -11.314808
    3       -4.348168
    4       -4.102810
    5       -0.430127
    6       -0.372020
    7       -0.325532
    8        2.055367
    9        9.665820
   10       10.988716
   11       12.769956
   12       13.215380
 
  0.4166667E+00  0.2775558E-16  0.0000000E+00  0.3472222E-02
    1      -10.338293
    2       -9.940148
    3       -6.474937
    4       -6.181326
    5       -0.905277
    6       -0.796529
    7        1.205535
    8        3.152628
    9        7.582003
   10        8.974018
   11       12.517319
   12       13.149323
 
  0.5000000E+00  0.5551115E-16  0.0000000E+00  0.1736111E-02
    1       -8.997290
    2       -8.799116
    3       -7.885008
    4       -7.739233
    5       -1.068319
    6       -0.958209
    7        2.353710
    8        3.341473
    9        6.940542
   10        7.777520
   11       12.421712
   12       13.083215
 
  0.8333333E-01  0.8333333E-01  0.0000000E+00  0.1736111E-02
    1      -13.883241
    2      -13.379514
    3       -2.898557
    4       -0.144577
    5        0.655325
    6        0.718267
    7        1.328705
    8        1.376741
    9       10.965672
   10       13.986104
   11       14.169688
   12       14.942270
 
  0.1666667E+00  0.8333333E-01  0.0000000E+00  0.3472222E-02
    1      -13.222401
    2      -12.737422
    3       -2.101955
    4       -1.091957
    5       -0.962235
    6        0.310887
    7        0.397874
    8        0.571838
    9       11.739931
   10       13.086302
   11       13.791625
   12       14.034177
 
  0.2500000E+00  0.8333333E-01  0.0000000E+00  0.3472222E-02
    1      -12.242126
    2      -11.784979
    3       -3.205497
    4       -3.001076
    5       -0.934357
    6       -0.590845
    7       -0.475441
    8        1.593988
    9       10.784838
   10       11.824560
   11       12.869882
   12       13.712636
 
  0.3333333E+00  0.8333333E-01  0.0000000E+00  0.3472222E-02
    1      -10.961085
    2      -10.541556
    3       -5.361482
    4       -5.096212
    5       -1.233134
    6       -1.104958
    7        0.544740
    8        2.782142
    9        8.484778
   10        9.801375
   11       13.336726
   12       13.910408
 
  0.4166667E+00  0.8333333E-01  0.0000000E+00  0.3472222E-02
    1       -9.448047
    2       -9.097630
    3       -7.313288
    4       -7.025702
    5       -1.565105
    6       -1.431813
    7        2.103776
    8        3.527314
    9        7.024725
   10        8.049274
   11       13.155535
   12       13.828974
 
  0.5000000E+00  0.8333333E-01  0.0000000E+00  0.3472222E-02
    1       -9.450465
    2       -9.099874
    3       -7.310621
    4       -7.022721
    5       -1.565983
    6       -1.432645
    7        2.102194
    8        3.527350
    9        7.023506
   10        8.052040
   11       13.156528
   12       13.829981
 
 -0.4166667E+00  0.8333333E-01  0.0000000E+00  0.3472222E-02
    1      -10.963265
    2      -10.543709
    3       -5.357989
    4       -5.092574
    5       -1.235586
    6       -1.107295
    7        0.542839
    8        2.780718
    9        8.484276
   10        9.804865
   11       13.339624
   12       13.912366
 
 -0.3333333E+00  0.8333333E-01  0.0000000E+00  0.3472222E-02
    1      -12.243829
    2      -11.786672
    3       -3.202141
    4       -2.997562
    5       -0.935986
    6       -0.594088
    7       -0.478562
    8        1.592474
    9       10.782966
   10       11.828005
   11       12.867704
   12       13.717050
 
 -0.2500000E+00  0.8333333E-01  0.0000000E+00  0.3472222E-02
    1      -13.223615
    2      -12.738626
    3       -2.103179
    4       -1.090961
    5       -0.961141
    6        0.309721
    7        0.396411
    8        0.570635
    9       11.738181
   10       13.081871
   11       13.794741
   12       14.039931
 
 -0.1666667E+00  0.8333333E-01  0.0000000E+00  0.3472222E-02
    1      -13.883961
    2      -13.380233
    3       -2.899311
    4       -0.145301
    5        0.647201
    6        0.711665
    7        1.336010
    8        1.383971
    9       10.964566
   10       13.992832
   11       14.178500
   12       14.964729
 
 -0.8333333E-01  0.8333333E-01  0.0000000E+00  0.1736111E-02
    1      -14.215939
    2      -13.702750
    3       -3.301594
    4       -0.510976
    5        1.677581
    6        1.745671
    7        2.013561
    8        2.070925
    9       10.578418
   10       13.716299
   11       13.862558
   12       14.384845
 
  0.1666667E+00  0.1666667E+00  0.0000000E+00  0.1736111E-02
    1      -12.404556
    2      -11.942791
    3       -2.415728
    4       -2.313679
    5       -1.123802
    6       -1.042364
    7       -0.967747
    8        1.436216
    9       11.338869
   10       12.081545
   11       12.713225
   12       15.209820
 
  0.2500000E+00  0.1666667E+00  0.0000000E+00  0.3472222E-02
    1      -11.278444
    2      -10.849209
    3       -4.189177
    4       -3.997855
    5       -2.132269
    6       -1.997129
    7        0.200667
    8        2.561005
    9        9.304517
   10       10.240993
   11       14.035087
   12       15.283231
 
  0.3333333E+00  0.1666667E+00  0.0000000E+00  0.3472222E-02
    1       -9.877940
    2       -9.494276
    3       -6.137748
    4       -5.871555
    5       -2.729078
    6       -2.558862
    7        1.771511
    8        3.693499
    9        7.403861
   10        8.464005
   11       14.991115
   12       15.594383
 
  0.4166667E+00  0.1666667E+00  0.0000000E+00  0.3472222E-02
    1       -8.570377
    2       -8.379086
    3       -7.479793
    4       -7.351397
    5       -2.919914
    6       -2.741421
    7        2.948771
    8        3.913268
    9        6.912825
   10        7.211135
   11       14.900098
   12       15.711372
 
  0.5000000E+00  0.1666667E+00  0.0000000E+00  0.3472222E-02
    1       -9.882705
    2       -9.499008
    3       -6.131440
    4       -5.864780
    5       -2.731653
    6       -2.561256
    7        1.767803
    8        3.691494
    9        7.400586
   10        8.472018
   11       14.993948
   12       15.589596
 
 -0.4166667E+00  0.1666667E+00  0.0000000E+00  0.3472222E-02
    1      -11.282335
    2      -10.853097
    3       -4.183476
    4       -3.991541
    5       -2.135709
    6       -2.000348
    7        0.197163
    8        2.557734
    9        9.299651
   10       10.249303
   11       14.029717
   12       15.289245
 
 -0.3333333E+00  0.1666667E+00  0.0000000E+00  0.3472222E-02
    1      -12.407471
    2      -11.945693
    3       -2.417499
    4       -2.313048
    5       -1.126630
    6       -1.040772
    7       -0.964942
    8        1.433364
    9       11.330101
   10       12.088658
   11       12.709203
   12       15.229457
 
 -0.2500000E+00  0.1666667E+00  0.0000000E+00  0.3472222E-02
    1      -13.224338
    2      -12.739345
    3       -2.103917
    4       -1.102167
    5       -0.970997
    6        0.321482
    7        0.408882
    8        0.569823
    9       11.737238
   10       13.076596
   11       13.794566
   12       14.059845
 
 -0.1666667E+00  0.1666667E+00  0.0000000E+00  0.1736111E-02
    1      -13.718760
    2      -13.219745
    3       -2.699689
    4        0.007788
    5        0.034995
    6        0.132176
    7        1.209947
    8        1.291255
    9       11.154116
   10       13.595327
   11       13.900935
   12       14.389084
 
  0.2500000E+00  0.2500000E+00  0.0000000E+00  0.1736111E-02
    1      -10.028688
    2       -9.638082
    3       -5.207360
    4       -5.068957
    5       -3.594411
    6       -3.492864
    7        1.642670
    8        3.726833
    9        7.695712
   10        8.606074
   11       15.483443
   12       17.094936
 
  0.3333333E+00  0.2500000E+00  0.0000000E+00  0.3472222E-02
    1       -8.572533
    2       -8.250210
    3       -6.664127
    4       -6.445698
    5       -4.344018
    6       -4.170034
    7        3.217148
    8        4.649142
    9        6.344692
   10        7.147341
   11       16.885666
   12       17.115153
 
  0.4166667E+00  0.2500000E+00  0.0000000E+00  0.3472222E-02
    1       -8.579859
    2       -8.257226
    3       -6.657008
    4       -6.436647
    5       -4.345126
    6       -4.170872
    7        3.212700
    8        4.649178
    9        6.335148
   10        7.159827
   11       16.883403
   12       17.104154
 
  0.5000000E+00  0.2500000E+00  0.0000000E+00  0.3472222E-02
    1      -10.035253
    2       -9.644707
    3       -5.204009
    4       -5.062364
    5       -3.593920
    6       -3.490380
    7        1.637512
    8        3.721444
    9        7.688041
   10        8.618774
   11       15.474091
   12       17.200868
 
 -0.4166667E+00  0.2500000E+00  0.0000000E+00  0.3472222E-02
    1      -11.283558
    2      -10.854343
    3       -4.193645
    4       -4.000442
    5       -2.124096
    6       -1.987885
    7        0.196102
    8        2.555865
    9        9.295168
   10       10.248980
   11       14.028436
   12       15.320413
 
 -0.3333333E+00  0.2500000E+00  0.0000000E+00  0.3472222E-02
    1      -12.245762
    2      -11.788608
    3       -3.214871
    4       -3.009692
    5       -0.937847
    6       -0.577515
    7       -0.462007
    8        1.590087
    9       10.774799
   10       11.826143
   11       12.866022
   12       13.745661
 
 -0.2500000E+00  0.2500000E+00  0.0000000E+00  0.1736111E-02
    1      -12.896669
    2      -12.420959
    3       -2.124519
    4       -1.938148
    5       -1.712303
    6        0.323897
    7        0.420003
    8        0.915027
    9       12.098459
   10       12.118379
   11       13.097500
   12       13.242524
 
  0.3333333E+00  0.3333333E+00  0.0000000E+00  0.1736111E-02
    1       -7.374425
    2       -7.202705
    3       -7.199806
    4       -7.028503
    5       -5.143405
    6       -5.141812
    7        4.396948
    8        5.281576
    9        5.294625
   10        6.438387
   11       16.846051
   12       16.876689
 
  0.4166667E+00  0.3333333E+00  0.0000000E+00  0.3472222E-02
    1       -8.582405
    2       -8.260874
    3       -6.662042
    4       -6.441977
    5       -4.336615
    6       -4.161375
    7        3.213090
    8        4.637164
    9        6.340723
   10        7.160526
   11       16.902277
   12       17.120218
 
  0.5000000E+00  0.3333333E+00  0.0000000E+00  0.3472222E-02
    1       -9.885864
    2       -9.502467
    3       -6.141035
    4       -5.874181
    5       -2.716722
    6       -2.546300
    7        1.766121
    8        3.683750
    9        7.398733
   10        8.470233
   11       15.027228
   12       15.601258
 
 -0.4166667E+00  0.3333333E+00  0.0000000E+00  0.3472222E-02
    1      -10.966970
    2      -10.547524
    3       -5.368919
    4       -5.103212
    5       -1.217688
    6       -1.089560
    7        0.539847
    8        2.774897
    9        8.477896
   10        9.800813
   11       13.370754
   12       13.940301
 
 -0.3333333E+00  0.3333333E+00  0.0000000E+00  0.1736111E-02
    1      -11.761899
    2      -11.318716
    3       -4.359034
    4       -4.113292
    5       -0.412552
    6       -0.375588
    7       -0.308140
    8        2.050575
    9        9.657043
   10       10.985186
   11       12.798428
   12       13.235416
 
  0.4166667E+00  0.4166667E+00  0.0000000E+00  0.1736111E-02
    1       -8.579521
    2       -8.392505
    3       -7.479393
    4       -7.353747
    5       -2.905458
    6       -2.726986
    7        2.950330
    8        3.892019
    9        6.921869
   10        7.206746
   11       14.937043
   12       15.749165
 
  0.5000000E+00  0.4166667E+00  0.0000000E+00  0.3472222E-02
    1       -9.457129
    2       -9.107812
    3       -7.316963
    4       -7.029824
    5       -1.548121
    6       -1.414945
    7        2.100580
    8        3.511121
    9        7.027252
   10        8.044642
   11       13.190960
   12       13.864521
 
 -0.4166667E+00  0.4166667E+00  0.0000000E+00  0.1736111E-02
    1      -10.344571
    2       -9.946733
    3       -6.482879
    4       -6.189178
    5       -0.886867
    6       -0.778296
    7        1.201307
    8        3.142152
    9        7.579103
   10        8.968217
   11       12.550629
   12       13.182469
 
  0.5000000E+00  0.5000000E+00  0.0000000E+00  0.8680556E-03
    1       -9.007169
    2       -8.813402
    3       -7.885715
    4       -7.742900
    5       -1.049631
    6       -0.939693
    7        2.354823
    8        3.319027
    9        6.949624
   10        7.765567
   11       12.455823
   12       13.117325
 
  0.0000000E+00  0.0000000E+00  0.1250000E+00  0.1736111E-02
    1      -14.364471
    2      -13.886279
    3       -3.414923
    4       -0.832857
    5        2.346408
    6        2.362900
    7        2.382731
    8        2.398059
    9       10.634651
   10       13.670788
   11       13.677670
   12       13.763906
 
  0.8333333E-01  0.1387779E-16  0.1250000E+00  0.6944444E-02
    1      -14.198028
    2      -13.724227
    3       -3.213194
    4       -0.647144
    5        1.692992
    6        1.755277
    7        2.002919
    8        2.056428
    9       10.823618
   10       13.715698
   11       13.852823
   12       14.367940
 
  0.1666667E+00  0.2775558E-16  0.1250000E+00  0.6944444E-02
    1      -13.700561
    2      -13.239817
    3       -2.612147
    4       -0.097694
    5        0.026497
    6        0.140304
    7        1.198473
    8        1.273863
    9       11.391366
   10       13.579913
   11       13.868563
   12       14.427880
 
  0.2500000E+00  0.2775558E-16  0.1250000E+00  0.6944444E-02
    1      -12.877978
    2      -12.438746
    3       -2.105060
    4       -1.933571
    5       -1.626031
    6        0.311270
    7        0.400252
    8        0.791081
    9       12.098355
   10       12.376499
   11       13.041754
   12       13.237556
 
  0.3333333E+00  0.5551115E-16  0.1250000E+00  0.6944444E-02
    1      -11.742521
    2      -11.333233
    3       -4.339304
    4       -4.112666
    5       -0.426240
    6       -0.329645
    7       -0.293160
    8        1.942328
    9        9.699325
   10       10.924139
   11       12.800532
   12       13.243222
 
  0.4166667E+00  0.2775558E-16  0.1250000E+00  0.6944444E-02
    1      -10.324203
    2       -9.956503
    3       -6.464522
    4       -6.193288
    5       -0.901200
    6       -0.800673
    7        1.275029
    8        3.076101
    9        7.602211
   10        8.895589
   11       12.540925
   12       13.125325
 
  0.5000000E+00  0.5551115E-16  0.1250000E+00  0.3472222E-02
    1       -8.987770
    2       -8.803623
    3       -7.884450
    4       -7.748646
    5       -1.064183
    6       -0.962450
    7        2.407157
    8        3.332157
    9        6.910455
   10        7.697360
   11       12.445351
   12       13.057186
 
  0.8333333E-01  0.8333333E-01  0.1250000E+00  0.3472222E-02
    1      -13.865852
    2      -13.400766
    3       -2.811467
    4       -0.278876
    5        0.658042
    6        0.716194
    7        1.330167
    8        1.374559
    9       11.205314
   10       13.985043
   11       14.161721
   12       14.963724
 
  0.1666667E+00  0.8333333E-01  0.1250000E+00  0.6944444E-02
    1      -13.205593
    2      -12.757797
    3       -2.017192
    4       -1.087059
    5       -0.967054
    6        0.313925
    7        0.394345
    8        0.442618
    9       11.965421
   10       13.107233
   11       13.746916
   12       14.055507
 
  0.2500000E+00  0.8333333E-01  0.1250000E+00  0.6944444E-02
    1      -12.226185
    2      -11.804044
    3       -3.197997
    4       -3.009186
    5       -0.853177
    6       -0.586549
    7       -0.479967
    8        1.473981
    9       10.813470
   10       11.776645
   11       13.077574
   12       13.735029
 
  0.3333333E+00  0.8333333E-01  0.1250000E+00  0.6944444E-02
    1      -10.946339
    2      -10.558893
    3       -5.351932
    4       -5.106900
    5       -1.228403
    6       -1.109979
    7        0.619475
    8        2.682486
    9        8.517359
   10        9.737737
   11       13.362220
   12       13.899794
 
  0.4166667E+00  0.8333333E-01  0.1250000E+00  0.6944444E-02
    1       -9.435340
    2       -9.111558
    3       -7.303611
    4       -7.037844
    5       -1.560168
    6       -1.437026
    7        2.164502
    8        3.490623
    9        7.015339
   10        7.976754
   11       13.179073
   12       13.801747
 
  0.5000000E+00  0.8333333E-01  0.1250000E+00  0.6944444E-02
    1       -9.437754
    2       -9.113813
    3       -7.300923
    4       -7.034873
    5       -1.561041
    6       -1.437859
    7        2.162939
    8        3.490528
    9        7.014329
   10        7.979387
   11       13.180052
   12       13.802725
 
 -0.4166667E+00  0.8333333E-01  0.1250000E+00  0.6944444E-02
    1      -10.948522
    2      -10.561056
    3       -5.348439
    4       -5.103271
    5       -1.230856
    6       -1.112324
    7        0.617581
    8        2.681017
    9        8.517049
   10        9.741056
   11       13.365092
   12       13.901988
 
 -0.3333333E+00  0.8333333E-01  0.1250000E+00  0.6944444E-02
    1      -12.227888
    2      -11.805748
    3       -3.194662
    4       -3.005666
    5       -0.854811
    6       -0.589791
    7       -0.483114
    8        1.472452
    9       10.811857
   10       11.779825
   11       13.075360
   12       13.739352
 
 -0.2500000E+00  0.8333333E-01  0.1250000E+00  0.6944444E-02
    1      -13.206807
    2      -12.759002
    3       -2.018415
    4       -1.086060
    5       -0.965961
    6        0.312755
    7        0.392885
    8        0.441409
    9       11.963730
   10       13.103112
   11       13.749877
   12       14.061214
 
 -0.1666667E+00  0.8333333E-01  0.1250000E+00  0.6944444E-02
    1      -13.866579
    2      -13.401486
    3       -2.812221
    4       -0.279630
    5        0.649960
    6        0.709491
    7        1.337473
    8        1.381788
    9       11.204193
   10       13.991783
   11       14.170435
   12       14.963689
 
 -0.8333333E-01  0.8333333E-01  0.1250000E+00  0.3472222E-02
    1      -14.198270
    2      -13.724466
    3       -3.213449
    4       -0.647398
    5        1.680192
    6        1.743140
    7        2.015748
    8        2.068789
    9       10.823220
   10       13.719799
   11       13.857383
   12       14.371743
 
  0.1666667E+00  0.1666667E+00  0.1250000E+00  0.3472222E-02
    1      -12.388475
    2      -11.962094
    3       -2.411532
    4       -2.317261
    5       -1.043261
    6       -1.038917
    7       -0.971339
    8        1.314041
    9       11.365986
   10       12.045992
   11       12.931402
   12       15.222362
 
  0.2500000E+00  0.1666667E+00  0.1250000E+00  0.6944444E-02
    1      -11.263392
    2      -10.866995
    3       -4.181995
    4       -4.005196
    5       -2.127779
    6       -2.002849
    7        0.277711
    8        2.451751
    9        9.337563
   10       10.202749
   11       14.215117
   12       15.301632
 
  0.3333333E+00  0.1666667E+00  0.1250000E+00  0.6944444E-02
    1       -9.864320
    2       -9.509980
    3       -6.128213
    4       -5.882295
    5       -2.722990
    6       -2.565725
    7        1.839613
    8        3.616884
    9        7.427187
   10        8.413055
   11       15.017360
   12       15.602828
 
  0.4166667E+00  0.1666667E+00  0.1250000E+00  0.6944444E-02
    1       -8.561206
    2       -8.383527
    3       -7.479424
    4       -7.359800
    5       -2.913461
    6       -2.748569
    7        3.002372
    8        3.906848
    9        6.872213
   10        7.167892
   11       14.921339
   12       15.667579
 
  0.5000000E+00  0.1666667E+00  0.1250000E+00  0.6944444E-02
    1       -9.869084
    2       -9.514713
    3       -6.121888
    4       -5.875538
    5       -2.725556
    6       -2.568127
    7        1.835921
    8        3.614705
    9        7.424457
   10        8.420596
   11       15.020117
   12       15.599735
 
 -0.4166667E+00  0.1666667E+00  0.1250000E+00  0.6944444E-02
    1      -11.267282
    2      -10.870881
    3       -4.176258
    4       -3.998904
    5       -2.131208
    6       -2.006071
    7        0.274212
    8        2.448457
    9        9.333178
   10       10.210468
   11       14.209497
   12       15.307570
 
 -0.3333333E+00  0.1666667E+00  0.1250000E+00  0.6944444E-02
    1      -12.391389
    2      -11.964996
    3       -2.413220
    4       -2.316731
    5       -1.045519
    6       -1.037841
    7       -0.968573
    8        1.311189
    9       11.357748
   10       12.052404
   11       12.927354
   12       15.241787
 
 -0.2500000E+00  0.1666667E+00  0.1250000E+00  0.6944444E-02
    1      -13.207529
    2      -12.759721
    3       -2.019154
    4       -1.097214
    5       -0.975887
    6        0.324544
    7        0.405337
    8        0.440610
    9       11.962655
   10       13.098449
   11       13.750095
   12       14.080417
 
 -0.1666667E+00  0.1666667E+00  0.1250000E+00  0.3472222E-02
    1      -13.701527
    2      -13.240775
    3       -2.613148
    4       -0.098755
    5        0.013068
    6        0.127437
    7        1.213004
    8        1.288118
    9       11.389964
   10       13.598391
   11       13.885927
   12       14.421000
 
  0.2500000E+00  0.2500000E+00  0.1250000E+00  0.3472222E-02
    1      -10.014870
    2       -9.654121
    3       -5.201587
    4       -5.073610
    5       -3.592151
    6       -3.498179
    7        1.713083
    8        3.635556
    9        7.731295
   10        8.569449
   11       15.567472
   12       16.986685
 
  0.3333333E+00  0.2500000E+00  0.1250000E+00  0.6944444E-02
    1       -8.560773
    2       -8.262945
    3       -6.656409
    4       -6.454477
    5       -4.338514
    6       -4.177674
    7        3.277036
    8        4.612017
    9        6.357012
   10        7.097729
   11       16.591962
   12       16.768882
 
  0.4166667E+00  0.2500000E+00  0.1250000E+00  0.6944444E-02
    1       -8.568093
    2       -8.269985
    3       -6.649207
    4       -6.445491
    5       -4.339610
    6       -4.178522
    7        3.272580
    8        4.611546
    9        6.348400
   10        7.109632
   11       16.578326
   12       16.773681
 
  0.5000000E+00  0.2500000E+00  0.1250000E+00  0.6944444E-02
    1      -10.021436
    2       -9.660743
    3       -5.198128
    4       -5.067154
    5       -3.591573
    6       -3.495756
    7        1.707913
    8        3.630159
    9        7.724231
   10        8.581241
   11       15.557475
   12       17.002950
 
 -0.4166667E+00  0.2500000E+00  0.1250000E+00  0.6944444E-02
    1      -11.268506
    2      -10.872126
    3       -4.186402
    4       -4.007866
    5       -2.119553
    6       -1.993635
    7        0.273138
    8        2.446657
    9        9.328647
   10       10.209858
   11       14.208636
   12       15.338544
 
 -0.3333333E+00  0.2500000E+00  0.1250000E+00  0.6944444E-02
    1      -12.229822
    2      -11.807684
    3       -3.207380
    4       -3.017835
    5       -0.856679
    6       -0.573223
    7       -0.466555
    8        1.470105
    9       10.803640
   10       11.777611
   11       13.074638
   12       13.767714
 
 -0.2500000E+00  0.2500000E+00  0.1250000E+00  0.3472222E-02
    1      -12.880151
    2      -12.440909
    3       -2.117786
    4       -1.945796
    5       -1.628232
    6        0.327502
    7        0.416287
    8        0.788689
    9       12.089150
   10       12.374405
   11       13.040731
   12       13.264597
 
  0.3333333E+00  0.3333333E+00  0.1250000E+00  0.3472222E-02
    1       -7.362136
    2       -7.201570
    3       -7.198825
    4       -7.042581
    5       -5.145588
    6       -5.144112
    7        4.463768
    8        5.293009
    9        5.305116
   10        6.344841
   11       16.480702
   12       16.504905
 
  0.4166667E+00  0.3333333E+00  0.1250000E+00  0.6944444E-02
    1       -8.570654
    2       -8.273571
    3       -6.654281
    4       -6.450830
    5       -4.331048
    6       -4.169048
    7        3.272820
    8        4.600541
    9        6.353127
   10        7.110074
   11       16.576036
   12       16.798705
 
  0.5000000E+00  0.3333333E+00  0.1250000E+00  0.6944444E-02
    1       -9.872252
    2       -9.518151
    3       -6.131483
    4       -5.884954
    5       -2.710657
    6       -2.553168
    7        1.834155
    8        3.607485
    9        7.422084
   10        8.418459
   11       15.054057
   12       15.618744
 
 -0.4166667E+00  0.3333333E+00  0.1250000E+00  0.6944444E-02
    1      -10.952223
    2      -10.564855
    3       -5.359357
    4       -5.113920
    5       -1.212959
    6       -1.094576
    7        0.614547
    8        2.675441
    9        8.510384
   10        9.736646
   11       13.396547
   12       13.931462
 
 -0.3333333E+00  0.3333333E+00  0.1250000E+00  0.3472222E-02
    1      -11.746407
    2      -11.337152
    3       -4.350160
    4       -4.123165
    5       -0.408678
    6       -0.312247
    7       -0.296747
    8        1.937639
    9        9.690458
   10       10.920239
   11       12.830044
   12       13.267895
 
  0.4166667E+00  0.4166667E+00  0.1250000E+00  0.3472222E-02
    1       -8.570484
    2       -8.396770
    3       -7.479152
    4       -7.362082
    5       -2.899031
    6       -2.734128
    7        3.003510
    8        3.886693
    9        6.880271
   10        7.163311
   11       14.958251
   12       15.704671
 
  0.5000000E+00  0.4166667E+00  0.1250000E+00  0.6944444E-02
    1       -9.444452
    2       -9.121684
    3       -7.307319
    4       -7.041966
    5       -1.543188
    6       -1.420152
    7        2.161087
    8        3.475257
    9        7.017018
   10        7.971855
   11       13.214499
   12       13.837190
 
 -0.4166667E+00  0.4166667E+00  0.1250000E+00  0.3472222E-02
    1      -10.330490
    2       -9.963071
    3       -6.472469
    4       -6.201158
    5       -0.882801
    6       -0.782432
    7        1.270759
    8        3.066139
    9        7.598704
   10        8.889551
   11       12.574229
   12       13.158442
 
  0.5000000E+00  0.5000000E+00  0.1250000E+00  0.1736111E-02
    1       -8.997775
    2       -8.817728
    3       -7.885212
    4       -7.752213
    5       -1.045501
    6       -0.943923
    7        2.407826
    8        3.310904
    9        6.918248
   10        7.685552
   11       12.479463
   12       13.091240
 
  0.0000000E+00  0.0000000E+00  0.2500000E+00  0.1736111E-02
    1      -14.313009
    2      -13.947627
    3       -3.157747
    4       -1.203156
    5        2.350646
    6        2.366982
    7        2.378499
    8        2.393955
    9       11.332726
   10       13.683231
   11       13.687999
   12       13.752050
 
  0.8333333E-01  0.1387779E-16  0.2500000E+00  0.6944444E-02
    1      -14.147010
    2      -13.784959
    3       -2.957464
    4       -1.014834
    5        1.700293
    6        1.747946
    7        2.009191
    8        2.050148
    9       11.513566
   10       13.725218
   11       13.839222
   12       14.386653
 
  0.1666667E+00  0.2775558E-16  0.2500000E+00  0.6944444E-02
    1      -13.650813
    2      -13.298714
    3       -2.361025
    4       -0.456693
    5        0.039585
    6        0.126725
    7        1.207250
    8        1.264890
    9       12.052000
   10       13.591655
   11       13.833899
   12       14.513129
 
  0.2500000E+00  0.2775558E-16  0.2500000E+00  0.6944444E-02
    1      -12.830348
    2      -12.494633
    3       -2.085728
    4       -1.954585
    5       -1.382826
    6        0.321602
    7        0.389579
    8        0.449087
    9       12.184171
   10       12.860556
   11       12.985855
   12       13.300160
 
  0.3333333E+00  0.5551115E-16  0.2500000E+00  0.6944444E-02
    1      -11.697849
    2      -11.384937
    3       -4.313797
    4       -4.140408
    5       -0.415014
    6       -0.341155
    7       -0.064645
    8        1.633606
    9        9.806105
   10       10.747512
   11       12.872948
   12       13.237819
 