32   
4    

1    
  0.0036790314978478  -0.0000014314399268   0.0092986410398952
  -0.2389297500    0.0077223200   -0.1306293800
   0.0291645000    0.0065904300    0.0006988600
  -0.0103393300   -0.0162260000    0.0007714200
  -0.0104656000    0.0295573400    0.0005428900
  -0.0114756000    0.0065363700    0.0069958600
  -0.0114156000    0.0065375100    0.0071039800
  -0.0114442100    0.0065206800    0.0071037400
  -0.0114425500    0.0065524900    0.0071042200
   0.0111832800   -0.0067510600   -0.0071746200
   0.0107392700   -0.0068704700   -0.0073454300
   0.0110626000   -0.0064206700   -0.0072573000
   0.0108107500   -0.0067009000   -0.0059672600
   0.0114296500   -0.0060335900   -0.0073958100
   0.0118233000   -0.0061242800   -0.0072366500
   0.0117013900   -0.0064366500   -0.0073200100
   0.0114578100   -0.0062170800   -0.0057829000
   0.0086665400   -0.0049978700    0.0116953200
   0.0379754000   -0.0057124400    0.0447885800
   0.0860520100    0.0226344200    0.0452343000
   0.0864522000   -0.0330346200    0.0442527800
   0.0086057800   -0.0049316100   -0.0011040000
   0.0086097500   -0.0049308800   -0.0010565800
   0.0086065400   -0.0049341500   -0.0010568900
   0.0086069400   -0.0049309800   -0.0010532100
  -0.0090070200    0.0053711100    0.0020690100
  -0.0076404100    0.0055674400    0.0021691000
  -0.0084949700    0.0043081000    0.0021269000
  -0.0081989600    0.0050743600    0.0007125900
  -0.0079228700    0.0041285000    0.0021752500
  -0.0090759600    0.0043388200    0.0020351600
  -0.0086847600    0.0052402100    0.0020699300
  -0.0084101000    0.0045731500    0.0007301500

1    
 -0.0036790314978478   0.0000014314399268  -0.0092986410398952
   0.2161145700    0.0076291300    0.1306946200
  -0.0520116500    0.0064897300   -0.0006285000
  -0.0123786700    0.0294043100   -0.0005572400
  -0.0124895100   -0.0163924100   -0.0006154700
  -0.0115147900    0.0066726100   -0.0069265300
  -0.0115739000    0.0066725900   -0.0070354500
  -0.0115466900    0.0066869400   -0.0070355900
  -0.0115460700    0.0066549900   -0.0070356800
   0.0109993600   -0.0069264200    0.0071684900
   0.0114066200   -0.0068158300    0.0073310800
   0.0111111200   -0.0072276000    0.0072464800
   0.0113587900   -0.0069669500    0.0057124500
   0.0120414800   -0.0066601900    0.0072659600
   0.0116146900   -0.0065658000    0.0070981600
   0.0117485600   -0.0062250200    0.0071875300
   0.0119786800   -0.0064607600    0.0058882600
   0.0085096000   -0.0049037500   -0.0117131900
  -0.0207922200   -0.0053943300   -0.0448073900
  -0.0694663700   -0.0329957800   -0.0443475900
  -0.0686827600    0.0226772000   -0.0451736300
   0.0087213400   -0.0050137200    0.0011038200
   0.0087172200   -0.0050138200    0.0010565000
   0.0087201800   -0.0050113200    0.0010560100
   0.0087208800   -0.0050152600    0.0010537900
  -0.0080586400    0.0051123300   -0.0020337900
  -0.0092288800    0.0049167700   -0.0021272900
  -0.0084708600    0.0060044200   -0.0020939300
  -0.0087584200    0.0053526400   -0.0007120100
  -0.0095020200    0.0053245400   -0.0022016500
  -0.0081596600    0.0051169100   -0.0020348700
  -0.0086495800    0.0040478900   -0.0020758800
  -0.0089324300    0.0048259200   -0.0007074600

17   
  0.0036790314978478  -0.0000014314399268   0.0092986410398952
  -0.0116202300    0.0065958000    0.0058203500
   0.0176818000    0.0071166000    0.0389161800
   0.0663404500    0.0346582500    0.0384511000
   0.0655909700   -0.0209974500    0.0392824500
  -0.0116938400    0.0067073100   -0.0069951400
  -0.0116893400    0.0067077600   -0.0069477100
  -0.0116933300    0.0067050400   -0.0069503900
  -0.0116924500    0.0067081400   -0.0069420500
   0.0113754500   -0.0070357600    0.0077720200
   0.0117093700   -0.0068830500    0.0082338500
   0.0114187700   -0.0071704100    0.0079930700
   0.0116475000   -0.0070228100    0.0066052800
   0.0118928900   -0.0066510100    0.0082515600
   0.0115852900   -0.0063780400    0.0077093000
   0.0115112700   -0.0063278000    0.0079618000
   0.0118532800   -0.0064640200    0.0065981700
  -0.2188043800   -0.0058292000   -0.1365165400
   0.0488826300   -0.0047049200   -0.0061065700
   0.0105804600   -0.0268491300   -0.0061722700
   0.0106931600    0.0174438900   -0.0061494600
   0.0087371800   -0.0050461800    0.0012912500
   0.0087123900   -0.0050460600    0.0009353200
   0.0087206000   -0.0050415900    0.0009354500
   0.0087213200   -0.0050523300    0.0009378000
  -0.0091534800    0.0054322400   -0.0004620600
  -0.0087390500    0.0053548100   -0.0003610400
  -0.0088724400    0.0050475800   -0.0004453100
  -0.0090576500    0.0052569600   -0.0011498300
  -0.0084218300    0.0046108500   -0.0003110600
  -0.0088506000    0.0045174700   -0.0005433900
  -0.0085484200    0.0049266500   -0.0004662000
  -0.0088177400    0.0047104300   -0.0011759200

17   
 -0.0036790314978478   0.0000014314399268  -0.0092986410398952
  -0.0113514700    0.0066582800   -0.0057438800
  -0.0406516300    0.0073693000   -0.0388354700
  -0.0887502700   -0.0209707900   -0.0392861900
  -0.0891160100    0.0346873600   -0.0382989300
  -0.0116003500    0.0065806800    0.0070616600
  -0.0116044000    0.0065825600    0.0070144100
  -0.0116025100    0.0065816400    0.0070117600
  -0.0116004600    0.0065789700    0.0070141000
   0.0114784800   -0.0068115900   -0.0078165800
   0.0111587100   -0.0069442700   -0.0082931500
   0.0114263400   -0.0066647400   -0.0080412900
   0.0111947500   -0.0068115800   -0.0066817600
   0.0112914100   -0.0060283200   -0.0083334400
   0.0115990600   -0.0063263900   -0.0078254700
   0.0116961900   -0.0063740100   -0.0080651100
   0.0113586000   -0.0062337200   -0.0066715600
   0.2361442200   -0.0063005700    0.1364907500
  -0.0315280200   -0.0051529000    0.0060952300
   0.0066573400    0.0169021300    0.0060280200
   0.0067784300   -0.0273845800    0.0062734800
   0.0088950300   -0.0049786300   -0.0012992500
   0.0089185200   -0.0049779200   -0.0009428800
   0.0089104200   -0.0049832500   -0.0009429700
   0.0089099000   -0.0049730800   -0.0009448200
  -0.0085386700    0.0051227300    0.0004963900
  -0.0089540800    0.0052313200    0.0003918600
  -0.0088462900    0.0055292000    0.0004684800
  -0.0086429500    0.0053132300    0.0011578400
  -0.0086585200    0.0047950900    0.0003142000
  -0.0082295200    0.0048443000    0.0005447800
  -0.0084923300    0.0044617000    0.0004633100
  -0.0082499000    0.0046778600    0.0011964900
