# Thermal properties / unit cell (natom)

unit:
  temperature:   K
  free_energy:   kJ/mol
  entropy:       J/K/mol
  heat_capacity: J/K/mol

natom:     4
num_modes: 3888
num_integrated_modes: 3874

zero_point_energy:      66.2851858
high_T_entropy:        228.8223401

thermal_properties:
- temperature:         0.0000000
  free_energy:        66.2851858
  entropy:             0.0000000
  heat_capacity:       0.0000000
  energy:             66.2851858

- temperature:        10.0000000
  free_energy:        66.2851707
  entropy:             0.0085257
  heat_capacity:       0.0330190
  energy:             66.2852560

- temperature:        20.0000000
  free_energy:        66.2848509
  entropy:             0.0598667
  heat_capacity:       0.1226175
  energy:             66.2860483

- temperature:        30.0000000
  free_energy:        66.2839258
  entropy:             0.1275260
  heat_capacity:       0.2276124
  energy:             66.2877516

- temperature:        40.0000000
  free_energy:        66.2822281
  entropy:             0.2170129
  heat_capacity:       0.4230287
  energy:             66.2909086

- temperature:        50.0000000
  free_energy:        66.2794623
  entropy:             0.3432517
  heat_capacity:       0.7413964
  energy:             66.2966249

- temperature:        60.0000000
  free_energy:        66.2752078
  entropy:             0.5159247
  heat_capacity:       1.1878818
  energy:             66.3061633

- temperature:        70.0000000
  free_energy:        66.2689698
  entropy:             0.7407547
  heat_capacity:       1.7664508
  energy:             66.3208226

- temperature:        80.0000000
  free_energy:        66.2602052
  entropy:             1.0218100
  heat_capacity:       2.4822040
  energy:             66.3419500

- temperature:        90.0000000
  free_energy:        66.2483358
  entropy:             1.3621660
  heat_capacity:       3.3369760
  energy:             66.3709307

- temperature:       100.0000000
  free_energy:        66.2327574
  entropy:             1.7638400
  heat_capacity:       4.3271140
  energy:             66.4091414

- temperature:       110.0000000
  free_energy:        66.2128517
  entropy:             2.2276619
  heat_capacity:       5.4435596
  energy:             66.4578945

- temperature:       120.0000000
  free_energy:        66.1879981
  entropy:             2.7532627
  heat_capacity:       6.6730274
  energy:             66.5183896

- temperature:       130.0000000
  free_energy:        66.1575853
  entropy:             3.3391800
  heat_capacity:       7.9995481
  energy:             66.5916787

- temperature:       140.0000000
  free_energy:        66.1210213
  entropy:             3.9830409
  heat_capacity:       9.4060008
  energy:             66.6786470

- temperature:       150.0000000
  free_energy:        66.0777415
  entropy:             4.6817799
  heat_capacity:      10.8754236
  energy:             66.7800085

- temperature:       160.0000000
  free_energy:        66.0272145
  entropy:             5.4318620
  heat_capacity:      12.3919930
  energy:             66.8963124

- temperature:       170.0000000
  free_energy:        65.9689457
  entropy:             6.2294860
  heat_capacity:      13.9416482
  energy:             67.0279584

- temperature:       180.0000000
  free_energy:        65.9024793
  entropy:             7.0707564
  heat_capacity:      15.5123927
  energy:             67.1752154

- temperature:       190.0000000
  free_energy:        65.8273980
  entropy:             7.9518176
  heat_capacity:      17.0943421
  energy:             67.3382434

- temperature:       200.0000000
  free_energy:        65.7433227
  entropy:             8.8689519
  heat_capacity:      18.6795939
  energy:             67.5171131

- temperature:       210.0000000
  free_energy:        65.6499105
  entropy:             9.8186433
  heat_capacity:      20.2619930
  energy:             67.7118256

- temperature:       220.0000000
  free_energy:        65.5468523
  entropy:            10.7976154
  heat_capacity:      21.8368490
  energy:             67.9223277

- temperature:       230.0000000
  free_energy:        65.4338707
  entropy:            11.8028475
  heat_capacity:      23.4006486
  energy:             68.1485256

- temperature:       240.0000000
  free_energy:        65.3107170
  entropy:            12.8315750
  heat_capacity:      24.9507886
  energy:             68.3902950

- temperature:       250.0000000
  free_energy:        65.1771693
  entropy:            13.8812804
  heat_capacity:      26.4853444
  energy:             68.6474894

- temperature:       260.0000000
  free_energy:        65.0330291
  entropy:            14.9496770
  heat_capacity:      28.0028801
  energy:             68.9199452

- temperature:       270.0000000
  free_energy:        64.8781203
  entropy:            16.0346896
  heat_capacity:      29.5022988
  energy:             69.2074865

- temperature:       280.0000000
  free_energy:        64.7122863
  entropy:            17.1344341
  heat_capacity:      30.9827303
  energy:             69.5099278

- temperature:       290.0000000
  free_energy:        64.5353883
  entropy:            18.2471971
  heat_capacity:      32.4434514
  energy:             69.8270754

- temperature:       300.0000000
  free_energy:        64.3473042
  entropy:            19.3714163
  heat_capacity:      33.8838299
  energy:             70.1587290

- temperature:       310.0000000
  free_energy:        64.1479265
  entropy:            20.5056637
  heat_capacity:      35.3032909
  energy:             70.5046823

- temperature:       320.0000000
  free_energy:        63.9371618
  entropy:            21.6486297
  heat_capacity:      36.7012961
  energy:             70.8647233

- temperature:       330.0000000
  free_energy:        63.7149289
  entropy:            22.7991093
  heat_capacity:      38.0773350
  energy:             71.2386350

- temperature:       340.0000000
  free_energy:        63.4811583
  entropy:            23.9559908
  heat_capacity:      39.4309220
  energy:             71.6261952

- temperature:       350.0000000
  free_energy:        63.2357912
  entropy:            25.1182453
  heat_capacity:      40.7615991
  energy:             72.0271771

- temperature:       360.0000000
  free_energy:        62.9787787
  entropy:            26.2849186
  heat_capacity:      42.0689401
  energy:             72.4413494

- temperature:       370.0000000
  free_energy:        62.7100811
  entropy:            27.4551236
  heat_capacity:      43.3525560
  energy:             72.8684768

- temperature:       380.0000000
  free_energy:        62.4296672
  entropy:            28.6280344
  heat_capacity:      44.6121010
  energy:             73.3083203

- temperature:       390.0000000
  free_energy:        62.1375139
  entropy:            29.8028811
  heat_capacity:      45.8472767
  energy:             73.7606376

- temperature:       400.0000000
  free_energy:        61.8336055
  entropy:            30.9789455
  heat_capacity:      47.0578365
  energy:             74.2251837

- temperature:       410.0000000
  free_energy:        61.5179332
  entropy:            32.1555571
  heat_capacity:      48.2435881
  energy:             74.7017116

- temperature:       420.0000000
  free_energy:        61.1904946
  entropy:            33.3320898
  heat_capacity:      49.4043953
  energy:             75.1899723

- temperature:       430.0000000
  free_energy:        60.8512936
  entropy:            34.5079592
  heat_capacity:      50.5401779
  energy:             75.6897161

- temperature:       440.0000000
  free_energy:        60.5003395
  entropy:            35.6826202
  heat_capacity:      51.6509120
  energy:             76.2006924

- temperature:       450.0000000
  free_energy:        60.1376469
  entropy:            36.8555644
  heat_capacity:      52.7366278
  energy:             76.7226509

- temperature:       460.0000000
  free_energy:        59.7632355
  entropy:            38.0263181
  heat_capacity:      53.7974077
  energy:             77.2553418

- temperature:       470.0000000
  free_energy:        59.3771294
  entropy:            39.1944405
  heat_capacity:      54.8333837
  energy:             77.7985164

- temperature:       480.0000000
  free_energy:        58.9793568
  entropy:            40.3595220
  heat_capacity:      55.8447344
  energy:             78.3519274

- temperature:       490.0000000
  free_energy:        58.5699503
  entropy:            41.5211825
  heat_capacity:      56.8316810
  energy:             78.9153297

- temperature:       500.0000000
  free_energy:        58.1489458
  entropy:            42.6790696
  heat_capacity:      57.7944841
  energy:             79.4884806

- temperature:       510.0000000
  free_energy:        57.7163826
  entropy:            43.8328575
  heat_capacity:      58.7334402
  energy:             80.0711399

- temperature:       520.0000000
  free_energy:        57.2723033
  entropy:            44.9822455
  heat_capacity:      59.6488771
  energy:             80.6630710

- temperature:       530.0000000
  free_energy:        56.8167533
  entropy:            46.1269566
  heat_capacity:      60.5411514
  energy:             81.2640402

- temperature:       540.0000000
  free_energy:        56.3497806
  entropy:            47.2667360
  heat_capacity:      61.4106439
  energy:             81.8738180

- temperature:       550.0000000
  free_energy:        55.8714358
  entropy:            48.4013505
  heat_capacity:      62.2577568
  energy:             82.4921785

- temperature:       560.0000000
  free_energy:        55.3817715
  entropy:            49.5305865
  heat_capacity:      63.0829101
  energy:             83.1189000

- temperature:       570.0000000
  free_energy:        54.8808426
  entropy:            50.6542497
  heat_capacity:      63.8865389
  energy:             83.7537650

- temperature:       580.0000000
  free_energy:        54.3687057
  entropy:            51.7721635
  heat_capacity:      64.6690903
  energy:             84.3965605

- temperature:       590.0000000
  free_energy:        53.8454191
  entropy:            52.8841678
  heat_capacity:      65.4310206
  energy:             85.0470780

- temperature:       600.0000000
  free_energy:        53.3110425
  entropy:            53.9901187
  heat_capacity:      66.1727934
  energy:             85.7051137

- temperature:       610.0000000
  free_energy:        52.7656373
  entropy:            55.0898869
  heat_capacity:      66.8948770
  energy:             86.3704683

- temperature:       620.0000000
  free_energy:        52.2092658
  entropy:            56.1833571
  heat_capacity:      67.5977423
  energy:             87.0429472

- temperature:       630.0000000
  free_energy:        51.6419915
  entropy:            57.2704272
  heat_capacity:      68.2818613
  energy:             87.7223606

- temperature:       640.0000000
  free_energy:        51.0638789
  entropy:            58.3510073
  heat_capacity:      68.9477055
  energy:             88.4085235

- temperature:       650.0000000
  free_energy:        50.4749932
  entropy:            59.4250187
  heat_capacity:      69.5957441
  energy:             89.1012554

- temperature:       660.0000000
  free_energy:        49.8754006
  entropy:            60.4923939
  heat_capacity:      70.2264431
  energy:             89.8003806

- temperature:       670.0000000
  free_energy:        49.2651677
  entropy:            61.5530751
  heat_capacity:      70.8402637
  energy:             90.5057280

- temperature:       680.0000000
  free_energy:        48.6443616
  entropy:            62.6070140
  heat_capacity:      71.4376621
  energy:             91.2171311

- temperature:       690.0000000
  free_energy:        48.0130500
  entropy:            63.6541710
  heat_capacity:      72.0190879
  energy:             91.9344280

- temperature:       700.0000000
  free_energy:        47.3713009
  entropy:            64.6945146
  heat_capacity:      72.5849838
  energy:             92.6574611

- temperature:       710.0000000
  free_energy:        46.7191825
  entropy:            65.7280209
  heat_capacity:      73.1357848
  energy:             93.3860774

- temperature:       720.0000000
  free_energy:        46.0567633
  entropy:            66.7546731
  heat_capacity:      73.6719179
  energy:             94.1201279

- temperature:       730.0000000
  free_energy:        45.3841119
  entropy:            67.7744607
  heat_capacity:      74.1938013
  energy:             94.8594682

- temperature:       740.0000000
  free_energy:        44.7012970
  entropy:            68.7873795
  heat_capacity:      74.7018446
  energy:             95.6039578

- temperature:       750.0000000
  free_energy:        44.0083872
  entropy:            69.7934308
  heat_capacity:      75.1964481
  energy:             96.3534603

- temperature:       760.0000000
  free_energy:        43.3054512
  entropy:            70.7926211
  heat_capacity:      75.6780027
  energy:             97.1078433

- temperature:       770.0000000
  free_energy:        42.5925576
  entropy:            71.7849617
  heat_capacity:      76.1468898
  energy:             97.8669781

- temperature:       780.0000000
  free_energy:        41.8697748
  entropy:            72.7704683
  heat_capacity:      76.6034815
  energy:             98.6307401

- temperature:       790.0000000
  free_energy:        41.1371710
  entropy:            73.7491608
  heat_capacity:      77.0481399
  energy:             99.3990080

- temperature:       800.0000000
  free_energy:        40.3948142
  entropy:            74.7210626
  heat_capacity:      77.4812176
  energy:            100.1716643

- temperature:       810.0000000
  free_energy:        39.6427723
  entropy:            75.6862008
  heat_capacity:      77.9030579
  energy:            100.9485949

- temperature:       820.0000000
  free_energy:        38.8811126
  entropy:            76.6446054
  heat_capacity:      78.3139941
  energy:            101.7296891

- temperature:       830.0000000
  free_energy:        38.1099025
  entropy:            77.5963097
  heat_capacity:      78.7143505
  energy:            102.5148395

- temperature:       840.0000000
  free_energy:        37.3292087
  entropy:            78.5413491
  heat_capacity:      79.1044418
  energy:            103.3039419

- temperature:       850.0000000
  free_energy:        36.5390976
  entropy:            79.4797618
  heat_capacity:      79.4845737
  energy:            104.0968952

- temperature:       860.0000000
  free_energy:        35.7396354
  entropy:            80.4115881
  heat_capacity:      79.8550427
  energy:            104.8936012

- temperature:       870.0000000
  free_energy:        34.9308877
  entropy:            81.3368702
  heat_capacity:      80.2161365
  energy:            105.6939648

- temperature:       880.0000000
  free_energy:        34.1129196
  entropy:            82.2556522
  heat_capacity:      80.5681343
  energy:            106.4978936

- temperature:       890.0000000
  free_energy:        33.2857961
  entropy:            83.1679797
  heat_capacity:      80.9113064
  energy:            107.3052980

- temperature:       900.0000000
  free_energy:        32.4495814
  entropy:            84.0738997
  heat_capacity:      81.2459152
  energy:            108.1160912

- temperature:       910.0000000
  free_energy:        31.6043393
  entropy:            84.9734608
  heat_capacity:      81.5722147
  energy:            108.9301886

- temperature:       920.0000000
  free_energy:        30.7501332
  entropy:            85.8667123
  heat_capacity:      81.8904510
  energy:            109.7475086

- temperature:       930.0000000
  free_energy:        29.8870259
  entropy:            86.7537050
  heat_capacity:      82.2008626
  energy:            110.5679716

- temperature:       940.0000000
  free_energy:        29.0150798
  entropy:            87.6344901
  heat_capacity:      82.5036804
  energy:            111.3915005

- temperature:       950.0000000
  free_energy:        28.1343567
  entropy:            88.5091199
  heat_capacity:      82.7991281
  energy:            112.2180206

- temperature:       960.0000000
  free_energy:        27.2449178
  entropy:            89.3776474
  heat_capacity:      83.0874222
  energy:            113.0474592

- temperature:       970.0000000
  free_energy:        26.3468239
  entropy:            90.2401258
  heat_capacity:      83.3687723
  energy:            113.8797459

- temperature:       980.0000000
  free_energy:        25.4401352
  entropy:            91.0966092
  heat_capacity:      83.6433813
  energy:            114.7148122

- temperature:       990.0000000
  free_energy:        24.5249115
  entropy:            91.9471517
  heat_capacity:      83.9114457
  energy:            115.5525917

- temperature:      1000.0000000
  free_energy:        23.6012118
  entropy:            92.7918081
  heat_capacity:      84.1731555
  energy:            116.3930199
