   32   32    1    1
  0.8381369E+01  0.4932875E-09  0.4932875E-09  0.1273296E-08  0.5000000E-15
  1.000000000000000E-004
  CAR 
 graphite                                
    128     76     84
 
  0.0000000E+00  0.0000000E+00  0.0000000E+00  0.6944444E-02
    1      -14.546056
    2      -14.334307
    3      -14.333557
    4      -14.100799
    5       -9.187297
    6       -9.179711
    7       -9.176329
    8       -9.091994
    9       -9.091607
   10       -9.083882
   11       -9.080216
   12       -9.080196
   13       -9.077953
   14       -9.020699
   15       -9.008843
   16       -9.006605
   17       -8.085059
   18       -8.082248
   19       -8.080708
   20       -8.047126
   21       -8.043175
   22       -8.041231
   23       -8.040614
   24       -8.040608
   25       -8.036834
   26       -7.961396
   27       -7.956254
   28       -7.953543
   29       -3.592909
   30       -2.459123
   31       -2.456895
   32       -1.263231
   33       -1.260497
   34       -1.241126
   35       -1.219875
   36       -1.215632
   37       -1.215620
   38       -1.214838
   39       -1.196947
   40       -1.194509
   41       -1.171893
   42       -1.169435
   43       -1.149893
   44       -1.048854
   45        2.139982
   46        2.155564
   47        2.161929
   48        2.164401
   49        2.175505
   50        2.178011
   51        2.182859
   52        2.197316
   53        2.230209
   54        2.233241
   55        2.235055
   56        2.791074
   57        2.792791
   58        2.794996
   59        2.798672
   60        2.798693
   61        2.800090
   62        3.110316
   63        3.128809
   64        3.130330
   65        6.707925
   66        6.709717
   67        6.714070
   68        6.788633
   69        6.795353
   70        6.799237
   71        6.800515
   72        6.801050
   73        6.807526
   74        7.490492
   75        7.504580
   76        7.507908
   77        9.954137
   78       12.263653
   79       12.267688
   80       12.300939
   81       12.539569
   82       12.544379
   83       12.546418
   84       12.550807
 
  0.1666667E+00 -0.1387779E-16  0.0000000E+00  0.1388889E-01
    1      -14.379761
    2      -14.169914
    3      -14.169172
    4      -13.938704
    5      -10.509680
    6      -10.345681
    7      -10.345031
    8      -10.169589
    9       -9.631312
   10       -9.624477
   11       -9.485844
   12       -9.485123
   13       -9.478201
   14       -9.477680
   15       -9.333081
   16       -9.325299
   17       -7.498515
   18       -7.490616
   19       -7.383863
   20       -7.381021
   21       -7.374301
   22       -7.373924
   23       -7.253973
   24       -7.245590
   25       -6.652816
   26       -6.532798
   27       -6.531187
   28       -6.403500
   29       -3.391008
   30       -2.263903
   31       -2.261683
   32       -1.756898
   33       -1.737750
   34       -1.702373
   35       -1.701889
   36       -1.684050
   37       -1.681656
   38       -1.645896
   39       -1.626693
   40       -1.099599
   41       -1.056335
   42       -1.053290
   43       -1.009549
   44       -0.863193
   45        1.098672
   46        1.495872
   47        1.521857
   48        1.526284
   49        1.552522
   50        1.799732
   51        1.821683
   52        1.827117
   53        1.848693
   54        1.949827
   55        1.952073
   56        1.986084
   57        1.988264
   58        2.683309
   59        2.684656
   60        2.689447
   61        2.690756
   62        2.862730
   63        3.270697
   64        3.284479
   65        6.821945
   66        6.823697
   67        7.070378
   68        7.076616
   69        7.080828
   70        7.083626
   71        7.424048
   72        7.769973
   73        7.779781
   74        7.901362
   75        7.905718
   76        8.693333
   77       10.148423
   78       12.359473
   79       12.628861
   80       12.630738
   81       12.905857
   82       12.999378
   83       13.034745
   84       13.148429
 
  0.3333333E+00 -0.5551115E-16  0.0000000E+00  0.1388889E-01
    1      -13.882736
    2      -13.678488
    3      -13.677770
    4      -13.454166
    5      -11.926449
    6      -11.744440
    7      -11.743815
    8      -11.546955
    9      -10.058448
   10      -10.054809
   11       -9.900900
   12       -9.899627
   13       -9.896490
   14       -9.895823
   15       -9.731152
   16       -9.727294
   17       -6.323056
   18       -6.312294
   19       -6.214319
   20       -6.211466
   21       -6.202439
   22       -6.201793
   23       -6.096623
   24       -6.086133
   25       -4.529345
   26       -4.428893
   27       -4.427085
   28       -4.321912
   29       -2.919553
   30       -2.903568
   31       -2.850108
   32       -2.849871
   33       -2.835015
   34       -2.832533
   35       -2.789483
   36       -2.776432
   37       -2.760204
   38       -1.683412
   39       -1.681202
   40       -0.625085
   41       -0.583734
   42       -0.580362
   43       -0.538514
   44       -0.469425
   45       -0.313185
   46       -0.168723
   47       -0.118893
   48       -0.115352
   49       -0.065109
   50        0.529121
   51        0.531140
   52        0.997516
   53        1.029001
   54        1.033617
   55        1.065392
   56        1.659208
   57        1.661648
   58        1.725964
   59        2.494274
   60        2.494932
   61        2.497810
   62        2.500222
   63        3.395958
   64        3.402604
   65        7.239221
   66        7.243785
   67        7.648541
   68        7.653806
   69        7.657024
   70        7.658884
   71        8.210539
   72        8.214520
   73        9.530004
   74       10.039966
   75       10.043416
   76       10.717206
   77       10.735492
   78       12.594427
   79       12.869374
   80       12.871490
   81       12.927135
   82       13.313035
   83       13.318171
   84       13.369170
 
  0.5000000E+00  0.0000000E+00  0.0000000E+00  0.6944444E-02
    1      -13.062345
    2      -13.059447
    3      -12.868670
    4      -12.865421
    5      -12.865414
    6      -12.862762
    7      -12.654292
    8      -12.651321
    9      -10.208096
   10      -10.206285
   11      -10.048109
   12      -10.045900
   13      -10.045825
   14      -10.044375
   15       -9.874644
   16       -9.872794
   17       -5.395060
   18       -5.392625
   19       -5.334810
   20       -5.330506
   21       -5.329688
   22       -5.329680
   23       -5.274817
   24       -5.272904
   25       -3.788581
   26       -3.787447
   27       -3.752614
   28       -3.752609
   29       -3.751506
   30       -3.748591
   31       -3.700714
   32       -3.698953
   33       -2.298716
   34       -2.295779
   35       -2.222655
   36       -2.221886
   37       -2.221871
   38       -2.216220
   39       -2.142584
   40       -2.139035
   41       -1.804274
   42       -1.801917
   43       -0.737739
   44       -0.734122
   45       -0.733848
   46       -0.731326
   47        0.108029
   48        0.114386
   49        0.144744
   50        0.153255
   51        0.153276
   52        0.154417
   53        0.189701
   54        0.193823
   55        0.573381
   56        0.576082
   57        1.532496
   58        1.534517
   59        2.409712
   60        2.411123
   61        2.411513
   62        2.415069
   63        3.414920
   64        3.417397
   65        7.544251
   66        7.547167
   67        7.955015
   68        7.960491
   69        7.960585
   70        7.960703
   71        8.371402
   72        8.374056
   73       11.694852
   74       11.696346
   75       11.983289
   76       11.986634
   77       12.317579
   78       12.320237
   79       12.321813
   80       12.328420
   81       12.846558
   82       12.850196
   83       13.038841
   84       13.041963
 
 -0.1355253E-19  0.1666667E+00  0.0000000E+00  0.1388889E-01
    1      -14.379764
    2      -14.169919
    3      -14.169174
    4      -13.938708
    5      -10.509687
    6      -10.345685
    7      -10.345031
    8      -10.169586
    9       -9.631402
   10       -9.624545
   11       -9.486128
   12       -9.485142
   13       -9.478202
   14       -9.477708
   15       -9.333121
   16       -9.325448
   17       -7.498677
   18       -7.489375
   19       -7.384301
   20       -7.381024
   21       -7.374048
   22       -7.371496
   23       -7.254103
   24       -7.244289
   25       -6.653737
   26       -6.533167
   27       -6.532682
   28       -6.404445
   29       -3.390998
   30       -2.263888
   31       -2.261672
   32       -1.758210
   33       -1.737787
   34       -1.704814
   35       -1.701903
   36       -1.684050
   37       -1.681868
   38       -1.647131
   39       -1.626815
   40       -1.098118
   41       -1.053605
   42       -1.053272
   43       -1.008261
   44       -0.863175
   45        1.099317
   46        1.493621
   47        1.520968
   48        1.521859
   49        1.549183
   50        1.803431
   51        1.827015
   52        1.827128
   53        1.850854
   54        1.950997
   55        1.952371
   56        1.985481
   57        1.987821
   58        2.683194
   59        2.684203
   60        2.688427
   61        2.689831
   62        2.863731
   63        3.270682
   64        3.283292
   65        6.823123
   66        6.824470
   67        7.070913
   68        7.076535
   69        7.081676
   70        7.086685
   71        7.422278
   72        7.770130
   73        7.781871
   74        7.900275
   75        7.903608
   76        8.691785
   77       10.148439
   78       12.360025
   79       12.629859
   80       12.630822
   81       12.906373
   82       12.998882
   83       13.034632
   84       13.149493
 
  0.1666667E+00  0.1666667E+00  0.0000000E+00  0.1388889E-01
    1      -14.047883
    2      -13.841761
    3      -13.841036
    4      -13.615163
    5      -11.134844
    6      -11.131778
    7      -10.963746
    8      -10.960303
    9      -10.960281
   10      -10.957528
   11      -10.776024
   12      -10.772895
   13       -8.759991
   14       -8.668889
   15       -8.667626
   16       -8.599800
   17       -7.679567
   18       -7.646854
   19       -7.643197
   20       -7.570615
   21       -5.540144
   22       -5.536650
   23       -5.432115
   24       -5.428997
   25       -5.428977
   26       -5.424939
   27       -5.315345
   28       -5.311650
   29       -3.091767
   30       -3.019463
   31       -3.017542
   32       -2.988971
   33       -2.941691
   34       -1.875661
   35       -1.873452
   36       -1.429188
   37       -1.426012
   38       -1.378509
   39       -1.374078
   40       -1.374066
   41       -1.372513
   42       -1.322100
   43       -1.319233
   44       -0.494933
   45        0.440557
   46        0.442005
   47        0.461588
   48        0.486867
   49        0.491636
   50        0.514732
   51        1.126000
   52        1.142978
   53        1.148052
   54        1.167272
   55        1.375893
   56        1.379171
   57        1.379292
   58        1.381611
   59        2.464418
   60        2.466950
   61        2.830070
   62        3.387566
   63        3.390002
   64        3.687286
   65        6.578556
   66        6.584022
   67        6.671166
   68        6.969282
   69        8.341306
   70        8.343781
   71        8.851499
   72        8.853753
   73        8.854500
   74        8.858498
   75        9.533827
   76        9.536603
   77       10.540282
   78       13.174312
   79       13.178834
   80       13.414795
   81       13.419789
   82       13.442295
   83       13.446828
   84       13.448313
 
  0.3333333E+00  0.1666667E+00  0.0000000E+00  0.1388889E-01
    1      -13.388199
    2      -13.189531
    3      -13.188838
    4      -12.971996
    5      -12.411376
    6      -12.223796
    7      -12.223140
    8      -12.019660
    9      -11.451746
   10      -11.275400
   11      -11.274702
   12      -11.084492
   13       -8.758288
   14       -8.624010
   15       -8.623552
   16       -8.484320
   17       -6.847870
   18       -6.758468
   19       -6.755370
   20       -6.660691
   21       -4.524049
   22       -4.456013
   23       -4.453945
   24       -4.375687
   25       -4.369995
   26       -4.290512
   27       -4.288578
   28       -4.208073
   29       -3.386424
   30       -3.302582
   31       -3.300821
   32       -3.213936
   33       -2.326210
   34       -2.273000
   35       -2.271529
   36       -2.212626
   37       -2.193960
   38       -1.280961
   39       -1.232932
   40       -1.229196
   41       -1.172005
   42       -1.105144
   43       -1.103580
   44       -1.030849
   45       -0.787959
   46       -0.742210
   47       -0.739161
   48       -0.691883
   49        0.001263
   50        0.003268
   51        0.098107
   52        0.113455
   53        0.146127
   54        0.150783
   55        0.185818
   56        0.226231
   57        1.071998
   58        1.073750
   59        1.256077
   60        2.232894
   61        3.099576
   62        3.794642
   63        3.796759
   64        4.396493
   65        6.165998
   66        6.439201
   67        6.443178
   68        6.898024
   69        9.156743
   70        9.566716
   71        9.569253
   72       10.004138
   73       10.642528
   74       11.060384
   75       11.062950
   76       11.324349
   77       11.576152
   78       12.474070
   79       12.934772
   80       13.157215
   81       13.162287
   82       13.543993
   83       13.555654
   84       13.708597
 
  0.5000000E+00  0.1666667E+00  0.0000000E+00  0.1388889E-01
    1      -13.389433
    2      -13.190771
    3      -13.190058
    4      -12.973222
    5      -12.409647
    6      -12.222054
    7      -12.221423
    8      -12.017935
    9      -11.452985
   10      -11.276654
   11      -11.275937
   12      -11.085750
   13       -8.755920
   14       -8.621295
   15       -8.620824
   16       -8.481093
   17       -6.841569
   18       -6.751177
   19       -6.749881
   20       -6.654466
   21       -4.533412
   22       -4.465192
   23       -4.464666
   24       -4.386196
   25       -4.380800
   26       -4.301527
   27       -4.298248
   28       -4.217743
   29       -3.389411
   30       -3.305953
   31       -3.303460
   32       -3.216957
   33       -2.313788
   34       -2.260836
   35       -2.257740
   36       -2.199329
   37       -2.194999
   38       -1.280906
   39       -1.232057
   40       -1.230302
   41       -1.172306
   42       -1.106262
   43       -1.104758
   44       -1.029301
   45       -0.785314
   46       -0.739902
   47       -0.736008
   48       -0.689130
   49        0.002764
   50        0.004845
   51        0.097197
   52        0.113807
   53        0.147143
   54        0.149548
   55        0.185348
   56        0.225134
   57        1.070819
   58        1.072640
   59        1.257453
   60        2.231326
   61        3.098956
   62        3.797430
   63        3.798385
   64        4.406208
   65        6.162990
   66        6.441692
   67        6.443940
   68        6.898073
   69        9.151688
   70        9.562538
   71        9.565797
   72       10.003272
   73       10.644477
   74       11.059896
   75       11.062744
   76       11.322702
   77       11.573642
   78       12.476181
   79       12.930263
   80       13.157617
   81       13.162471
   82       13.538886
   83       13.557732
   84       13.711281
 
 -0.3333333E+00  0.1666667E+00  0.0000000E+00  0.1388889E-01
    1      -14.048621
    2      -13.842503
    3      -13.841765
    4      -13.615896
    5      -11.137018
    6      -11.131050
    7      -10.964590
    8      -10.963891
    9      -10.958544
   10      -10.957942
   11      -10.778321
   12      -10.772294
   13       -8.751563
   14       -8.658331
   15       -8.657884
   16       -8.587609
   17       -7.677740
   18       -7.642159
   19       -7.641779
   20       -7.566491
   21       -5.550787
   22       -5.541192
   23       -5.442306
   24       -5.439854
   25       -5.432530
   26       -5.430747
   27       -5.325739
   28       -5.316483
   29       -3.107354
   30       -3.034365
   31       -3.033951
   32       -2.989700
   33       -2.957390
   34       -1.876366
   35       -1.874170
   36       -1.426056
   37       -1.407638
   38       -1.374918
   39       -1.371692
   40       -1.356173
   41       -1.353661
   42       -1.319282
   43       -1.300865
   44       -0.495630
   45        0.438206
   46        0.442597
   47        0.452099
   48        0.479262
   49        0.479435
   50        0.504590
   51        1.137172
   52        1.155310
   53        1.155539
   54        1.176706
   55        1.374813
   56        1.376712
   57        1.379503
   58        1.381545
   59        2.461199
   60        2.466630
   61        2.827909
   62        3.394024
   63        3.394468
   64        3.705947
   65        6.584319
   66        6.587203
   67        6.664731
   68        6.975990
   69        8.333882
   70        8.343814
   71        8.843254
   72        8.847610
   73        8.852393
   74        8.856052
   75        9.529024
   76        9.533144
   77       10.539246
   78       13.173037
   79       13.208607
   80       13.416538
   81       13.420817
   82       13.441918
   83       13.444326
   84       13.479582
 
 -0.1666667E+00  0.1666667E+00  0.0000000E+00  0.1388889E-01
    1      -14.380010
    2      -14.170166
    3      -14.169417
    4      -13.938952
    5      -10.515940
    6      -10.352036
    7      -10.351414
    8      -10.176067
    9       -9.623395
   10       -9.621244
   11       -9.478460
   12       -9.475752
   13       -9.475701
   14       -9.474097
   15       -9.324383
   16       -9.322228
   17       -7.493699
   18       -7.491856
   19       -7.378002
   20       -7.376889
   21       -7.376849
   22       -7.374155
   23       -7.248981
   24       -7.247033
   25       -6.662766
   26       -6.543040
   27       -6.540806
   28       -6.413344
   29       -3.391243
   30       -2.264130
   31       -2.261918
   32       -1.758016
   33       -1.755472
   34       -1.705131
   35       -1.701071
   36       -1.701057
   37       -1.700312
   38       -1.646858
   39       -1.644561
   40       -1.078417
   41       -1.034903
   42       -1.032533
   43       -0.988488
   44       -0.863412
   45        1.095568
   46        1.477676
   47        1.503850
   48        1.509258
   49        1.535071
   50        1.818175
   51        1.839835
   52        1.844373
   53        1.866582
   54        1.945555
   55        1.947468
   56        1.987288
   57        1.990031
   58        2.686691
   59        2.690722
   60        2.690947
   61        2.691829
   62        2.855013
   63        3.282871
   64        3.284891
   65        6.823133
   66        6.825416
   67        7.078602
   68        7.080803
   69        7.081249
   70        7.087013
   71        7.417149
   72        7.776963
   73        7.780043
   74        7.890900
   75        7.895777
   76        8.683925
   77       10.148077
   78       12.394109
   79       12.663785
   80       12.664809
   81       12.940328
   82       12.996145
   83       12.999986
   84       13.148644
 
  0.0000000E+00  0.3333333E+00  0.0000000E+00  0.1388889E-01
    1      -13.882750
    2      -13.678509
    3      -13.677778
    4      -13.454180
    5      -11.926504
    6      -11.744523
    7      -11.743842
    8      -11.547012
    9      -10.058749
   10      -10.054512
   11       -9.901692
   12       -9.899642
   13       -9.896426
   14       -9.895025
   15       -9.731404
   16       -9.726988
   17       -6.323077
   18       -6.311069
   19       -6.214491
   20       -6.211467
   21       -6.201850
   22       -6.199558
   23       -6.096547
   24       -6.084754
   25       -4.530368
   26       -4.429279
   27       -4.428813
   28       -4.323006
   29       -2.920950
   30       -2.903857
   31       -2.852634
   32       -2.850026
   33       -2.835016
   34       -2.833110
   35       -2.789436
   36       -2.777734
   37       -2.760500
   38       -1.683345
   39       -1.681154
   40       -0.623440
   41       -0.580746
   42       -0.580349
   43       -0.537126
   44       -0.469142
   45       -0.313118
   46       -0.170487
   47       -0.119250
   48       -0.118877
   49       -0.067269
   50        0.529549
   51        0.531377
   52        1.000094
   53        1.033302
   54        1.033626
   55        1.067277
   56        1.658380
   57        1.661508
   58        1.726441
   59        2.492767
   60        2.494812
   61        2.497898
   62        2.499565
   63        3.395559
   64        3.401674
   65        7.239669
   66        7.245693
   67        7.649254
   68        7.653764
   69        7.657961
   70        7.661721
   71        8.210662
   72        8.216484
   73        9.528734
   74       10.039055
   75       10.042193
   76       10.716336
   77       10.735390
   78       12.595107
   79       12.870866
   80       12.871538
   81       12.927660
   82       13.315203
   83       13.318999
   84       13.369453
 
  0.1666667E+00  0.3333333E+00  0.0000000E+00  0.1388889E-01
    1      -13.388208
    2      -13.189542
    3      -13.188842
    4      -12.972002
    5      -12.411439
    6      -12.223892
    7      -12.223168
    8      -12.019723
    9      -11.451687
   10      -11.275305
   11      -11.274675
   12      -11.084431
   13       -8.758337
   14       -8.624049
   15       -8.623629
   16       -8.484387
   17       -6.847447
   18       -6.757605
   19       -6.755366
   20       -6.660238
   21       -4.524471
   22       -4.456018
   23       -4.454789
   24       -4.376163
   25       -4.368461
   26       -4.288600
   27       -4.287494
   28       -4.206570
   29       -3.387792
   30       -3.303679
   31       -3.302554
   32       -3.215402
   33       -2.327971
   34       -2.275065
   35       -2.272990
   36       -2.214374
   37       -2.193928
   38       -1.281944
   39       -1.232963
   40       -1.231256
   41       -1.173192
   42       -1.105115
   43       -1.103586
   44       -1.030677
   45       -0.786029
   46       -0.739173
   47       -0.738533
   48       -0.690135
   49        0.001578
   50        0.003472
   51        0.097892
   52        0.114788
   53        0.148465
   54        0.150784
   55        0.186848
   56        0.226289
   57        1.071588
   58        1.073396
   59        1.256418
   60        2.232384
   61        3.099106
   62        3.794599
   63        3.795816
   64        4.396137
   65        6.166469
   66        6.440597
   67        6.443228
   68        6.898812
   69        9.158173
   70        9.568551
   71        9.569845
   72       10.005143
   73       10.641281
   74       11.059088
   75       11.062192
   76       11.324351
   77       11.575216
   78       12.474193
   79       12.934375
   80       13.157165
   81       13.162109
   82       13.545386
   83       13.555472
   84       13.712529
 
  0.3333333E+00  0.3333333E+00  0.0000000E+00  0.1388889E-01
    1      -12.576545
    2      -12.573785
    3      -12.571145
    4      -12.388934
    5      -12.384869
    6      -12.384834
    7      -12.383884
    8      -12.381952
    9      -12.379798
   10      -12.180707
   11      -12.177961
   12      -12.175258
   13       -7.548568
   14       -7.408725
   15       -7.408322
   16       -7.400875
   17       -7.398244
   18       -7.393466
   19       -7.392061
   20       -7.255437
   21       -5.357530
   22       -5.357211
   23       -5.347136
   24       -5.345383
   25       -2.613073
   26       -2.609287
   27       -2.605767
   28       -2.570413
   29       -2.564373
   30       -2.564180
   31       -2.564152
   32       -2.563369
   33       -2.558198
   34       -2.524597
   35       -2.522154
   36       -2.518629
   37       -1.244325
   38       -1.238373
   39       -1.235430
   40       -1.223601
   41       -1.220830
   42       -1.218664
   43       -1.215485
   44       -1.211912
   45       -1.210181
   46       -1.209494
   47       -1.209473
   48       -1.202093
   49       -1.178939
   50       -1.174584
   51       -1.169344
   52       -0.180854
   53       -0.176990
   54       -0.176705
   55       -0.175468
   56       -0.174189
   57       -0.171289
   58        1.093507
   59        1.096031
   60        1.098245
   61        4.299374
   62        5.099977
   63        5.112078
   64        5.134753
   65        5.135333
   66        5.166513
   67        5.166985
   68        6.119156
   69       11.180550
   70       11.183408
   71       11.191754
   72       11.501296
   73       11.506475
   74       11.506868
   75       11.507190
   76       11.508210
   77       11.511343
   78       11.846923
   79       11.851102
   80       11.854214
   81       12.303772
   82       12.305080
   83       12.308742
   84       14.751818
 
  0.5000000E+00  0.3333333E+00  0.0000000E+00  0.1388889E-01
    1      -13.390177
    2      -13.191527
    3      -13.190789
    4      -12.973965
    5      -12.413376
    6      -12.225833
    7      -12.225100
    8      -12.021661
    9      -11.447772
   10      -11.271378
   11      -11.270776
   12      -11.080521
   13       -8.748759
   14       -8.614326
   15       -8.613674
   16       -8.474230
   17       -6.847944
   18       -6.757966
   19       -6.757339
   20       -6.662273
   21       -4.533281
   22       -4.465482
   23       -4.464246
   24       -4.386098
   25       -4.373456
   26       -4.294493
   27       -4.291818
   28       -4.211816
   29       -3.401668
   30       -3.318293
   31       -3.315088
   32       -3.228651
   33       -2.325722
   34       -2.273615
   35       -2.269765
   36       -2.212011
   37       -2.195804
   38       -1.294276
   39       -1.244717
   40       -1.242166
   41       -1.184335
   42       -1.107456
   43       -1.105887
   44       -1.032406
   45       -0.768281
   46       -0.722510
   47       -0.719355
   48       -0.672050
   49       -0.000267
   50        0.001651
   51        0.101425
   52        0.127724
   53        0.161780
   54        0.164146
   55        0.200417
   56        0.224470
   57        1.074679
   58        1.076685
   59        1.254321
   60        2.235330
   61        3.102506
   62        3.800104
   63        3.801611
   64        4.406097
   65        6.171971
   66        6.440691
   67        6.442360
   68        6.888182
   69        9.163104
   70        9.567637
   71        9.569958
   72        9.998646
   73       10.632489
   74       11.051838
   75       11.055782
   76       11.321770
   77       11.572309
   78       12.472262
   79       12.924416
   80       13.154737
   81       13.159691
   82       13.556800
   83       13.574900
   84       13.739365
 
 -0.3333333E+00  0.3333333E+00  0.0000000E+00  0.1388889E-01
    1      -13.883733
    2      -13.679498
    3      -13.678748
    4      -13.455156
    5      -11.930421
    6      -11.748468
    7      -11.747744
    8      -11.550945
    9      -10.051209
   10      -10.049351
   11       -9.893914
   12       -9.891685
   13       -9.891620
   14       -9.890093
   15       -9.723751
   16       -9.721853
   17       -6.318745
   18       -6.316848
   19       -6.209316
   20       -6.208319
   21       -6.208276
   22       -6.205330
   23       -6.092954
   24       -6.090906
   25       -4.542392
   26       -4.442148
   27       -4.439646
   28       -4.334694
   29       -2.919231
   30       -2.917123
   31       -2.851569
   32       -2.847649
   33       -2.847575
   34       -2.847445
   35       -2.790402
   36       -2.776044
   37       -2.774104
   38       -1.684290
   39       -1.682111
   40       -0.604442
   41       -0.562798
   42       -0.560190
   43       -0.518004
   44       -0.472501
   45       -0.314058
   46       -0.186131
   47       -0.136337
   48       -0.132170
   49       -0.082047
   50        0.525942
   51        0.527828
   52        1.016534
   53        1.048123
   54        1.052032
   55        1.084175
   56        1.663004
   57        1.665235
   58        1.722281
   59        2.497268
   60        2.501320
   61        2.501618
   62        2.502649
   63        3.402441
   64        3.404827
   65        7.246131
   66        7.248773
   67        7.654010
   68        7.655566
   69        7.655813
   70        7.660813
   71        8.207165
   72        8.209933
   73        9.518865
   74       10.029868
   75       10.034004
   76       10.711495
   77       10.733679
   78       12.622162
   79       12.902089
   80       12.903317
   81       12.944810
   82       13.326704
   83       13.331144
   84       13.385181
 
 -0.1666667E+00  0.3333333E+00  0.0000000E+00  0.1388889E-01
    1      -14.048632
    2      -13.842519
    3      -13.841771
    4      -13.615907
    5      -11.137396
    6      -11.130739
    7      -10.965743
    8      -10.963975
    9      -10.958164
   10      -10.957078
   11      -10.778643
   12      -10.771904
   13       -8.752372
   14       -8.659874
   15       -8.657915
   16       -8.588288
   17       -7.676304
   18       -7.641803
   19       -7.638689
   20       -7.564686
   21       -5.551073
   22       -5.541831
   23       -5.443164
   24       -5.439856
   25       -5.432536
   26       -5.431490
   27       -5.325893
   28       -5.317031
   29       -3.108533
   30       -3.036613
   31       -3.033985
   32       -2.989667
   33       -2.958501
   34       -1.876322
   35       -1.874137
   36       -1.424840
   37       -1.407806
   38       -1.372694
   39       -1.371688
   40       -1.356173
   41       -1.353654
   42       -1.318069
   43       -1.300846
   44       -0.495576
   45        0.436912
   46        0.443275
   47        0.449999
   48        0.474842
   49        0.479264