<?xml version="1.0" encoding="ISO-8859-1"?>
<modeling>
 <generator>
  <i name="program" type="string">vasp </i>
  <i name="version" type="string">5.3.5  </i>
  <i name="subversion" type="string">31Mar14 (build Nov 02 2014 15:17:37) complex                          parallel </i>
  <i name="platform" type="string">ion-Intel-MKL </i>
  <i name="date" type="string">2016 10 18 </i>
  <i name="time" type="string">19:24:41 </i>
 </generator>
 <incar>
  <i type="string" name="SYSTEM">graphite</i>
  <i type="string" name="PREC">accurate</i>
  <i type="int" name="NELM">   200</i>
  <i type="int" name="IBRION">    -1</i>
  <i name="EDIFF">      0.00000001</i>
  <i name="EDIFFG">      0.00100000</i>
  <i type="int" name="NSW">     0</i>
  <i type="int" name="ISIF">     2</i>
  <i name="ENCUT">    800.00000000</i>
  <i type="int" name="ISMEAR">    -5</i>
  <i type="logical" name="LWAVE"> F  </i>
  <i type="logical" name="LCHARG"> F  </i>
  <i type="int" name="NELM">   200</i>
  <i type="string" name="GGA">PE</i>
 </incar>
 <kpoints>
  <generation param="Gamma">
   <v type="int" name="divisions">       6        6        4 </v>
   <v name="usershift">      0.00000000       0.00000000       0.00000000 </v>
   <v name="genvec1">      0.16666667      -0.00000000       0.00000000 </v>
   <v name="genvec2">      0.00000000       0.16666667       0.00000000 </v>
   <v name="genvec3">      0.00000000       0.00000000       0.25000000 </v>
   <v name="shift">      0.00000000       0.00000000       0.00000000 </v>
  </generation>
  <varray name="kpointlist" >
   <v>       0.00000000       0.00000000       0.00000000 </v>
   <v>       0.16666667      -0.00000000       0.00000000 </v>
   <v>       0.33333333      -0.00000000       0.00000000 </v>
   <v>       0.50000000       0.00000000       0.00000000 </v>
   <v>      -0.00000000       0.16666667       0.00000000 </v>
   <v>       0.16666667       0.16666667       0.00000000 </v>
   <v>       0.33333333       0.16666667       0.00000000 </v>
   <v>       0.50000000       0.16666667       0.00000000 </v>
   <v>      -0.33333333       0.16666667       0.00000000 </v>
   <v>      -0.16666667       0.16666667       0.00000000 </v>
   <v>       0.00000000       0.33333333       0.00000000 </v>
   <v>       0.16666667       0.33333333       0.00000000 </v>
   <v>       0.33333333       0.33333333       0.00000000 </v>
   <v>       0.50000000       0.33333333       0.00000000 </v>
   <v>      -0.33333333       0.33333333       0.00000000 </v>
   <v>      -0.16666667       0.33333333       0.00000000 </v>
   <v>      -0.00000000       0.50000000       0.00000000 </v>
   <v>       0.16666667       0.50000000       0.00000000 </v>
   <v>       0.33333333       0.50000000       0.00000000 </v>
   <v>       0.50000000       0.50000000       0.00000000 </v>
   <v>       0.00000000       0.00000000       0.25000000 </v>
   <v>       0.16666667      -0.00000000       0.25000000 </v>
   <v>       0.33333333      -0.00000000       0.25000000 </v>
   <v>       0.50000000       0.00000000       0.25000000 </v>
   <v>      -0.33333333       0.00000000       0.25000000 </v>
   <v>      -0.16666667       0.00000000       0.25000000 </v>
   <v>      -0.00000000       0.16666667       0.25000000 </v>
   <v>       0.16666667       0.16666667       0.25000000 </v>
   <v>       0.33333333       0.16666667       0.25000000 </v>
   <v>       0.50000000       0.16666667       0.25000000 </v>
   <v>      -0.33333333       0.16666667       0.25000000 </v>
   <v>      -0.16666667       0.16666667       0.25000000 </v>
   <v>       0.00000000       0.33333333       0.25000000 </v>
   <v>       0.16666667       0.33333333       0.25000000 </v>
   <v>       0.33333333       0.33333333       0.25000000 </v>
   <v>       0.50000000       0.33333333       0.25000000 </v>
   <v>      -0.33333333       0.33333333       0.25000000 </v>
   <v>      -0.16666667       0.33333333       0.25000000 </v>
   <v>      -0.00000000       0.50000000       0.25000000 </v>
   <v>       0.16666667       0.50000000       0.25000000 </v>
   <v>       0.33333333       0.50000000       0.25000000 </v>
   <v>       0.50000000       0.50000000       0.25000000 </v>
   <v>      -0.33333333       0.50000000       0.25000000 </v>
   <v>      -0.16666667       0.50000000       0.25000000 </v>
   <v>       0.00000000      -0.33333333       0.25000000 </v>
   <v>       0.16666667      -0.33333333       0.25000000 </v>
   <v>       0.33333333      -0.33333333       0.25000000 </v>
   <v>       0.50000000      -0.33333333       0.25000000 </v>
   <v>      -0.33333333      -0.33333333       0.25000000 </v>
   <v>      -0.16666667      -0.33333333       0.25000000 </v>
   <v>       0.00000000      -0.16666667       0.25000000 </v>
   <v>       0.16666667      -0.16666667       0.25000000 </v>
   <v>       0.33333333      -0.16666667       0.25000000 </v>
   <v>       0.50000000      -0.16666667       0.25000000 </v>
   <v>      -0.33333333      -0.16666667       0.25000000 </v>
   <v>      -0.16666667      -0.16666667       0.25000000 </v>
   <v>       0.00000000       0.00000000       0.50000000 </v>
   <v>       0.16666667      -0.00000000       0.50000000 </v>
   <v>       0.33333333      -0.00000000       0.50000000 </v>
   <v>       0.50000000       0.00000000       0.50000000 </v>
   <v>      -0.00000000       0.16666667       0.50000000 </v>
   <v>       0.16666667       0.16666667       0.50000000 </v>
   <v>       0.33333333       0.16666667       0.50000000 </v>
   <v>       0.50000000       0.16666667       0.50000000 </v>
   <v>      -0.33333333       0.16666667       0.50000000 </v>
   <v>      -0.16666667       0.16666667       0.50000000 </v>
   <v>       0.00000000       0.33333333       0.50000000 </v>
   <v>       0.16666667       0.33333333       0.50000000 </v>
   <v>       0.33333333       0.33333333       0.50000000 </v>
   <v>       0.50000000       0.33333333       0.50000000 </v>
   <v>      -0.33333333       0.33333333       0.50000000 </v>
   <v>      -0.16666667       0.33333333       0.50000000 </v>
   <v>      -0.00000000       0.50000000       0.50000000 </v>
   <v>       0.16666667       0.50000000       0.50000000 </v>
   <v>       0.33333333       0.50000000       0.50000000 </v>
   <v>       0.50000000       0.50000000       0.50000000 </v>
  </varray>
  <varray name="weights" >
   <v>       0.00694444 </v>
   <v>       0.01388889 </v>
   <v>       0.01388889 </v>
   <v>       0.00694444 </v>
   <v>       0.01388889 </v>
   <v>       0.01388889 </v>
   <v>       0.01388889 </v>
   <v>       0.01388889 </v>
   <v>       0.01388889 </v>
   <v>       0.01388889 </v>
   <v>       0.01388889 </v>
   <v>       0.01388889 </v>
   <v>       0.01388889 </v>
   <v>       0.01388889 </v>
   <v>       0.01388889 </v>
   <v>       0.01388889 </v>
   <v>       0.00694444 </v>
   <v>       0.01388889 </v>
   <v>       0.01388889 </v>
   <v>       0.00694444 </v>
   <v>       0.01388889 </v>
   <v>       0.01388889 </v>
   <v>       0.01388889 </v>
   <v>       0.01388889 </v>
   <v>       0.01388889 </v>
   <v>       0.01388889 </v>
   <v>       0.01388889 </v>
   <v>       0.01388889 </v>
   <v>       0.01388889 </v>
   <v>       0.01388889 </v>
   <v>       0.01388889 </v>
   <v>       0.01388889 </v>
   <v>       0.01388889 </v>
   <v>       0.01388889 </v>
   <v>       0.01388889 </v>
   <v>       0.01388889 </v>
   <v>       0.01388889 </v>
   <v>       0.01388889 </v>
   <v>       0.01388889 </v>
   <v>       0.01388889 </v>
   <v>       0.01388889 </v>
   <v>       0.01388889 </v>
   <v>       0.01388889 </v>
   <v>       0.01388889 </v>
   <v>       0.01388889 </v>
   <v>       0.01388889 </v>
   <v>       0.01388889 </v>
   <v>       0.01388889 </v>
   <v>       0.01388889 </v>
   <v>       0.01388889 </v>
   <v>       0.01388889 </v>
   <v>       0.01388889 </v>
   <v>       0.01388889 </v>
   <v>       0.01388889 </v>
   <v>       0.01388889 </v>
   <v>       0.01388889 </v>
   <v>       0.00694444 </v>
   <v>       0.01388889 </v>
   <v>       0.01388889 </v>
   <v>       0.00694444 </v>
   <v>       0.01388889 </v>
   <v>       0.01388889 </v>
   <v>       0.01388889 </v>
   <v>       0.01388889 </v>
   <v>       0.01388889 </v>
   <v>       0.01388889 </v>
   <v>       0.01388889 </v>
   <v>       0.01388889 </v>
   <v>       0.01388889 </v>
   <v>       0.01388889 </v>
   <v>       0.01388889 </v>
   <v>       0.01388889 </v>
   <v>       0.00694444 </v>
   <v>       0.01388889 </v>
   <v>       0.01388889 </v>
   <v>       0.00694444 </v>
  </varray>
  <varray name="tetrahedronlist"  type="int" >
   <v type="int" >        2        2        5        6       27 </v>
   <v type="int" >        2        1        2        5       27 </v>
   <v type="int" >        2        1        2       21       27 </v>
   <v type="int" >        2        2        6       27       28 </v>
   <v type="int" >        2        2       22       27       28 </v>
   <v type="int" >        2        2       21       22       27 </v>
   <v type="int" >        2        3        6        7       28 </v>
   <v type="int" >        2        2        3        6       28 </v>
   <v type="int" >        2        2        3       22       28 </v>
   <v type="int" >        2        3        7       28       29 </v>
   <v type="int" >        2        3       23       28       29 </v>
   <v type="int" >        2        3       22       23       28 </v>
   <v type="int" >        2        4        7        8       29 </v>
   <v type="int" >        2        3        4        7       29 </v>
   <v type="int" >        2        3        4       23       29 </v>
   <v type="int" >        2        4        8       29       30 </v>
   <v type="int" >        2        4       24       29       30 </v>
   <v type="int" >        2        4       23       24       29 </v>
   <v type="int" >        2        3        8        9       30 </v>
   <v type="int" >        2        3        4        8       30 </v>
   <v type="int" >        2        3        4       24       30 </v>
   <v type="int" >        2        3        9       30       31 </v>
   <v type="int" >        2        3       25       30       31 </v>
   <v type="int" >        2        3       24       25       30 </v>
   <v type="int" >        2        2        9       10       31 </v>
   <v type="int" >        2        2        3        9       31 </v>
   <v type="int" >        2        2        3       25       31 </v>
   <v type="int" >        2        2       10       31       32 </v>
   <v type="int" >        2        2       26       31       32 </v>
   <v type="int" >        2        2       25       26       31 </v>
   <v type="int" >        2        1        5       10       32 </v>
   <v type="int" >        2        1        2       10       32 </v>
   <v type="int" >        2        1        2       26       32 </v>
   <v type="int" >        2        1        5       27       32 </v>
   <v type="int" >        2        1       21       27       32 </v>
   <v type="int" >        2        1       21       26       32 </v>
   <v type="int" >        2        6       11       12       33 </v>
   <v type="int" >        2        5        6       11       33 </v>
   <v type="int" >        2        5        6       27       33 </v>
   <v type="int" >        2        6       12       33       34 </v>
   <v type="int" >        2        6       28       33       34 </v>
   <v type="int" >        2        6       27       28       33 </v>
   <v type="int" >        2        7       12       13       34 </v>
   <v type="int" >        2        6        7       12       34 </v>
   <v type="int" >        2        6        7       28       34 </v>
   <v type="int" >        2        7       13       34       35 </v>
   <v type="int" >        2        7       29       34       35 </v>
   <v type="int" >        2        7       28       29       34 </v>
   <v type="int" >        2        8       13       14       35 </v>
   <v type="int" >        2        7        8       13       35 </v>
   <v type="int" >        2        7        8       29       35 </v>
   <v type="int" >        2        8       14       35       36 </v>
   <v type="int" >        2        8       30       35       36 </v>
   <v type="int" >        2        8       29       30       35 </v>
   <v type="int" >        2        9       14       15       36 </v>
   <v type="int" >        2        8        9       14       36 </v>
   <v type="int" >        2        8        9       30       36 </v>
   <v type="int" >        2        9       15       36       37 </v>
   <v type="int" >        2        9       31       36       37 </v>
   <v type="int" >        2        9       30       31       36 </v>
   <v type="int" >        2       10       15       16       37 </v>
   <v type="int" >        2        9       10       15       37 </v>
   <v type="int" >        2        9       10       31       37 </v>
   <v type="int" >        2       10       16       37       38 </v>
   <v type="int" >        2       10       32       37       38 </v>
   <v type="int" >        2       10       31       32       37 </v>
   <v type="int" >        2        5       11       16       38 </v>
   <v type="int" >        2        5       10       16       38 </v>
   <v type="int" >        2        5       10       32       38 </v>
   <v type="int" >        2        5       11       33       38 </v>
   <v type="int" >        2        5       27       33       38 </v>
   <v type="int" >        2        5       27       32       38 </v>
   <v type="int" >        2       12       17       18       39 </v>
   <v type="int" >        2       11       12       17       39 </v>
   <v type="int" >        2       11       12       33       39 </v>
   <v type="int" >        2       12       18       39       40 </v>
   <v type="int" >        2       12       34       39       40 </v>
   <v type="int" >        2       12       33       34       39 </v>
   <v type="int" >        2       13       18       19       40 </v>
   <v type="int" >        2       12       13       18       40 </v>
   <v type="int" >        2       12       13       34       40 </v>
   <v type="int" >        2       13       19       40       41 </v>
   <v type="int" >        2       13       35       40       41 </v>
   <v type="int" >        2       13       34       35       40 </v>
   <v type="int" >        2       14       19       20       41 </v>
   <v type="int" >        2       13       14       19       41 </v>
   <v type="int" >        2       13       14       35       41 </v>
   <v type="int" >        2       14       20       41       42 </v>
   <v type="int" >        2       14       36       41       42 </v>
   <v type="int" >        2       14       35       36       41 </v>
   <v type="int" >        2       15       19       20       42 </v>
   <v type="int" >        2       14       15       20       42 </v>
   <v type="int" >        2       14       15       36       42 </v>
   <v type="int" >        2       15       19       42       43 </v>
   <v type="int" >        2       15       37       42       43 </v>
   <v type="int" >        2       15       36       37       42 </v>
   <v type="int" >        2       16       18       19       43 </v>
   <v type="int" >        2       15       16       19       43 </v>
   <v type="int" >        2       15       16       37       43 </v>
   <v type="int" >        2       16       18       43       44 </v>
   <v type="int" >        2       16       38       43       44 </v>
   <v type="int" >        2       16       37       38       43 </v>
   <v type="int" >        2       11       17       18       44 </v>
   <v type="int" >        2       11       16       18       44 </v>
   <v type="int" >        2       11       16       38       44 </v>
   <v type="int" >        2       11       17       39       44 </v>
   <v type="int" >        2       11       33       39       44 </v>
   <v type="int" >        2       11       33       38       44 </v>
   <v type="int" >        2       11       16       18       45 </v>
   <v type="int" >        2       11       17       18       45 </v>
   <v type="int" >        2       17       18       39       45 </v>
   <v type="int" >        2       16       18       45       46 </v>
   <v type="int" >        2       18       40       45       46 </v>
   <v type="int" >        2       18       39       40       45 </v>
   <v type="int" >        2       15       16       19       46 </v>
   <v type="int" >        2       16       18       19       46 </v>
   <v type="int" >        2       18       19       40       46 </v>
   <v type="int" >        2       15       19       46       47 </v>
   <v type="int" >        2       19       41       46       47 </v>
   <v type="int" >        2       19       40       41       46 </v>
   <v type="int" >        2       14       15       20       47 </v>
   <v type="int" >        2       15       19       20       47 </v>
   <v type="int" >        2       19       20       41       47 </v>
   <v type="int" >        2       14       20       47       48 </v>
   <v type="int" >        2       20       42       47       48 </v>
   <v type="int" >        2       20       41       42       47 </v>
   <v type="int" >        2       13       14       19       48 </v>
   <v type="int" >        2       14       19       20       48 </v>
   <v type="int" >        2       19       20       42       48 </v>
   <v type="int" >        2       13       19       48       49 </v>
   <v type="int" >        2       19       43       48       49 </v>
   <v type="int" >        2       19       42       43       48 </v>
   <v type="int" >        2       12       13       18       49 </v>
   <v type="int" >        2       13       18       19       49 </v>
   <v type="int" >        2       18       19       43       49 </v>
   <v type="int" >        2       12       18       49       50 </v>
   <v type="int" >        2       18       44       49       50 </v>
   <v type="int" >        2       18       43       44       49 </v>
   <v type="int" >        2       11       12       17       50 </v>
   <v type="int" >        2       12       17       18       50 </v>
   <v type="int" >        2       17       18       44       50 </v>
   <v type="int" >        2       11       17       45       50 </v>
   <v type="int" >        2       17       39       45       50 </v>
   <v type="int" >        2       17       39       44       50 </v>
   <v type="int" >        2        5       10       16       51 </v>
   <v type="int" >        2        5       11       16       51 </v>
   <v type="int" >        2       11       16       45       51 </v>
   <v type="int" >        2       10       16       51       52 </v>
   <v type="int" >        2       16       46       51       52 </v>
   <v type="int" >        2       16       45       46       51 </v>
   <v type="int" >        2        9       10       15       52 </v>
   <v type="int" >        2       10       15       16       52 </v>
   <v type="int" >        2       15       16       46       52 </v>
   <v type="int" >        2        9       15       52       53 </v>
   <v type="int" >        2       15       47       52       53 </v>
   <v type="int" >        2       15       46       47       52 </v>
   <v type="int" >        2        8        9       14       53 </v>
   <v type="int" >        2        9       14       15       53 </v>
   <v type="int" >        2       14       15       47       53 </v>
   <v type="int" >        2        8       14       53       54 </v>
   <v type="int" >        2       14       48       53       54 </v>
   <v type="int" >        2       14       47       48       53 </v>
   <v type="int" >        2        7        8       13       54 </v>
   <v type="int" >        2        8       13       14       54 </v>
   <v type="int" >        2       13       14       48       54 </v>
   <v type="int" >        2        7       13       54       55 </v>
   <v type="int" >        2       13       49       54       55 </v>
   <v type="int" >        2       13       48       49       54 </v>
   <v type="int" >        2        6        7       12       55 </v>
   <v type="int" >        2        7       12       13       55 </v>
   <v type="int" >        2       12       13       49       55 </v>
   <v type="int" >        2        6       12       55       56 </v>
   <v type="int" >        2       12       50       55       56 </v>
   <v type="int" >        2       12       49       50       55 </v>
   <v type="int" >        2        5        6       11       56 </v>
   <v type="int" >        2        6       11       12       56 </v>
   <v type="int" >        2       11       12       50       56 </v>
   <v type="int" >        2        5       11       51       56 </v>
   <v type="int" >        2       11       45       51       56 </v>
   <v type="int" >        2       11       45       50       56 </v>
   <v type="int" >        2        1        2       10       21 </v>
   <v type="int" >        2        1        5       10       21 </v>
   <v type="int" >        2        5       10       21       51 </v>
   <v type="int" >        2        2       10       21       22 </v>
   <v type="int" >        2       10       21       22       52 </v>
   <v type="int" >        2       10       21       51       52 </v>
   <v type="int" >        2        2        3        9       22 </v>
   <v type="int" >        2        2        9       10       22 </v>
   <v type="int" >        2        9       10       22       52 </v>
   <v type="int" >        2        3        9       22       23 </v>
   <v type="int" >        2        9       22       23       53 </v>
   <v type="int" >        2        9       22       52       53 </v>
   <v type="int" >        2        3        4        8       23 </v>
   <v type="int" >        2        3        8        9       23 </v>
   <v type="int" >        2        8        9       23       53 </v>
   <v type="int" >        2        4        8       23       24 </v>
   <v type="int" >        2        8       23       24       54 </v>
   <v type="int" >        2        8       23       53       54 </v>
   <v type="int" >        2        3        4        7       24 </v>
   <v type="int" >        2        4        7        8       24 </v>
   <v type="int" >        2        7        8       24       54 </v>
   <v type="int" >        2        3        7       24       25 </v>
   <v type="int" >        2        7       24       25       55 </v>
   <v type="int" >        2        7       24       54       55 </v>
   <v type="int" >        2        2        3        6       25 </v>
   <v type="int" >        2        3        6        7       25 </v>
   <v type="int" >        2        6        7       25       55 </v>
   <v type="int" >        2        2        6       25       26 </v>
   <v type="int" >        2        6       25       26       56 </v>
   <v type="int" >        2        6       25       55       56 </v>
   <v type="int" >        2        1        2        5       26 </v>
   <v type="int" >        2        2        5        6       26 </v>
   <v type="int" >        2        5        6       26       56 </v>
   <v type="int" >        2        1        5       21       26 </v>
   <v type="int" >        2        5       21       26       51 </v>
   <v type="int" >        2        5       26       51       56 </v>
   <v type="int" >        2       22       27       28       61 </v>
   <v type="int" >        2       21       22       27       61 </v>
   <v type="int" >        2       21       22       57       61 </v>
   <v type="int" >        2       22       28       61       62 </v>
   <v type="int" >        2       22       58       61       62 </v>
   <v type="int" >        2       22       57       58       61 </v>
   <v type="int" >        2       23       28       29       62 </v>
   <v type="int" >        2       22       23       28       62 </v>
   <v type="int" >        2       22       23       58       62 </v>
   <v type="int" >        2       23       29       62       63 </v>
   <v type="int" >        2       23       59       62       63 </v>
   <v type="int" >        2       23       58       59       62 </v>
   <v type="int" >        2       24       29       30       63 </v>
   <v type="int" >        2       23       24       29       63 </v>
   <v type="int" >        2       23       24       59       63 </v>
   <v type="int" >        2       24       30       63       64 </v>
   <v type="int" >        2       24       60       63       64 </v>
   <v type="int" >        2       24       59       60       63 </v>
   <v type="int" >        2       25       30       31       64 </v>
   <v type="int" >        2       24       25       30       64 </v>
   <v type="int" >        2       24       25       60       64 </v>
   <v type="int" >        2       25       31       64       65 </v>
   <v type="int" >        2       25       59       64       65 </v>
   <v type="int" >        2       25       59       60       64 </v>
   <v type="int" >        2       26       31       32       65 </v>
   <v type="int" >        2       25       26       31       65 </v>
   <v type="int" >        2       25       26       59       65 </v>
   <v type="int" >        2       26       32       65       66 </v>
   <v type="int" >        2       26       58       65       66 </v>
   <v type="int" >        2       26       58       59       65 </v>
   <v type="int" >        2       21       27       32       66 </v>
   <v type="int" >        2       21       26       32       66 </v>
   <v type="int" >        2       21       26       58       66 </v>
   <v type="int" >        2       21       27       61       66 </v>
   <v type="int" >        2       21       57       61       66 </v>
   <v type="int" >        2       21       57       58       66 </v>
   <v type="int" >        2       28       33       34       67 </v>
   <v type="int" >        2       27       28       33       67 </v>
   <v type="int" >        2       27       28       61       67 </v>
   <v type="int" >        2       28       34       67       68 </v>
   <v type="int" >        2       28       62       67       68 </v>
   <v type="int" >        2       28       61       62       67 </v>
   <v type="int" >        2       29       34       35       68 </v>
   <v type="int" >        2       28       29       34       68 </v>
   <v type="int" >        2       28       29       62       68 </v>
   <v type="int" >        2       29       35       68       69 </v>
   <v type="int" >        2       29       63       68       69 </v>
   <v type="int" >        2       29       62       63       68 </v>
   <v type="int" >        2       30       35       36       69 </v>
   <v type="int" >        2       29       30       35       69 </v>
   <v type="int" >        2       29       30       63       69 </v>
   <v type="int" >        2       30       36       69       70 </v>
   <v type="int" >        2       30       64       69       70 </v>
   <v type="int" >        2       30       63       64       69 </v>
   <v type="int" >        2       31       36       37       70 </v>
   <v type="int" >        2       30       31       36       70 </v>
   <v type="int" >        2       30       31       64       70 </v>
   <v type="int" >        2       31       37       70       71 </v>
   <v type="int" >        2       31       65       70       71 </v>
   <v type="int" >        2       31       64       65       70 </v>
   <v type="int" >        2       32       37       38       71 </v>
   <v type="int" >        2       31       32       37       71 </v>
   <v type="int" >        2       31       32       65       71 </v>
   <v type="int" >        2       32       38       71       72 </v>
   <v type="int" >        2       32       66       71       72 </v>
   <v type="int" >        2       32       65       66       71 </v>
   <v type="int" >        2       27       33       38       72 </v>
   <v type="int" >        2       27       32       38       72 </v>
   <v type="int" >        2       27       32       66       72 </v>
   <v type="int" >        2       27       33       67       72 </v>
   <v type="int" >        2       27       61       67       72 </v>
   <v type="int" >        2       27       61       66       72 </v>
   <v type="int" >        2       34       39       40       73 </v>
   <v type="int" >        2       33       34       39       73 </v>
   <v type="int" >        2       33       34       67       73 </v>
   <v type="int" >        2       34       40       73       74 </v>
   <v type="int" >        2       34       68       73       74 </v>
   <v type="int" >        2       34       67       68       73 </v>
   <v type="int" >        2       35       40       41       74 </v>
   <v type="int" >        2       34       35       40       74 </v>
   <v type="int" >        2       34       35       68       74 </v>
   <v type="int" >        2       35       41       74       75 </v>
   <v type="int" >        2       35       69       74       75 </v>
   <v type="int" >        2       35       68       69       74 </v>
   <v type="int" >        2       36       41       42       75 </v>
   <v type="int" >        2       35       36       41       75 </v>
   <v type="int" >        2       35       36       69       75 </v>
   <v type="int" >        2       36       42       75       76 </v>
   <v type="int" >        2       36       70       75       76 </v>
   <v type="int" >        2       36       69       70       75 </v>
   <v type="int" >        2       37       42       43       76 </v>
   <v type="int" >        2       36       37       42       76 </v>
   <v type="int" >        2       36       37       70       76 </v>
   <v type="int" >        2       37       43       75       76 </v>
   <v type="int" >        2       37       71       75       76 </v>
   <v type="int" >        2       37       70       71       76 </v>
   <v type="int" >        2       38       43       44       75 </v>
   <v type="int" >        2       37       38       43       75 </v>
   <v type="int" >        2       37       38       71       75 </v>
   <v type="int" >        2       38       44       74       75 </v>
   <v type="int" >        2       38       72       74       75 </v>
   <v type="int" >        2       38       71       72       75 </v>
   <v type="int" >        2       33       39       44       74 </v>
   <v type="int" >        2       33       38       44       74 </v>
   <v type="int" >        2       33       38       72       74 </v>
   <v type="int" >        2       33       39       73       74 </v>
   <v type="int" >        2       33       67       73       74 </v>
   <v type="int" >        2       33       67       72       74 </v>
   <v type="int" >        2       40       45       46       67 </v>
   <v type="int" >        2       39       40       45       67 </v>
   <v type="int" >        2       39       40       67       73 </v>
   <v type="int" >        2       40       46       67       72 </v>
   <v type="int" >        2       40       67       72       74 </v>
   <v type="int" >        2       40       67       73       74 </v>
   <v type="int" >        2       41       46       47       72 </v>
   <v type="int" >        2       40       41       46       72 </v>
   <v type="int" >        2       40       41       72       74 </v>
   <v type="int" >        2       41       47       71       72 </v>
   <v type="int" >        2       41       71       72       75 </v>
   <v type="int" >        2       41       72       74       75 </v>
   <v type="int" >        2       42       47       48       71 </v>
   <v type="int" >        2       41       42       47       71 </v>
   <v type="int" >        2       41       42       71       75 </v>
   <v type="int" >        2       42       48       70       71 </v>
   <v type="int" >        2       42       70       71       76 </v>
   <v type="int" >        2       42       71       75       76 </v>
   <v type="int" >        2       43       48       49       70 </v>
   <v type="int" >        2       42       43       48       70 </v>
   <v type="int" >        2       42       43       70       76 </v>
   <v type="int" >        2       43       49       69       70 </v>
   <v type="int" >        2       43       69       70       75 </v>
   <v type="int" >        2       43       70       75       76 </v>
   <v type="int" >        2       44       49       50       69 </v>
   <v type="int" >        2       43       44       49       69 </v>
   <v type="int" >        2       43       44       69       75 </v>
   <v type="int" >        2       44       50       68       69 </v>
   <v type="int" >        2       44       68       69       74 </v>
   <v type="int" >        2       44       69       74       75 </v>
   <v type="int" >        2       39       45       50       68 </v>
   <v type="int" >        2       39       44       50       68 </v>
   <v type="int" >        2       39       44       68       74 </v>
   <v type="int" >        2       39       45       67       68 </v>
   <v type="int" >        2       39       67       68       73 </v>
   <v type="int" >        2       39       68       73       74 </v>
   <v type="int" >        2       46       51       52       61 </v>
   <v type="int" >        2       45       46       51       61 </v>
   <v type="int" >        2       45       46       61       67 </v>
   <v type="int" >        2       46       52       61       66 </v>
   <v type="int" >        2       46       61       66       72 </v>
   <v type="int" >        2       46       61       67       72 </v>
   <v type="int" >        2       47       52       53       66 </v>
   <v type="int" >        2       46       47       52       66 </v>
   <v type="int" >        2       46       47       66       72 </v>
   <v type="int" >        2       47       53       65       66 </v>
   <v type="int" >        2       47       65       66       71 </v>
   <v type="int" >        2       47       66       71       72 </v>
   <v type="int" >        2       48       53       54       65 </v>
   <v type="int" >        2       47       48       53       65 </v>
   <v type="int" >        2       47       48       65       71 </v>
   <v type="int" >        2       48       54       64       65 </v>
   <v type="int" >        2       48       64       65       70 </v>
   <v type="int" >        2       48       65       70       71 </v>
   <v type="int" >        2       49       54       55       64 </v>
   <v type="int" >        2       48       49       54       64 </v>
   <v type="int" >        2       48       49       64       70 </v>
   <v type="int" >        2       49       55       63       64 </v>
   <v type="int" >        2       49       63       64       69 </v>
   <v type="int" >        2       49       64       69       70 </v>
   <v type="int" >        2       50       55       56       63 </v>
   <v type="int" >        2       49       50       55       63 </v>
   <v type="int" >        2       49       50       63       69 </v>
   <v type="int" >        2       50       56       62       63 </v>
   <v type="int" >        2       50       62       63       68 </v>
   <v type="int" >        2       50       63       68       69 </v>
   <v type="int" >        2       45       51       56       62 </v>
   <v type="int" >        2       45       50       56       62 </v>
   <v type="int" >        2       45       50       62       68 </v>
   <v type="int" >        2       45       51       61       62 </v>
   <v type="int" >        2       45       61       62       67 </v>
   <v type="int" >        2       45       62       67       68 </v>
   <v type="int" >        2       21       22       52       57 </v>
   <v type="int" >        2       21       51       52       57 </v>
   <v type="int" >        2       51       52       57       61 </v>
   <v type="int" >        2       22       52       57       58 </v>
   <v type="int" >        2       52       57       58       66 </v>
   <v type="int" >        2       52       57       61       66 </v>
   <v type="int" >        2       22       23       53       58 </v>
   <v type="int" >        2       22       52       53       58 </v>
   <v type="int" >        2       52       53       58       66 </v>
   <v type="int" >        2       23       53       58       59 </v>
   <v type="int" >        2       53       58       59       65 </v>
   <v type="int" >        2       53       58       65       66 </v>
   <v type="int" >        2       23       24       54       59 </v>
   <v type="int" >        2       23       53       54       59 </v>
   <v type="int" >        2       53       54       59       65 </v>
   <v type="int" >        2       24       54       59       60 </v>
   <v type="int" >        2       54       59       60       64 </v>
   <v type="int" >        2       54       59       64       65 </v>
   <v type="int" >        2       24       25       55       60 </v>
   <v type="int" >        2       24       54       55       60 </v>
   <v type="int" >        2       54       55       60       64 </v>
   <v type="int" >        2       25       55       59       60 </v>
   <v type="int" >        2       55       59       60       63 </v>
   <v type="int" >        2       55       60       63       64 </v>
   <v type="int" >        2       25       26       56       59 </v>
   <v type="int" >        2       25       55       56       59 </v>
   <v type="int" >        2       55       56       59       63 </v>
   <v type="int" >        2       26       56       58       59 </v>
   <v type="int" >        2       56       58       59       62 </v>
   <v type="int" >        2       56       59       62       63 </v>
   <v type="int" >        2       21       26       51       58 </v>
   <v type="int" >        2       26       51       56       58 </v>
   <v type="int" >        2       51       56       58       62 </v>
   <v type="int" >        2       21       51       57       58 </v>
   <v type="int" >        2       51       57       58       61 </v>
   <v type="int" >        2       51       58       61       62 </v>
  </varray>
  <i name="volumeweight">      0.00115741 </i>
 </kpoints>
 <parameters>
  <separator name="general" >
   <i type="string" name="SYSTEM">graphite</i>
   <i type="logical" name="LCOMPAT"> F  </i>
  </separator>
  <separator name="electronic" >
   <i type="string" name="PREC">accura</i>
   <i name="ENMAX">    800.00000000</i>
   <i name="ENAUG">    644.87300000</i>
   <i name="EDIFF">      0.00000001</i>
   <i type="int" name="IALGO">    38</i>
   <i type="int" name="IWAVPR">    10</i>
   <i type="int" name="NBANDS">    84</i>
   <i name="NELECT">    128.00000000</i>
   <i type="int" name="TURBO">     0</i>
   <i type="int" name="IRESTART">     0</i>
   <i type="int" name="NREBOOT">     0</i>
   <i type="int" name="NMIN">     0</i>
   <i name="EREF">      0.00000000</i>
   <separator name="electronic smearing" >
    <i type="int" name="ISMEAR">    -5</i>
    <i name="SIGMA">      0.20000000</i>
    <i name="KSPACING">      0.50000000</i>
    <i type="logical" name="KGAMMA"> T  </i>
   </separator>
   <separator name="electronic projectors" >
    <i type="logical" name="LREAL"> F  </i>
    <v name="ROPT">      0.00000000</v>
    <i type="int" name="LMAXPAW">  -100</i>
    <i type="int" name="LMAXMIX">     2</i>
    <i type="logical" name="NLSPLINE"> F  </i>
   </separator>
   <separator name="electronic startup" >
    <i type="int" name="ISTART">     0</i>
    <i type="int" name="ICHARG">     2</i>
    <i type="int" name="INIWAV">     1</i>
   </separator>
   <separator name="electronic spin" >
    <i type="int" name="ISPIN">     1</i>
    <i type="logical" name="LNONCOLLINEAR"> F  </i>
    <v name="MAGMOM">      1.00000000      1.00000000      1.00000000      1.00000000      1.00000000      1.00000000      1.00000000      1.00000000      1.00000000      1.00000000      1.00000000      1.00000000      1.00000000      1.00000000      1.00000000      1.00000000      1.00000000      1.00000000      1.00000000      1.00000000
      1.00000000      1.00000000      1.00000000      1.00000000      1.00000000      1.00000000      1.00000000      1.00000000      1.00000000      1.00000000      1.00000000      1.00000000</v>
    <i name="NUPDOWN">     -1.00000000</i>
    <i type="logical" name="LSORBIT"> F  </i>
    <v name="SAXIS">      0.00000000      0.00000000      1.00000000</v>
    <i type="logical" name="LSPIRAL"> F  </i>
    <v name="QSPIRAL">      0.00000000      0.00000000      0.00000000</v>
    <i type="logical" name="LZEROZ"> F  </i>
   </separator>
   <separator name="electronic exchange-correlation" >
    <i type="logical" name="LASPH"> F  </i>
    <i type="logical" name="LMETAGGA"> F  </i>
   </separator>
   <separator name="electronic convergence" >
    <i type="int" name="NELM">   200</i>
    <i type="int" name="NELMDL">     0</i>
    <i type="int" name="NELMIN">     2</i>
    <i name="ENINI">    800.00000000</i>
    <separator name="electronic convergence detail" >
     <i type="logical" name="LDIAG"> T  </i>
     <i type="logical" name="LSUBROT"> F  </i>
     <i name="WEIMIN">      0.00000000</i>
     <i name="EBREAK">      0.00000000</i>
     <i name="DEPER">      0.30000000</i>
     <i type="int" name="NRMM">     4</i>
     <i name="TIME">      0.40000000</i>
    </separator>
   </separator>
   <separator name="electronic mixer" >
    <i name="AMIX">      0.40000000</i>
    <i name="BMIX">      1.00000000</i>
    <i name="AMIN">      0.10000000</i>
    <i name="AMIX_MAG">      1.60000000</i>
    <i name="BMIX_MAG">      1.00000000</i>
    <separator name="electronic mixer details" >
     <i type="int" name="IMIX">     4</i>
     <i type="int" name="MAXMIX">   -45</i>
     <i name="WC">    100.00000000</i>
     <i type="int" name="INIMIX">     1</i>
     <i type="int" name="MIXPRE">     1</i>
     <i type="int" name="MREMOVE">     5</i>
    </separator>
   </separator>
   <separator name="electronic dipolcorrection" >
    <i type="logical" name="LDIPOL"> F  </i>
    <i type="logical" name="LMONO"> F  </i>
    <i type="int" name="IDIPOL">     0</i>
    <i name="EPSILON">      1.00000000</i>
    <v name="DIPOL">   -100.00000000   -100.00000000   -100.00000000</v>
    <i name="EFIELD">      0.00000000</i>
   </separator>
  </separator>
  <separator name="grids" >
   <i type="int" name="NGX">    48</i>
   <i type="int" name="NGY">    48</i>
   <i type="int" name="NGZ">   120</i>
   <i type="int" name="NGXF">    96</i>
   <i type="int" name="NGYF">    96</i>
   <i type="int" name="NGZF">   240</i>
   <i type="logical" name="ADDGRID"> F  </i>
  </separator>
  <separator name="ionic" >
   <i type="int" name="NSW">     0</i>
   <i type="int" name="IBRION">    -1</i>
   <i type="int" name="ISIF">     2</i>
   <i name="PSTRESS">      0.00000000</i>
   <i name="EDIFFG">      0.00100000</i>
   <i type="int" name="NFREE">     0</i>
   <i name="POTIM">      0.50000000</i>
   <i name="SMASS">     -3.00000000</i>
   <i name="SCALEE">      1.00000000</i>
  </separator>
  <separator name="ionic md" >
   <i name="TEBEG">      0.00010000</i>
   <i name="TEEND">      0.00010000</i>
   <i type="int" name="NBLOCK">     1</i>
   <i type="int" name="KBLOCK">     1</i>
   <i type="int" name="NPACO">   256</i>
   <i name="APACO">     16.00000000</i>
  </separator>
  <separator name="symmetry" >
   <i type="int" name="ISYM">     2</i>
   <i name="SYMPREC">      0.00001000</i>
  </separator>
  <separator name="dos" >
   <i type="logical" name="LORBIT"> F  </i>
   <v name="RWIGS">     -1.00000000</v>
   <i type="int" name="NEDOS">   301</i>
   <i name="EMIN">     10.00000000</i>
   <i name="EMAX">    -10.00000000</i>
   <i name="EFERMI">      0.00000000</i>
  </separator>
  <separator name="writing" >
   <i type="int" name="NWRITE">     2</i>
   <i type="logical" name="LWAVE"> F  </i>
   <i type="logical" name="LCHARG"> F  </i>
   <i type="logical" name="LPARD"> F  </i>
   <i type="logical" name="LVTOT"> F  </i>
   <i type="logical" name="LVHAR"> F  </i>
   <i type="logical" name="LELF"> F  </i>
   <i type="logical" name="LOPTICS"> F  </i>
   <v name="STM">      0.00000000      0.00000000      0.00000000      0.00000000      0.00000000      0.00000000      0.00000000</v>
  </separator>
  <separator name="performance" >
   <i type="int" name="NPAR">     6</i>
   <i type="int" name="NSIM">     4</i>
   <i type="int" name="NBLK">    -1</i>
   <i type="logical" name="LPLANE"> T  </i>
   <i type="logical" name="LSCALAPACK"> T  </i>
   <i type="logical" name="LSCAAWARE"> F  </i>
   <i type="logical" name="LSCALU"> F  </i>
   <i type="logical" name="LASYNC"> F  </i>
   <i type="logical" name="LORBITALREAL"> F  </i>
  </separator>
  <separator name="miscellaneous" >
   <i type="int" name="IDIOT">     3</i>
   <i type="logical" name="LMUSIC"> F  </i>
   <v name="POMASS">     12.01100000</v>
   <v name="DARWINR">      0.00000000</v>
   <v name="DARWINV">      1.00000000</v>
   <i type="logical" name="LCORR"> T  </i>
  </separator>
  <i type="logical" name="GGA_COMPAT"> T  </i>
  <i type="logical" name="LBERRY"> F  </i>
  <i type="int" name="ICORELEVEL">     0</i>
  <i type="logical" name="LDAU"> F  </i>
  <i type="int" name="I_CONSTRAINED_M">     0</i>
  <separator name="electronic exchange-correlation" >
   <i type="string" name="GGA">PE</i>
   <i type="int" name="VOSKOWN">     0</i>
   <i type="logical" name="LHFCALC"> F  </i>
   <i type="string" name="PRECFOCK"></i>
   <i type="logical" name="LSYMGRAD"> F  </i>
   <i type="logical" name="LHFONE"> F  </i>
   <i type="logical" name="LRHFCALC"> F  </i>
   <i type="logical" name="LTHOMAS"> F  </i>
   <i type="logical" name="LMODELHF"> F  </i>
   <i name="ENCUT4O">     -1.00000000</i>
   <i type="int" name="EXXOEP">     0</i>
   <i type="int" name="FOURORBIT">     0</i>
   <i name="AEXX">      0.00000000</i>
   <i name="HFALPHA">      0.00000000</i>
   <i name="MCALPHA">      0.00000000</i>
   <i name="ALDAX">      1.00000000</i>
   <i name="AGGAX">      1.00000000</i>
   <i name="ALDAC">      1.00000000</i>
   <i name="AGGAC">      1.00000000</i>
   <i type="int" name="NKREDX">     1</i>
   <i type="int" name="NKREDY">     1</i>
   <i type="int" name="NKREDZ">     1</i>
   <i type="logical" name="SHIFTRED"> F  </i>
   <i type="logical" name="ODDONLY"> F  </i>
   <i type="logical" name="EVENONLY"> F  </i>
   <i type="int" name="LMAXFOCK">     0</i>
   <i type="int" name="NMAXFOCKAE">     0</i>
   <i type="logical" name="LFOCKAEDFT"> F  </i>
   <i name="HFSCREEN">      0.00000000</i>
   <i name="HFSCREENC">      0.00000000</i>
   <i type="int" name="NBANDSGWLOW">     0</i>
  </separator>
  <separator name="vdW DFT" >
   <i type="logical" name="LUSE_VDW"> F  </i>
   <i name="Zab_VDW">     -0.84910000</i>
   <i name="PARAM1">      0.12340000</i>
   <i name="PARAM2">      1.00000000</i>
   <i name="PARAM3">      0.00000000</i>
  </separator>
  <separator name="model GW" >
   <i type="int" name="MODEL_GW">     0</i>
   <i name="MODEL_EPS0">      5.02882165</i>
   <i name="MODEL_ALPHA">      1.00000000</i>
  </separator>
  <separator name="linear response parameters" >
   <i type="logical" name="LEPSILON"> F  </i>
   <i type="logical" name="LRPA"> F  </i>
   <i type="logical" name="LNABLA"> F  </i>
   <i type="logical" name="LVEL"> F  </i>
   <i type="int" name="KINTER">     0</i>
   <i name="CSHIFT">      0.10000000</i>
   <i name="OMEGAMAX">     -1.00000000</i>
   <i name="DEG_THRESHOLD">      0.00200000</i>
  </separator>
  <separator name="orbital magnetization" >
   <i type="logical" name="NUCIND"> F  </i>
   <v name="MAGPOS">      0.00000000      0.00000000      0.00000000</v>
   <i type="logical" name="LNICSALL"> T  </i>
   <i type="logical" name="ORBITALMAG"> F  </i>
   <i type="logical" name="LMAGBLOCH"> F  </i>
   <i type="logical" name="LCHIMAG"> F  </i>
   <i type="logical" name="LGAUGE"> T  </i>
   <i type="int" name="MAGATOM">     0</i>
   <v name="MAGDIPOL">      0.00000000      0.00000000      0.00000000</v>
   <v name="AVECCONST">      0.00000000      0.00000000      0.00000000</v>
  </separator>
  <separator name="response functions" >
   <i type="logical" name="LADDER"> F  </i>
   <i type="logical" name="LFXC"> F  </i>
   <i type="logical" name="LHARTREE"> T  </i>
   <i type="int" name="IBSE">     0</i>
   <i type="logical" name="LTCTE"> F  </i>
   <i type="logical" name="LTETE"> F  </i>
   <i type="logical" name="LTRIPLET"> F  </i>
   <i type="logical" name="LFXCEPS"> F  </i>
   <i type="logical" name="LFXHEG"> F  </i>
   <i type="logical" name="L2ORDER"> F  </i>
   <i type="logical" name="LUSEW"> F  </i>
   <i name="ENCUTGW">     -2.00000000</i>
   <i name="ENCUTGWSOFT">     -2.00000000</i>
   <i name="ENCUTLF">     -1.00000000</i>
   <i type="int" name="LMAXMP2">    -1</i>
   <i name="SCISSOR">      0.00000000</i>
   <i type="int" name="NOMEGA">     0</i>
   <i type="int" name="NOMEGAR">     0</i>
   <i type="int" name="NBANDSGW">    -1</i>
   <i type="int" name="NBANDSO">    -1</i>
   <i type="int" name="NBANDSV">    -1</i>
   <i type="int" name="NELM">   200</i>
   <i type="int" name="DIM">     3</i>
   <i type="int" name="ANTIRES">     0</i>
   <i name="OMEGAMAX">    -30.00000000</i>
   <i name="OMEGAMIN">    -30.00000000</i>
   <i name="OMEGATL">   -200.00000000</i>
   <i type="int" name="OMEGAGRID">     0</i>
   <i name="CSHIFT">     -0.10000000</i>
   <i type="logical" name="SELFENERGY"> F  </i>
   <i type="logical" name="LSPECTRAL"> F  </i>
   <i type="logical" name="ODDONLYGW"> F  </i>
   <i type="logical" name="EVENONLYGW"> F  </i>
   <i type="int" name="NKREDLFX">     1</i>
   <i type="int" name="NKREDLFY">     1</i>
   <i type="int" name="NKREDLFZ">     1</i>
   <i type="int" name="MAXMEM">  1800</i>
   <i type="int" name="TELESCOPE">     0</i>
   <i type="int" name="TAUPAR">     1</i>
  </separator>
  <separator name="External order field" >
   <i name="OFIELD_KAPPA">      0.00000000</i>
   <v name="OFIELD_K">      0.00000000      0.00000000      0.00000000</v>
   <i name="OFIELD_Q6_NEAR">      0.00000000</i>
   <i name="OFIELD_Q6_FAR">      0.00000000</i>
   <i name="OFIELD_A">      0.00000000</i>
  </separator>
 </parameters>
 <atominfo>
  <atoms>      32 </atoms>
  <types>       1 </types>
  <array name="atoms" >
   <dimension dim="1">ion</dimension>
   <field type="string">element</field>
   <field type="int">atomtype</field>
   <set>
    <rc><c>C </c><c>   1</c></rc>
    <rc><c>C </c><c>   1</c></rc>
    <rc><c>C </c><c>   1</c></rc>
    <rc><c>C </c><c>   1</c></rc>
    <rc><c>C </c><c>   1</c></rc>
    <rc><c>C </c><c>   1</c></rc>
    <rc><c>C </c><c>   1</c></rc>
    <rc><c>C </c><c>   1</c></rc>
    <rc><c>C </c><c>   1</c></rc>
    <rc><c>C </c><c>   1</c></rc>
    <rc><c>C </c><c>   1</c></rc>
    <rc><c>C </c><c>   1</c></rc>
    <rc><c>C </c><c>   1</c></rc>
    <rc><c>C </c><c>   1</c></rc>
    <rc><c>C </c><c>   1</c></rc>
    <rc><c>C </c><c>   1</c></rc>
    <rc><c>C </c><c>   1</c></rc>
    <rc><c>C </c><c>   1</c></rc>
    <rc><c>C </c><c>   1</c></rc>
    <rc><c>C </c><c>   1</c></rc>
    <rc><c>C </c><c>   1</c></rc>
    <rc><c>C </c><c>   1</c></rc>
    <rc><c>C </c><c>   1</c></rc>
    <rc><c>C </c><c>   1</c></rc>
    <rc><c>C </c><c>   1</c></rc>
    <rc><c>C </c><c>   1</c></rc>
    <rc><c>C </c><c>   1</c></rc>
    <rc><c>C </c><c>   1</c></rc>
    <rc><c>C </c><c>   1</c></rc>
    <rc><c>C </c><c>   1</c></rc>
    <rc><c>C </c><c>   1</c></rc>
    <rc><c>C </c><c>   1</c></rc>
   </set>
  </array>
  <array name="atomtypes" >
   <dimension dim="1">type</dimension>
   <field type="int">atomspertype</field>
   <field type="string">element</field>
   <field>mass</field>
   <field>valence</field>
   <field type="string">pseudopotential</field>
   <set>
    <rc><c>  32</c><c>C </c><c>     12.01100000</c><c>      4.00000000</c><c> PAW_PBE C 08Apr2002                    </c></rc>
   </set>
  </array>
 </atominfo>
 <structure name="initialpos" >
  <crystal>
   <varray name="basis" >
    <v>       4.93287450      -0.00191929       0.00000000 </v>
    <v>      -2.46809940       4.27103499       0.00000000 </v>
    <v>       0.00000000       0.00000000      12.73296140 </v>
   </varray>
   <i name="volume">    268.20382108 </i>
   <varray name="rec_basis" >
    <v>       0.20276715       0.11717288       0.00000000 </v>
    <v>       0.00009112       0.23418794       0.00000000 </v>
    <v>       0.00000000       0.00000000       0.07853633 </v>
   </varray>
  </crystal>
  <varray name="positions" >
   <v>       0.49967330       0.00032672       0.12500000 </v>
   <v>       0.99967330       0.00032672       0.12500000 </v>
   <v>       0.49967330       0.50032672       0.12500000 </v>
   <v>       0.99967330       0.50032672       0.12500000 </v>
   <v>       0.49967330       0.00032672       0.62500000 </v>
   <v>       0.99967330       0.00032672       0.62500000 </v>
   <v>       0.49967330       0.50032672       0.62500000 </v>
   <v>       0.99967330       0.50032672       0.62500000 </v>
   <v>       0.00032672       0.49967330       0.37500000 </v>
   <v>       0.50032672       0.49967330       0.37500000 </v>
   <v>       0.00032672       0.99967330       0.37500000 </v>
   <v>       0.50032672       0.99967330       0.37500000 </v>
   <v>       0.00032672       0.49967330       0.87500000 </v>
   <v>       0.50032672       0.49967330       0.87500000 </v>
   <v>       0.00032672       0.99967330       0.87500000 </v>
   <v>       0.50032672       0.99967330       0.87500000 </v>
   <v>       0.16556013       0.33370753       0.12426767 </v>
   <v>       0.66629246       0.33370753       0.12500000 </v>
   <v>       0.16629246       0.83370753       0.12500000 </v>
   <v>       0.66629246       0.83370753       0.12500000 </v>
   <v>       0.16629246       0.33370753       0.62500000 </v>
   <v>       0.66629246       0.33370753       0.62500000 </v>
   <v>       0.16629246       0.83370753       0.62500000 </v>
   <v>       0.66629246       0.83370753       0.62500000 </v>
   <v>       0.33370753       0.16629246       0.37500000 </v>
   <v>       0.83370753       0.16629246       0.37500000 </v>
   <v>       0.33370753       0.66629246       0.37500000 </v>
   <v>       0.83370753       0.66629246       0.37500000 </v>
   <v>       0.33370753       0.16629246       0.87500000 </v>
   <v>       0.83370753       0.16629246       0.87500000 </v>
   <v>       0.33370753       0.66629246       0.87500000 </v>
   <v>       0.83370753       0.66629246       0.87500000 </v>
  </varray>
 </structure>
 <calculation>
  <scstep>
   <time name="dav">  223.50  447.25</time>
   <time name="total">  224.78  449.81</time>
   <energy>
    <i name="alphaZ">    311.09060117 </i>
    <i name="ewald">  -3937.61025129 </i>
    <i name="hartreedc">  -1029.46267086 </i>
    <i name="XCdc">    443.93050482 </i>
    <i name="pawpsdc">   1210.60617908 </i>
    <i name="pawaedc">  -1247.42152856 </i>
    <i name="eentropy">      0.00000000 </i>
    <i name="bandstr">    225.24853117 </i>
    <i name="atom">   4708.94155045 </i>
    <i name="e_fr_energy">    685.32291597 </i>
    <i name="e_wo_entrp">    685.32291597 </i>
    <i name="e_0_energy">    685.32291597 </i>
   </energy>
  </scstep>
  <scstep>
   <time name="dav">  264.55  529.35</time>
   <time name="total">  264.60  529.46</time>
   <energy>
    <i name="e_fr_energy">   -256.83018527 </i>
    <i name="e_wo_entrp">   -256.83018527 </i>
    <i name="e_0_energy">   -256.83018527 </i>
   </energy>
  </scstep>
  <scstep>
   <time name="dav">  256.37  512.98</time>
   <time name="total">  256.42  513.10</time>
   <energy>
    <i name="e_fr_energy">   -311.87966340 </i>
    <i name="e_wo_entrp">   -311.87966340 </i>
    <i name="e_0_energy">   -311.87966340 </i>
   </energy>
  </scstep>
  <scstep>
   <time name="dav">  255.36  510.96</time>
   <time name="total">  255.42  511.11</time>
   <energy>
    <i name="e_fr_energy">   -312.93774081 </i>
    <i name="e_wo_entrp">   -312.93774081 </i>
    <i name="e_0_energy">   -312.93774081 </i>
   </energy>
  </scstep>
  <scstep>
   <time name="dav">  261.53  523.31</time>
   <time name="total">  267.49  535.24</time>
   <energy>
    <i name="e_fr_energy">   -312.96763676 </i>
    <i name="e_wo_entrp">   -312.96763676 </i>
    <i name="e_0_energy">   -312.96763676 </i>
   </energy>
  </scstep>
  <scstep>
   <time name="dav">  242.88  485.98</time>
   <time name="total">  249.60  499.46</time>
   <energy>
    <i name="e_fr_energy">   -298.79695981 </i>
    <i name="e_wo_entrp">   -298.79695981 </i>
    <i name="e_0_energy">   -298.79695981 </i>
   </energy>
  </scstep>
  <scstep>
   <time name="dav">  241.19  482.62</time>
   <time name="total">  248.30  496.84</time>
   <energy>
    <i name="e_fr_energy">   -294.35477315 </i>
    <i name="e_wo_entrp">   -294.35477315 </i>
    <i name="e_0_energy">   -294.35477315 </i>
   </energy>
  </scstep>
  <scstep>
   <time name="dav">  243.38  487.00</time>
   <time name="total">  250.22  500.68</time>
   <energy>
    <i name="e_fr_energy">   -294.41182686 </i>
    <i name="e_wo_entrp">   -294.41182686 </i>
    <i name="e_0_energy">   -294.41182686 </i>
   </energy>
  </scstep>
  <scstep>
   <time name="dav">  247.95  496.15</time>
   <time name="total">  254.61  509.48</time>
   <energy>
    <i name="e_fr_energy">   -294.40814510 </i>
    <i name="e_wo_entrp">   -294.40814510 </i>
    <i name="e_0_energy">   -294.40814510 </i>
   </energy>
  </scstep>
  <scstep>
   <time name="dav">  251.55  503.36</time>
   <time name="total">  258.54  517.32</time>
   <energy>
    <i name="e_fr_energy">   -294.40751437 </i>
    <i name="e_wo_entrp">   -294.40751437 </i>
    <i name="e_0_energy">   -294.40751437 </i>
   </energy>
  </scstep>
  <scstep>
   <time name="dav">  246.44  493.14</time>
   <time name="total">  253.69  507.65</time>
   <energy>
    <i name="e_fr_energy">   -294.40727631 </i>
    <i name="e_wo_entrp">   -294.40727631 </i>
    <i name="e_0_energy">   -294.40727631 </i>
   </energy>
  </scstep>
  <scstep>
   <time name="dav">  241.03  482.30</time>
   <time name="total">  247.65  495.55</time>
   <energy>
    <i name="e_fr_energy">   -294.40772052 </i>
    <i name="e_wo_entrp">   -294.40772052 </i>
    <i name="e_0_energy">   -294.40772052 </i>
   </energy>
  </scstep>
  <scstep>
   <time name="dav">  317.62  635.56</time>
   <time name="total">  324.51  649.35</time>
   <energy>
    <i name="e_fr_energy">   -294.40829589 </i>
    <i name="e_wo_entrp">   -294.40829589 </i>
    <i name="e_0_energy">   -294.40829589 </i>
   </energy>
  </scstep>
  <scstep>
   <time name="dav">  259.66  519.58</time>
   <time name="total">  266.29  532.85</time>
   <energy>
    <i name="e_fr_energy">   -294.40795722 </i>
    <i name="e_wo_entrp">   -294.40795722 </i>
    <i name="e_0_energy">   -294.40795722 </i>
   </energy>
  </scstep>
  <scstep>
   <time name="dav">  321.25  642.83</time>
   <time name="total">  327.99  656.32</time>
   <energy>
    <i name="e_fr_energy">   -294.40793860 </i>
    <i name="e_wo_entrp">   -294.40793860 </i>
    <i name="e_0_energy">   -294.40793860 </i>
   </energy>
  </scstep>
  <scstep>
   <time name="dav">  263.08  526.42</time>
   <time name="total">  270.21  540.69</time>
   <energy>
    <i name="e_fr_energy">   -294.40777858 </i>
    <i name="e_wo_entrp">   -294.40777858 </i>
    <i name="e_0_energy">   -294.40777858 </i>
   </energy>
  </scstep>
  <scstep>
   <time name="dav">  239.79  479.82</time>
   <time name="total">  246.53  493.30</time>
   <energy>
    <i name="e_fr_energy">   -294.40778457 </i>
    <i name="e_wo_entrp">   -294.40778457 </i>
    <i name="e_0_energy">   -294.40778457 </i>
   </energy>
  </scstep>
  <scstep>
   <time name="dav">  241.13  482.49</time>
   <time name="total">  248.15  496.56</time>
   <energy>
    <i name="e_fr_energy">   -294.40778427 </i>
    <i name="e_wo_entrp">   -294.40778427 </i>
    <i name="e_0_energy">   -294.40778427 </i>
   </energy>
  </scstep>
  <scstep>
   <time name="dav">  218.15  436.53</time>
   <time name="total">  225.13  450.48</time>
   <energy>
    <i name="e_fr_energy">   -294.40778426 </i>
    <i name="e_wo_entrp">   -294.40778426 </i>
    <i name="e_0_energy">   -294.40778426 </i>
   </energy>
  </scstep>
  <scstep>
   <time name="dav">  178.22  356.58</time>
   <time name="total">  184.84  369.83</time>
   <energy>
    <i name="e_fr_energy">   -294.40778433 </i>
    <i name="e_wo_entrp">   -294.40778433 </i>
    <i name="e_0_energy">   -294.40778433 </i>
   </energy>
  </scstep>
  <scstep>
   <time name="dav">  249.37  498.98</time>
   <time name="total">  256.18  512.60</time>
   <energy>
    <i name="e_fr_energy">   -294.40778984 </i>
    <i name="e_wo_entrp">   -294.40778984 </i>
    <i name="e_0_energy">   -294.40778984 </i>
   </energy>
  </scstep>
  <scstep>
   <time name="dav">  257.41  515.07</time>
   <time name="total">  264.47  529.21</time>
   <energy>
    <i name="e_fr_energy">   -294.40778698 </i>
    <i name="e_wo_entrp">   -294.40778698 </i>
    <i name="e_0_energy">   -294.40778698 </i>
   </energy>
  </scstep>
  <scstep>
   <time name="dav">  288.32  576.92</time>
   <time name="total">  295.05  590.40</time>
   <energy>
    <i name="e_fr_energy">   -294.40780309 </i>
    <i name="e_wo_entrp">   -294.40780309 </i>
    <i name="e_0_energy">   -294.40780309 </i>
   </energy>
  </scstep>
  <scstep>
   <time name="dav">  239.90  480.05</time>
   <time name="total">  246.68  493.61</time>
   <energy>
    <i name="e_fr_energy">   -294.40779365 </i>
    <i name="e_wo_entrp">   -294.40779365 </i>
    <i name="e_0_energy">   -294.40779365 </i>
   </energy>
  </scstep>
  <scstep>
   <time name="dav">  248.71  497.65</time>
   <time name="total">  255.47  511.18</time>
   <energy>
    <i name="e_fr_energy">   -294.40778340 </i>
    <i name="e_wo_entrp">   -294.40778340 </i>
    <i name="e_0_energy">   -294.40778340 </i>
   </energy>
  </scstep>
  <scstep>
   <time name="dav">  270.13  540.53</time>
   <time name="total">  277.07  554.43</time>
   <energy>
    <i name="e_fr_energy">   -294.40778034 </i>
    <i name="e_wo_entrp">   -294.40778034 </i>
    <i name="e_0_energy">   -294.40778034 </i>
   </energy>
  </scstep>
  <scstep>
   <time name="dav">  270.27  540.81</time>
   <time name="total">  277.23  554.74</time>
   <energy>
    <i name="e_fr_energy">   -294.40778277 </i>
    <i name="e_wo_entrp">   -294.40778277 </i>
    <i name="e_0_energy">   -294.40778277 </i>
   </energy>
  </scstep>
  <scstep>
   <time name="dav">  263.57  526.43</time>
   <time name="total">  270.28  539.85</time>
   <energy>
    <i name="e_fr_energy">   -294.40777947 </i>
    <i name="e_wo_entrp">   -294.40777947 </i>
    <i name="e_0_energy">   -294.40777947 </i>
   </energy>
  </scstep>
  <scstep>
   <time name="dav">  263.25  526.77</time>
   <time name="total">  270.42  541.12</time>
   <energy>
    <i name="e_fr_energy">   -294.40777992 </i>
    <i name="e_wo_entrp">   -294.40777992 </i>
    <i name="e_0_energy">   -294.40777992 </i>
   </energy>
  </scstep>
  <scstep>
   <time name="dav">  272.17  544.57</time>
   <time name="total">  279.75  559.73</time>
   <energy>
    <i name="e_fr_energy">   -294.40777944 </i>
    <i name="e_wo_entrp">   -294.40777944 </i>
    <i name="e_0_energy">   -294.40777944 </i>
   </energy>
  </scstep>
  <scstep>
   <time name="dav">  231.93  462.93</time>
   <time name="total">  238.43  475.93</time>
   <energy>
    <i name="e_fr_energy">   -294.40777909 </i>
    <i name="e_wo_entrp">   -294.40777909 </i>
    <i name="e_0_energy">   -294.40777909 </i>
   </energy>
  </scstep>
  <scstep>
   <time name="dav">  250.42  501.10</time>
   <time name="total">  258.00  516.26</time>
   <energy>
    <i name="e_fr_energy">   -294.40777908 </i>
    <i name="e_wo_entrp">   -294.40777908 </i>
    <i name="e_0_energy">   -294.40777908 </i>
   </energy>
  </scstep>
  <scstep>
   <time name="dav">  263.28  481.28</time>
   <time name="total">  270.52  492.80</time>
   <energy>
    <i name="e_fr_energy">   -294.40777872 </i>
    <i name="e_wo_entrp">   -294.40777872 </i>
    <i name="e_0_energy">   -294.40777872 </i>
   </energy>
  </scstep>
  <scstep>
   <time name="dav">  195.48  292.42</time>
   <time name="total">  201.98  302.54</time>
   <energy>
    <i name="e_fr_energy">   -294.40777862 </i>
    <i name="e_wo_entrp">   -294.40777862 </i>
    <i name="e_0_energy">   -294.40777862 </i>
   </energy>
  </scstep>
  <scstep>
   <time name="dav">  182.25  274.27</time>
   <time name="total">  189.53  285.27</time>
   <energy>
    <i name="e_fr_energy">   -294.40777861 </i>
    <i name="e_wo_entrp">   -294.40777861 </i>
    <i name="e_0_energy">   -294.40777861 </i>
   </energy>
  </scstep>
  <scstep>
   <time name="dav">  180.11  270.80</time>
   <time name="total">  187.75  281.39</time>
   <energy>
    <i name="e_fr_energy">   -294.40777861 </i>
    <i name="e_wo_entrp">   -294.40777861 </i>
    <i name="e_0_energy">   -294.40777861 </i>
   </energy>
  </scstep>
  <scstep>
   <time name="dav">  183.22  269.23</time>
   <time name="total">  190.83  280.07</time>
   <energy>
    <i name="e_fr_energy">   -294.40777860 </i>
    <i name="e_wo_entrp">   -294.40777860 </i>
    <i name="e_0_energy">   -294.40777860 </i>
   </energy>
  </scstep>
  <scstep>
   <time name="dav">  179.12  267.30</time>
   <time name="total">  180.19  268.66</time>
   <energy>
    <i name="alphaZ">    311.09060117 </i>
    <i name="ewald">  -3937.61025129 </i>
    <i name="hartreedc">  -1292.02656941 </i>
    <i name="XCdc">    461.65045699 </i>
    <i name="pawpsdc">   2223.94558750 </i>
    <i name="pawaedc">  -2265.17087806 </i>
    <i name="eentropy">      0.00000000 </i>
    <i name="bandstr">   -505.22827595 </i>
    <i name="atom">   4708.94155045 </i>
    <i name="e_fr_energy">   -294.40777861 </i>
    <i name="e_wo_entrp">   -294.40777861 </i>
    <i name="e_0_energy">   -294.40777861 </i>
   </energy>
  </scstep>
  <structure>
   <crystal>
    <varray name="basis" >
     <v>       4.93287450      -0.00191929       0.00000000 </v>
     <v>      -2.46809940       4.27103499       0.00000000 </v>
     <v>       0.00000000       0.00000000      12.73296140 </v>
    </varray>
    <i name="volume">    268.20382108 </i>
    <varray name="rec_basis" >
     <v>       0.20276715       0.11717288       0.00000000 </v>
     <v>       0.00009112       0.23418794       0.00000000 </v>
     <v>       0.00000000       0.00000000       0.07853633 </v>
    </varray>
   </crystal>
   <varray name="positions" >
    <v>       0.49967330       0.00032672       0.12500000 </v>
    <v>       0.99967330       0.00032672       0.12500000 </v>
    <v>       0.49967330       0.50032672       0.12500000 </v>
    <v>       0.99967330       0.50032672       0.12500000 </v>
    <v>       0.49967330       0.00032672       0.62500000 </v>
    <v>       0.99967330       0.00032672       0.62500000 </v>
    <v>       0.49967330       0.50032672       0.62500000 </v>
    <v>       0.99967330       0.50032672       0.62500000 </v>
    <v>       0.00032672       0.49967330       0.37500000 </v>
    <v>       0.50032672       0.49967330       0.37500000 </v>
    <v>       0.00032672       0.99967330       0.37500000 </v>
    <v>       0.50032672       0.99967330       0.37500000 </v>
    <v>       0.00032672       0.49967330       0.87500000 </v>
    <v>       0.50032672       0.49967330       0.87500000 </v>
    <v>       0.00032672       0.99967330       0.87500000 </v>
    <v>       0.50032672       0.99967330       0.87500000 </v>
    <v>       0.16556013       0.33370753       0.12426767 </v>
    <v>       0.66629246       0.33370753       0.12500000 </v>
    <v>       0.16629246       0.83370753       0.12500000 </v>
    <v>       0.66629246       0.83370753       0.12500000 </v>
    <v>       0.16629246       0.33370753       0.62500000 </v>
    <v>       0.66629246       0.33370753       0.62500000 </v>
    <v>       0.16629246       0.83370753       0.62500000 </v>
    <v>       0.66629246       0.83370753       0.62500000 </v>
    <v>       0.33370753       0.16629246       0.37500000 </v>
    <v>       0.83370753       0.16629246       0.37500000 </v>
    <v>       0.33370753       0.66629246       0.37500000 </v>
    <v>       0.83370753       0.66629246       0.37500000 </v>
    <v>       0.33370753       0.16629246       0.87500000 </v>
    <v>       0.83370753       0.16629246       0.87500000 </v>
    <v>       0.33370753       0.66629246       0.87500000 </v>
    <v>       0.83370753       0.66629246       0.87500000 </v>
   </varray>
  </structure>
  <varray name="forces" >
   <v>      -0.01053588       0.00686840      -0.00642449 </v>
   <v>      -0.03926120       0.00757776      -0.04013099 </v>
   <v>      -0.08662834      -0.02034386      -0.04057038 </v>
   <v>      -0.08692979       0.03443483      -0.03961203 </v>
   <v>      -0.01244560       0.00676013       0.00627709 </v>
   <v>      -0.01244825       0.00676159       0.00624131 </v>
   <v>      -0.01244798       0.00675979       0.00623828 </v>
   <v>      -0.01244653       0.00675939       0.00624120 </v>
   <v>       0.01204544      -0.00725633      -0.00690776 </v>
   <v>       0.01179328      -0.00736074      -0.00727412 </v>
   <v>       0.01200346      -0.00714936      -0.00707845 </v>
   <v>       0.01180761      -0.00726044      -0.00593948 </v>
   <v>       0.01183680      -0.00620449      -0.00730747 </v>
   <v>       0.01207820      -0.00646146      -0.00691898 </v>
   <v>       0.01217341      -0.00647551      -0.00710189 </v>
   <v>       0.01187835      -0.00637101      -0.00593414 </v>
   <v>       0.23148933      -0.00655693       0.13604389 </v>
   <v>      -0.03145716      -0.00546098       0.00633396 </v>
   <v>       0.00611489       0.01624363       0.00626699 </v>
   <v>       0.00623069      -0.02732840       0.00650933 </v>
   <v>       0.00998138      -0.00530544      -0.00112722 </v>
   <v>       0.00999609      -0.00530496      -0.00082806 </v>
   <v>       0.00999046      -0.00530841      -0.00082828 </v>
   <v>       0.00999028      -0.00530121      -0.00082978 </v>
   <v>      -0.00940467       0.00571598       0.00047890 </v>
   <v>      -0.00980414       0.00579662       0.00038631 </v>
   <v>      -0.00967941       0.00609600       0.00045791 </v>
   <v>      -0.00954234       0.00588735       0.00100649 </v>
   <v>      -0.00932995       0.00505396       0.00030763 </v>
   <v>      -0.00891748       0.00508020       0.00053140 </v>
   <v>      -0.00915170       0.00472259       0.00045367 </v>
   <v>      -0.00897924       0.00493131       0.00103916 </v>
  </varray>
  <varray name="stress" >
   <v>      -5.30296859       2.77562611      -0.04985245 </v>
   <v>       2.77562611      -1.89003638       0.04028665 </v>
   <v>      -0.04985249       0.04028668      24.19436983 </v>
  </varray>
  <energy>
   <i name="e_fr_energy">   -299.72894482 </i>
   <i name="e_wo_entrp">   -299.72894482 </i>
   <i name="e_0_energy">      0.00000000 </i>
  </energy>
  <time name="totalsc"> 9638.1518696.84</time>
  <eigenvalues>
   <array>
    <dimension dim="1">band</dimension>
    <dimension dim="2">kpoint</dimension>
    <dimension dim="3">spin</dimension>
    <field>eigene</field>
    <field>occ</field>
    <set>
     <set comment="spin 1">
      <set comment="kpoint 1">
       <r>  -14.5461    1.0000 </r>
       <r>  -14.3343    1.0000 </r>
       <r>  -14.3336    1.0000 </r>
       <r>  -14.1008    1.0000 </r>
       <r>   -9.1873    1.0000 </r>
       <r>   -9.1797    1.0000 </r>
       <r>   -9.1763    1.0000 </r>
       <r>   -9.0920    1.0000 </r>
       <r>   -9.0916    1.0000 </r>
       <r>   -9.0839    1.0000 </r>
       <r>   -9.0802    1.0000 </r>
       <r>   -9.0802    1.0000 </r>
       <r>   -9.0780    1.0000 </r>
       <r>   -9.0207    1.0000 </r>
       <r>   -9.0088    1.0000 </r>
       <r>   -9.0066    1.0000 </r>
       <r>   -8.0851    1.0000 </r>
       <r>   -8.0822    1.0000 </r>
       <r>   -8.0807    1.0000 </r>
       <r>   -8.0471    1.0000 </r>
       <r>   -8.0432    1.0000 </r>
       <r>   -8.0412    1.0000 </r>
       <r>   -8.0406    1.0000 </r>
       <r>   -8.0406    1.0000 </r>
       <r>   -8.0368    1.0000 </r>
       <r>   -7.9614    1.0000 </r>
       <r>   -7.9563    1.0000 </r>
       <r>   -7.9535    1.0000 </r>
       <r>   -3.5929    1.0000 </r>
       <r>   -2.4591    1.0000 </r>
       <r>   -2.4569    1.0000 </r>
       <r>   -1.2632    1.0000 </r>
       <r>   -1.2605    1.0000 </r>
       <r>   -1.2411    1.0000 </r>
       <r>   -1.2199    1.0000 </r>
       <r>   -1.2156    1.0000 </r>
       <r>   -1.2156    1.0000 </r>
       <r>   -1.2148    1.0000 </r>
       <r>   -1.1969    1.0000 </r>
       <r>   -1.1945    1.0000 </r>
       <r>   -1.1719    1.0000 </r>
       <r>   -1.1694    1.0000 </r>
       <r>   -1.1499    1.0000 </r>
       <r>   -1.0489    1.0000 </r>
       <r>    2.1400    1.0000 </r>
       <r>    2.1556    1.0000 </r>
       <r>    2.1619    1.0000 </r>
       <r>    2.1644    1.0000 </r>
       <r>    2.1755    1.0000 </r>
       <r>    2.1780    1.0000 </r>
       <r>    2.1829    1.0000 </r>
       <r>    2.1973    1.0000 </r>
       <r>    2.2302    1.0000 </r>
       <r>    2.2332    1.0000 </r>
       <r>    2.2351    1.0000 </r>
       <r>    2.7911    1.0000 </r>
       <r>    2.7928    1.0000 </r>
       <r>    2.7950    1.0000 </r>
       <r>    2.7987    1.0000 </r>
       <r>    2.7987    1.0000 </r>
       <r>    2.8001    1.0000 </r>
       <r>    3.1103    1.0000 </r>
       <r>    3.1288    1.0000 </r>
       <r>    3.1303    1.0000 </r>
       <r>    6.7079    0.0000 </r>
       <r>    6.7097    0.0000 </r>
       <r>    6.7141    0.0000 </r>
       <r>    6.7886    0.0000 </r>
       <r>    6.7954    0.0000 </r>
       <r>    6.7992    0.0000 </r>
       <r>    6.8005    0.0000 </r>
       <r>    6.8010    0.0000 </r>
       <r>    6.8075    0.0000 </r>
       <r>    7.4905    0.0000 </r>
       <r>    7.5046    0.0000 </r>
       <r>    7.5079    0.0000 </r>
       <r>    9.9541    0.0000 </r>
       <r>   12.2637    0.0000 </r>
       <r>   12.2677    0.0000 </r>
       <r>   12.3009    0.0000 </r>
       <r>   12.5396    0.0000 </r>
       <r>   12.5444    0.0000 </r>
       <r>   12.5464    0.0000 </r>
       <r>   12.5508    0.0000 </r>
      </set>
      <set comment="kpoint 2">
       <r>  -14.3798    1.0000 </r>
       <r>  -14.1699    1.0000 </r>
       <r>  -14.1692    1.0000 </r>
       <r>  -13.9387    1.0000 </r>
       <r>  -10.5097    1.0000 </r>
       <r>  -10.3457    1.0000 </r>
       <r>  -10.3450    1.0000 </r>
       <r>  -10.1696    1.0000 </r>
       <r>   -9.6313    1.0000 </r>
       <r>   -9.6245    1.0000 </r>
       <r>   -9.4858    1.0000 </r>
       <r>   -9.4851    1.0000 </r>
       <r>   -9.4782    1.0000 </r>
       <r>   -9.4777    1.0000 </r>
       <r>   -9.3331    1.0000 </r>
       <r>   -9.3253    1.0000 </r>
       <r>   -7.4985    1.0000 </r>
       <r>   -7.4906    1.0000 </r>
       <r>   -7.3839    1.0000 </r>
       <r>   -7.3810    1.0000 </r>
       <r>   -7.3743    1.0000 </r>
       <r>   -7.3739    1.0000 </r>
       <r>   -7.2540    1.0000 </r>
       <r>   -7.2456    1.0000 </r>
       <r>   -6.6528    1.0000 </r>
       <r>   -6.5328    1.0000 </r>
       <r>   -6.5312    1.0000 </r>
       <r>   -6.4035    1.0000 </r>
       <r>   -3.3910    1.0000 </r>
       <r>   -2.2639    1.0000 </r>
       <r>   -2.2617    1.0000 </r>
       <r>   -1.7569    1.0000 </r>
       <r>   -1.7377    1.0000 </r>
       <r>   -1.7024    1.0000 </r>
       <r>   -1.7019    1.0000 </r>
       <r>   -1.6841    1.0000 </r>
       <r>   -1.6817    1.0000 </r>
       <r>   -1.6459    1.0000 </r>
       <r>   -1.6267    1.0000 </r>
       <r>   -1.0996    1.0000 </r>
       <r>   -1.0563    1.0000 </r>
       <r>   -1.0533    1.0000 </r>
       <r>   -1.0095    1.0000 </r>
       <r>   -0.8632    1.0000 </r>
       <r>    1.0987    1.0000 </r>
       <r>    1.4959    1.0000 </r>
       <r>    1.5219    1.0000 </r>
       <r>    1.5263    1.0000 </r>
       <r>    1.5525    1.0000 </r>
       <r>    1.7997    1.0000 </r>
       <r>    1.8217    1.0000 </r>
       <r>    1.8271    1.0000 </r>
       <r>    1.8487    1.0000 </r>
       <r>    1.9498    1.0000 </r>
       <r>    1.9521    1.0000 </r>
       <r>    1.9861    1.0000 </r>
       <r>    1.9883    1.0000 </r>
       <r>    2.6833    1.0000 </r>
       <r>    2.6847    1.0000 </r>
       <r>    2.6894    1.0000 </r>
       <r>    2.6908    1.0000 </r>
       <r>    2.8627    1.0000 </r>
       <r>    3.2707    1.0000 </r>
       <r>    3.2845    1.0000 </r>
       <r>    6.8219    0.0000 </r>
       <r>    6.8237    0.0000 </r>
       <r>    7.0704    0.0000 </r>
       <r>    7.0766    0.0000 </r>
       <r>    7.0808    0.0000 </r>
       <r>    7.0836    0.0000 </r>
       <r>    7.4240    0.0000 </r>
       <r>    7.7700    0.0000 </r>
       <r>    7.7798    0.0000 </r>
       <r>    7.9014    0.0000 </r>
       <r>    7.9057    0.0000 </r>
       <r>    8.6933    0.0000 </r>
       <r>   10.1484    0.0000 </r>
       <r>   12.3595    0.0000 </r>
       <r>   12.6289    0.0000 </r>
       <r>   12.6307    0.0000 </r>
       <r>   12.9059    0.0000 </r>
       <r>   12.9994    0.0000 </r>
       <r>   13.0347    0.0000 </r>
       <r>   13.1484    0.0000 </r>
      </set>
      <set comment="kpoint 3">
       <r>  -13.8827    1.0000 </r>
       <r>  -13.6785    1.0000 </r>
       <r>  -13.6778    1.0000 </r>
       <r>  -13.4542    1.0000 </r>
       <r>  -11.9264    1.0000 </r>
       <r>  -11.7444    1.0000 </r>
       <r>  -11.7438    1.0000 </r>
       <r>  -11.5470    1.0000 </r>
       <r>  -10.0584    1.0000 </r>
       <r>  -10.0548    1.0000 </r>
       <r>   -9.9009    1.0000 </r>
       <r>   -9.8996    1.0000 </r>
       <r>   -9.8965    1.0000 </r>
       <r>   -9.8958    1.0000 </r>
       <r>   -9.7312    1.0000 </r>
       <r>   -9.7273    1.0000 </r>
       <r>   -6.3231    1.0000 </r>
       <r>   -6.3123    1.0000 </r>
       <r>   -6.2143    1.0000 </r>
       <r>   -6.2115    1.0000 </r>
       <r>   -6.2024    1.0000 </r>
       <r>   -6.2018    1.0000 </r>
       <r>   -6.0966    1.0000 </r>
       <r>   -6.0861    1.0000 </r>
       <r>   -4.5293    1.0000 </r>
       <r>   -4.4289    1.0000 </r>
       <r>   -4.4271    1.0000 </r>
       <r>   -4.3219    1.0000 </r>
       <r>   -2.9196    1.0000 </r>
       <r>   -2.9036    1.0000 </r>
       <r>   -2.8501    1.0000 </r>
       <r>   -2.8499    1.0000 </r>
       <r>   -2.8350    1.0000 </r>
       <r>   -2.8325    1.0000 </r>
       <r>   -2.7895    1.0000 </r>
       <r>   -2.7764    1.0000 </r>
       <r>   -2.7602    1.0000 </r>
       <r>   -1.6834    1.0000 </r>
       <r>   -1.6812    1.0000 </r>
       <r>   -0.6251    1.0000 </r>
       <r>   -0.5837    1.0000 </r>
       <r>   -0.5804    1.0000 </r>
       <r>   -0.5385    1.0000 </r>
       <r>   -0.4694    1.0000 </r>
       <r>   -0.3132    1.0000 </r>
       <r>   -0.1687    1.0000 </r>
       <r>   -0.1189    1.0000 </r>
       <r>   -0.1154    1.0000 </r>
       <r>   -0.0651    1.0000 </r>
       <r>    0.5291    1.0000 </r>
       <r>    0.5311    1.0000 </r>
       <r>    0.9975    1.0000 </r>
       <r>    1.0290    1.0000 </r>
       <r>    1.0336    1.0000 </r>
       <r>    1.0654    1.0000 </r>
       <r>    1.6592    1.0000 </r>
       <r>    1.6616    1.0000 </r>
[...]
       <r>   -3.7243    1.0000 </r>
       <r>   -3.7216    1.0000 </r>
       <r>   -3.7203    1.0000 </r>
       <r>   -3.7203    1.0000 </r>
       <r>   -2.2955    1.0000 </r>
       <r>   -2.2893    1.0000 </r>
       <r>   -2.2893    1.0000 </r>
       <r>   -2.2889    1.0000 </r>
       <r>   -2.1843    1.0000 </r>
       <r>   -2.1786    1.0000 </r>
       <r>   -2.1786    1.0000 </r>
       <r>   -2.1783    1.0000 </r>
       <r>   -1.5107    1.0000 </r>
       <r>   -1.5084    1.0000 </r>
       <r>   -1.5081    1.0000 </r>
       <r>   -1.5052    1.0000 </r>
       <r>    0.1398    1.0000 </r>
       <r>    0.1414    1.0000 </r>
       <r>    0.1414    1.0000 </r>
       <r>    0.1488    1.0000 </r>
       <r>    0.1493    1.0000 </r>
       <r>    0.1518    1.0000 </r>
       <r>    0.1520    1.0000 </r>
       <r>    0.1555    1.0000 </r>
       <r>    0.1959    1.0000 </r>
       <r>    0.1974    1.0000 </r>
       <r>    0.1974    1.0000 </r>
       <r>    0.2074    1.0000 </r>
       <r>    1.7823    1.0000 </r>
       <r>    1.7856    1.0000 </r>
       <r>    1.7858    1.0000 </r>
       <r>    1.7870    1.0000 </r>
       <r>    3.1059    1.0000 </r>
       <r>    3.1098    1.0000 </r>
       <r>    3.1101    1.0000 </r>
       <r>    3.1113    1.0000 </r>
       <r>    7.6739    0.0000 </r>
       <r>    7.6742    0.0000 </r>
       <r>    7.6742    0.0000 </r>
       <r>    7.6793    0.0000 </r>
       <r>    8.2401    0.0000 </r>
       <r>    8.2409    0.0000 </r>
       <r>    8.2409    0.0000 </r>
       <r>    8.2455    0.0000 </r>
       <r>   11.9860    0.0000 </r>
       <r>   11.9974    0.0000 </r>
       <r>   11.9979    0.0000 </r>
       <r>   12.0056    0.0000 </r>
       <r>   12.5305    0.0000 </r>
       <r>   12.5409    0.0000 </r>
       <r>   12.5430    0.0000 </r>
       <r>   12.5501    0.0000 </r>
       <r>   12.6691    0.0000 </r>
       <r>   12.6746    0.0000 </r>
       <r>   12.6759    0.0000 </r>
       <r>   12.6824    0.0000 </r>
      </set>
     </set>
    </set>
   </array>
  </eigenvalues>
  <separator name="orbital magnetization" >
   <v name="MAGDIPOLOUT">      0.00000000      0.00000000      0.00000000</v>
  </separator>
  <dos>
   <i name="efermi">      5.13517426 </i>
   <total>
    <array>
     <dimension dim="1">gridpoints</dimension>
     <dimension dim="2">spin</dimension>
     <field>energy</field>
     <field>total</field>
     <field>integrated</field>
     <set>
      <set comment="spin 1">
       <r>   -16.5461     0.0000     0.0000 </r>
       <r>   -16.4351     0.0000     0.0000 </r>
       <r>   -16.3241     0.0000     0.0000 </r>
       <r>   -16.2131     0.0000     0.0000 </r>
       <r>   -16.1021     0.0000     0.0000 </r>
       <r>   -15.9911     0.0000     0.0000 </r>
       <r>   -15.8801     0.0000     0.0000 </r>
       <r>   -15.7691     0.0000     0.0000 </r>
       <r>   -15.6581     0.0000     0.0000 </r>
       <r>   -15.5471     0.0000     0.0000 </r>
       <r>   -15.4361     0.0000     0.0000 </r>
       <r>   -15.3251     0.0000     0.0000 </r>
       <r>   -15.2141     0.0000     0.0000 </r>
       <r>   -15.1031     0.0000     0.0000 </r>
       <r>   -14.9922     0.0000     0.0000 </r>
       <r>   -14.8812     0.0000     0.0000 </r>
       <r>   -14.7702     0.0000     0.0000 </r>
       <r>   -14.6592     0.0000     0.0000 </r>
       <r>   -14.5482     0.0000     0.0000 </r>
       <r>   -14.4372     1.1456     0.0484 </r>
       <r>   -14.3262     2.1726     0.2567 </r>
       <r>   -14.2152     2.9152     0.5368 </r>
       <r>   -14.1042     4.0124     0.9151 </r>
       <r>   -13.9932     5.2334     1.4424 </r>
       <r>   -13.8822     4.8140     1.9949 </r>
       <r>   -13.7712     4.9124     2.5342 </r>
       <r>   -13.6602     4.9984     3.0848 </r>
       <r>   -13.5492     4.9662     3.6382 </r>
       <r>   -13.4383     5.1203     4.1946 </r>
       <r>   -13.3273     6.5666     4.8291 </r>
       <r>   -13.2163     7.0910     5.5930 </r>
       <r>   -13.1053     6.4167     6.3522 </r>
       <r>   -12.9943     6.1458     7.0621 </r>
       <r>   -12.8833     2.5132     7.5475 </r>
       <r>   -12.7723     1.8614     7.7833 </r>
       <r>   -12.6613     1.8547     7.9838 </r>
       <r>   -12.5503     2.3784     8.2166 </r>
       <r>   -12.4393     5.9966     8.5895 </r>
       <r>   -12.3283     6.1445     9.4828 </r>
       <r>   -12.2173     6.9173    10.1901 </r>
       <r>   -12.1063     6.7894    10.9747 </r>
       <r>   -11.9953     4.0888    11.5774 </r>
       <r>   -11.8844     4.2312    12.0387 </r>
       <r>   -11.7734     4.4214    12.5187 </r>
       <r>   -11.6624     4.6184    13.0203 </r>
       <r>   -11.5514     4.7998    13.5435 </r>
       <r>   -11.4404     5.0078    14.0844 </r>
       <r>   -11.3294     5.1959    14.6513 </r>
       <r>   -11.2184     5.3795    15.2404 </r>
       <r>   -11.1074     5.8176    15.8550 </r>
       <r>   -10.9964     5.9715    16.5287 </r>
       <r>   -10.8854     5.7348    17.1772 </r>
       <r>   -10.7744     5.6612    17.8070 </r>
       <r>   -10.6634     5.8389    18.4452 </r>
       <r>   -10.5524     6.0170    19.1032 </r>
       <r>   -10.4414     5.8440    19.7650 </r>
       <r>   -10.3305     5.7944    20.4102 </r>
       <r>   -10.2195     5.7680    21.0512 </r>
       <r>   -10.1085     5.1128    21.6650 </r>
       <r>    -9.9975     3.8872    22.1608 </r>
       <r>    -9.8865     3.8203    22.5753 </r>
       <r>    -9.7755     4.6178    23.0461 </r>
       <r>    -9.6645     4.9299    23.5801 </r>
       <r>    -9.5535     6.1617    24.1877 </r>
       <r>    -9.4425     7.6071    24.9368 </r>
       <r>    -9.3315    10.8204    25.9186 </r>
       <r>    -9.2205     8.9456    27.0462 </r>
       <r>    -9.1095     6.5579    27.9040 </r>
       <r>    -8.9985     4.9398    28.5270 </r>
       <r>    -8.8875     4.3986    29.0453 </r>
       <r>    -8.7766     3.8574    29.5035 </r>
       <r>    -8.6656     4.6863    30.1496 </r>
       <r>    -8.5546     4.6464    30.6508 </r>
       <r>    -8.4436     1.9548    31.0210 </r>
       <r>    -8.3326     1.7375    31.2259 </r>
       <r>    -8.2216     1.5202    31.4067 </r>
       <r>    -8.1106     1.3029    31.5634 </r>
       <r>    -7.9996     1.4483    31.7090 </r>
       <r>    -7.8886     1.9388    31.8963 </r>
       <r>    -7.7776     2.4455    32.1396 </r>
       <r>    -7.6666     3.0846    32.4398 </r>
       <r>    -7.5556     7.6394    32.9927 </r>
       <r>    -7.4446     7.7457    34.0213 </r>
       <r>    -7.3336     5.0992    34.6560 </r>
       <r>    -7.2227     5.4960    35.2405 </r>
       <r>    -7.1117     6.7457    35.9198 </r>
       <r>    -7.0007     7.9955    36.7379 </r>
       <r>    -6.8897     9.2453    37.6947 </r>
       <r>    -6.7787     8.0637    38.6891 </r>
       <r>    -6.6677     6.2875    39.5036 </r>
       <r>    -6.5567     5.5815    40.1305 </r>
       <r>    -6.4457     5.5162    40.7460 </r>
       <r>    -6.3347     5.4437    41.3571 </r>
       <r>    -6.2237     5.2651    41.9518 </r>
       <r>    -6.1127     5.0801    42.5254 </r>
       <r>    -6.0017     4.9569    43.0822 </r>
       <r>    -5.8907     4.8378    43.6258 </r>
       <r>    -5.7797     4.7188    44.1562 </r>
       <r>    -5.6688     4.5999    44.6733 </r>
       <r>    -5.5578     4.4810    45.1773 </r>
       <r>    -5.4468     4.3582    45.6679 </r>
       <r>    -5.3358     4.4574    46.1495 </r>
       <r>    -5.2248     5.1476    46.6846 </r>
       <r>    -5.1138     5.7683    47.2904 </r>
       <r>    -5.0028     6.3890    47.9651 </r>
       <r>    -4.8918     7.0098    48.7086 </r>
       <r>    -4.7808     7.6306    49.5211 </r>
       <r>    -4.6698     8.2515    50.4025 </r>
       <r>    -4.5588     8.8724    51.3529 </r>
       <r>    -4.4478     6.1262    52.1919 </r>
       <r>    -4.3368     5.1849    52.7586 </r>
       <r>    -4.2258     6.8168    53.4300 </r>
       <r>    -4.1148     5.9058    54.1674 </r>
       <r>    -4.0039     4.3313    54.7356 </r>
       <r>    -3.8929     2.7564    55.1289 </r>
       <r>    -3.7819     1.2076    55.3475 </r>
       <r>    -3.6709     1.8420    55.4893 </r>
       <r>    -3.5599     3.5345    55.7864 </r>
       <r>    -3.4489     5.6321    56.2916 </r>
       <r>    -3.3379     9.0969    57.0897 </r>
       <r>    -3.2269    12.4490    58.2636 </r>
       <r>    -3.1159    12.8508    59.7011 </r>
       <r>    -3.0049    11.2321    61.0978 </r>
       <r>    -2.8939     5.7984    62.0484 </r>
       <r>    -2.7829     5.1389    62.6240 </r>
       <r>    -2.6719     6.2509    63.2559 </r>
       <r>    -2.5609     7.3516    64.0076 </r>
       <r>    -2.4500    12.3149    65.0523 </r>
       <r>    -2.3390    18.4962    66.7617 </r>
       <r>    -2.2280    14.4509    68.9194 </r>
       <r>    -2.1170     7.4099    69.9107 </r>
       <r>    -2.0060     7.2965    70.7261 </r>
       <r>    -1.8950     7.3067    71.5344 </r>
       <r>    -1.7840     8.0309    72.3770 </r>
       <r>    -1.6730    11.9116    73.3980 </r>
       <r>    -1.5620    13.9072    75.0358 </r>
       <r>    -1.4510    10.5901    76.3996 </r>
       <r>    -1.3400    10.7327    77.4374 </r>
       <r>    -1.2290    22.1268    79.7857 </r>
       <r>    -1.1180    20.5483    82.1559 </r>
       <r>    -1.0070    17.3221    84.3831 </r>
       <r>    -0.8961    14.9268    86.1014 </r>
       <r>    -0.7851    14.8162    87.7472 </r>
       <r>    -0.6741    10.4772    89.1793 </r>
       <r>    -0.5631     8.3088    90.2056 </r>
       <r>    -0.4521     6.9304    91.0462 </r>
       <r>    -0.3411     7.7070    91.8533 </r>
       <r>    -0.2301     8.6613    92.7575 </r>
       <r>    -0.1191     9.9777    93.7832 </r>
       <r>    -0.0081    10.9072    94.9549 </r>
       <r>     0.1029    12.8750    96.2286 </r>
       <r>     0.2139    12.6534    98.1984 </r>
       <r>     0.3249    12.1942    99.5424 </r>
       <r>     0.4359    12.0971   100.9249 </r>
       <r>     0.5469     9.4144   102.0767 </r>
       <r>     0.6578     8.8919   103.0859 </r>
       <r>     0.7688     8.9696   104.0836 </r>
       <r>     0.8798     8.6949   105.0628 </r>
       <r>     0.9908     8.6238   106.0225 </r>
       <r>     1.1018    11.2849   107.1037 </r>
       <r>     1.2128     9.7846   108.2200 </r>
       <r>     1.3238     9.8691   109.3159 </r>
       <r>     1.4348     9.8387   110.4097 </r>
       <r>     1.5458    10.4199   111.5185 </r>
       <r>     1.6568     9.7851   112.6533 </r>
       <r>     1.7678     8.8159   113.6786 </r>
       <r>     1.8788    10.3153   114.7219 </r>
       <r>     1.9898     9.5644   115.8333 </r>
       <r>     2.1008     8.2301   116.8237 </r>
       <r>     2.2117     7.4172   117.6863 </r>
       <r>     2.3227     5.5845   118.4105 </r>
       <r>     2.4337     4.6721   118.9599 </r>
       <r>     2.5447     3.2793   119.3888 </r>
       <r>     2.6557     3.0720   119.7304 </r>
       <r>     2.7667     4.2272   120.1272 </r>
       <r>     2.8777     5.2995   120.6254 </r>
       <r>     2.9887     7.9091   121.3601 </r>
       <r>     3.0997     8.2144   122.2803 </r>
       <r>     3.2107     7.1512   123.1018 </r>
       <r>     3.3217     6.8851   123.8575 </r>
       <r>     3.4327     6.4290   124.6358 </r>
       <r>     3.5437     4.8269   125.2533 </r>
       <r>     3.6547     3.8409   125.7319 </r>
       <r>     3.7656     3.2881   126.1232 </r>
       <r>     3.8766     2.8377   126.4634 </r>
       <r>     3.9876     2.4207   126.7548 </r>
       <r>     4.0986     2.0747   127.0032 </r>
       <r>     4.2096     1.7805   127.2170 </r>
       <r>     4.3206     1.5270   127.4000 </r>
       <r>     4.4316     1.3330   127.5587 </r>
       <r>     4.5426     1.0941   127.6932 </r>
       <r>     4.6536     0.8668   127.8020 </r>
       <r>     4.7646     0.6487   127.8860 </r>
       <r>     4.8756     0.4395   127.9463 </r>
       <r>     4.9866     0.2379   127.9838 </r>
       <r>     5.0976     0.0440   127.9994 </r>
       <r>     5.2086     0.0646   128.0019 </r>
       <r>     5.3195     0.1952   128.0162 </r>
       <r>     5.4305     0.3344   128.0455 </r>
       <r>     5.5415     0.4827   128.0908 </r>
       <r>     5.6525     0.6427   128.1531 </r>
       <r>     5.7635     0.8148   128.2339 </r>
       <r>     5.8745     1.0010   128.3345 </r>
       <r>     5.9855     1.2100   128.4570 </r>
       <r>     6.0965     1.4511   128.6042 </r>
       <r>     6.2075     2.1105   128.7907 </r>
       <r>     6.3185     2.6951   129.0597 </r>
       <r>     6.4295     3.2311   129.3885 </r>
       <r>     6.5405     3.6283   129.7705 </r>
       <r>     6.6515     5.2441   130.2412 </r>
       <r>     6.7625    11.7709   131.1170 </r>
       <r>     6.8734    11.3544   132.5408 </r>
       <r>     6.9844     8.7480   133.6514 </r>
       <r>     7.0954     6.7149   134.5138 </r>
       <r>     7.2064     5.7263   135.2029 </r>
       <r>     7.3174     4.9897   135.7930 </r>
       <r>     7.4284     4.6698   136.3293 </r>
       <r>     7.5394     4.2334   136.8168 </r>
       <r>     7.6504     3.7811   137.2598 </r>
       <r>     7.7614     3.5662   137.6642 </r>
       <r>     7.8724     3.7070   138.0657 </r>
       <r>     7.9834     4.0880   138.4961 </r>
       <r>     8.0944     4.4644   138.9718 </r>
       <r>     8.2054     4.7246   139.4824 </r>
       <r>     8.3164     4.8914   140.0184 </r>
       <r>     8.4273     4.7145   140.5543 </r>
       <r>     8.5383     4.5387   141.0673 </r>
       <r>     8.6493     4.4352   141.5642 </r>
       <r>     8.7603     4.3413   142.0522 </r>
       <r>     8.8713     4.2387   142.5282 </r>
       <r>     8.9823     4.1468   142.9935 </r>
       <r>     9.0933     4.0588   143.4488 </r>
       <r>     9.2043     3.7574   143.8886 </r>
       <r>     9.3153     3.4990   144.2895 </r>
       <r>     9.4263     3.3572   144.6691 </r>
       <r>     9.5373     3.2960   145.0380 </r>
       <r>     9.6483     3.2172   145.4001 </r>
       <r>     9.7593     3.1314   145.7520 </r>
       <r>     9.8703     3.0723   146.0962 </r>
       <r>     9.9813     3.0311   146.4349 </r>
       <r>    10.0922     3.1319   146.7745 </r>
       <r>    10.2032     3.3412   147.1355 </r>
       <r>    10.3142     3.3853   147.5101 </r>
       <r>    10.4252     3.3667   147.8836 </r>
       <r>    10.5362     3.4123   148.2598 </r>
       <r>    10.6472     3.5759   148.6411 </r>
       <r>    10.7582     4.3502   149.0944 </r>
       <r>    10.8692     4.5962   149.5917 </r>
       <r>    10.9802     4.6817   150.1080 </r>
       <r>    11.0912     4.6241   150.6259 </r>
       <r>    11.2022     4.4395   151.1301 </r>
       <r>    11.3132     4.2620   151.6118 </r>
       <r>    11.4242     4.9752   152.1221 </r>
       <r>    11.5352     7.3820   152.7429 </r>
       <r>    11.6461     3.5387   153.3944 </r>
       <r>    11.7571     2.6374   153.7255 </r>
       <r>    11.8681     2.3944   154.0017 </r>
       <r>    11.9791     2.3029   154.2622 </r>
       <r>    12.0901     2.2769   154.5142 </r>
       <r>    12.2011     2.5701   154.7819 </r>
       <r>    12.3121     3.3346   155.0939 </r>
       <r>    12.4231     5.8769   155.6239 </r>
       <r>    12.5341     6.5009   156.3258 </r>
       <r>    12.6451     7.2590   157.0840 </r>
       <r>    12.7561     9.1426   157.9883 </r>
       <r>    12.8671    11.6460   159.1232 </r>
       <r>    12.9781    14.8614   160.6184 </r>
       <r>    13.0891    14.2705   162.2399 </r>
       <r>    13.2000    13.1942   163.8268 </r>
       <r>    13.3110    10.1001   165.1200 </r>
       <r>    13.4220    10.0090   166.1944 </r>
       <r>    13.5330     9.1890   167.3845 </r>
       <r>    13.6440     1.3978   167.7931 </r>
       <r>    13.7550     0.5296   167.8936 </r>
       <r>    13.8660     0.2365   167.9332 </r>
       <r>    13.9770     0.1729   167.9554 </r>
       <r>    14.0880     0.1269   167.9719 </r>
       <r>    14.1990     0.0880   167.9838 </r>
       <r>    14.3100     0.0562   167.9917 </r>
       <r>    14.4210     0.0315   167.9965 </r>
       <r>    14.5320     0.0139   167.9990 </r>
       <r>    14.6430     0.0034   167.9999 </r>
       <r>    14.7539     0.0000   168.0000 </r>
       <r>    14.8649     0.0000   168.0000 </r>
       <r>    14.9759     0.0000   168.0000 </r>
       <r>    15.0869     0.0000   168.0000 </r>
       <r>    15.1979     0.0000   168.0000 </r>
       <r>    15.3089     0.0000   168.0000 </r>
       <r>    15.4199     0.0000   168.0000 </r>
       <r>    15.5309     0.0000   168.0000 </r>
       <r>    15.6419     0.0000   168.0000 </r>
       <r>    15.7529     0.0000   168.0000 </r>
       <r>    15.8639     0.0000   168.0000 </r>
       <r>    15.9749     0.0000   168.0000 </r>
       <r>    16.0859     0.0000   168.0000 </r>
       <r>    16.1969     0.0000   168.0000 </r>
       <r>    16.3078     0.0000   168.0000 </r>
       <r>    16.4188     0.0000   168.0000 </r>
       <r>    16.5298     0.0000   168.0000 </r>
       <r>    16.6408     0.0000   168.0000 </r>
       <r>    16.7518     0.0000   168.0000 </r>
      </set>
     </set>
    </array>
   </total>
  </dos>
 </calculation>
 <structure name="finalpos" >
  <crystal>
   <varray name="basis" >
    <v>       4.93287450      -0.00191929       0.00000000 </v>
    <v>      -2.46809940       4.27103499       0.00000000 </v>
    <v>       0.00000000       0.00000000      12.73296140 </v>
   </varray>
   <i name="volume">    268.20382108 </i>
   <varray name="rec_basis" >
    <v>       0.20276715       0.11717288       0.00000000 </v>
    <v>       0.00009112       0.23418794       0.00000000 </v>
    <v>       0.00000000       0.00000000       0.07853633 </v>
   </varray>
  </crystal>
  <varray name="positions" >
   <v>       0.49967330       0.00032672       0.12500000 </v>
   <v>       0.99967330       0.00032672       0.12500000 </v>
   <v>       0.49967330       0.50032672       0.12500000 </v>
   <v>       0.99967330       0.50032672       0.12500000 </v>
   <v>       0.49967330       0.00032672       0.62500000 </v>
   <v>       0.99967330       0.00032672       0.62500000 </v>
   <v>       0.49967330       0.50032672       0.62500000 </v>
   <v>       0.99967330       0.50032672       0.62500000 </v>
   <v>       0.00032672       0.49967330       0.37500000 </v>
   <v>       0.50032672       0.49967330       0.37500000 </v>
   <v>       0.00032672       0.99967330       0.37500000 </v>
   <v>       0.50032672       0.99967330       0.37500000 </v>
   <v>       0.00032672       0.49967330       0.87500000 </v>
   <v>       0.50032672       0.49967330       0.87500000 </v>
   <v>       0.00032672       0.99967330       0.87500000 </v>
   <v>       0.50032672       0.99967330       0.87500000 </v>
   <v>       0.16556013       0.33370753       0.12426767 </v>
   <v>       0.66629246       0.33370753       0.12500000 </v>
   <v>       0.16629246       0.83370753       0.12500000 </v>
   <v>       0.66629246       0.83370753       0.12500000 </v>
   <v>       0.16629246       0.33370753       0.62500000 </v>
   <v>       0.66629246       0.33370753       0.62500000 </v>
   <v>       0.16629246       0.83370753       0.62500000 </v>
   <v>       0.66629246       0.83370753       0.62500000 </v>
   <v>       0.33370753       0.16629246       0.37500000 </v>
   <v>       0.83370753       0.16629246       0.37500000 </v>
   <v>       0.33370753       0.66629246       0.37500000 </v>
   <v>       0.83370753       0.66629246       0.37500000 </v>
   <v>       0.33370753       0.16629246       0.87500000 </v>
   <v>       0.83370753       0.16629246       0.87500000 </v>
   <v>       0.33370753       0.66629246       0.87500000 </v>
   <v>       0.83370753       0.66629246       0.87500000 </v>
  </varray>
 </structure>
</modeling>
