  16  16   0   0
  0.5698463E+01  0.5052010E-09  0.5052010E-09  0.5052010E-09  0.5000000E-15
  1.000000000000000E-004
  CAR 
 diamond                                 
     21.67920029    -13.72498627  301      9.76716669      1.00000000
    -13.725  0.0000E+00  0.0000E+00
    -13.607  0.0000E+00  0.0000E+00
    -13.489  0.0000E+00  0.0000E+00
    -13.371  0.0000E+00  0.0000E+00
    -13.253  0.0000E+00  0.0000E+00
    -13.135  0.0000E+00  0.0000E+00
    -13.017  0.0000E+00  0.0000E+00
    -12.899  0.0000E+00  0.0000E+00
    -12.781  0.0000E+00  0.0000E+00
    -12.663  0.0000E+00  0.0000E+00
    -12.545  0.0000E+00  0.0000E+00
    -12.427  0.0000E+00  0.0000E+00
    -12.309  0.0000E+00  0.0000E+00
    -12.191  0.0000E+00  0.0000E+00
    -12.073  0.0000E+00  0.0000E+00
    -11.955  0.0000E+00  0.0000E+00
    -11.837  0.0000E+00  0.0000E+00
    -11.719  0.2852E-03  0.5930E-06
    -11.601  0.1132E+00  0.4688E-02
    -11.483  0.3618E+00  0.3339E-01
    -11.365  0.4886E+00  0.8399E-01
    -11.247  0.5528E+00  0.1452E+00
    -11.129  0.6427E+00  0.2158E+00
    -11.011  0.7212E+00  0.2963E+00
    -10.893  0.7730E+00  0.3846E+00
    -10.775  0.8386E+00  0.4795E+00
    -10.657  0.9192E+00  0.5831E+00
    -10.539  0.1028E+01  0.6976E+00
    -10.421  0.1188E+01  0.8276E+00
    -10.303  0.1390E+01  0.9795E+00
    -10.185  0.1607E+01  0.1156E+01
    -10.067  0.1540E+01  0.1352E+01
     -9.949  0.1291E+01  0.1514E+01
     -9.831  0.1224E+01  0.1663E+01
     -9.713  0.1101E+01  0.1801E+01
     -9.594  0.9399E+00  0.1921E+01
     -9.476  0.8395E+00  0.2022E+01
     -9.358  0.9910E+00  0.2128E+01
     -9.240  0.1224E+01  0.2259E+01
     -9.122  0.1635E+01  0.2424E+01
     -9.004  0.1981E+01  0.2650E+01
     -8.886  0.1776E+01  0.2878E+01
     -8.768  0.1516E+01  0.3070E+01
     -8.650  0.1487E+01  0.3244E+01
     -8.532  0.1500E+01  0.3425E+01
     -8.414  0.1697E+01  0.3614E+01
     -8.296  0.1748E+01  0.3819E+01
     -8.178  0.1794E+01  0.4027E+01
     -8.060  0.1889E+01  0.4245E+01
     -7.942  0.1928E+01  0.4471E+01
     -7.824  0.1931E+01  0.4699E+01
     -7.706  0.1986E+01  0.4929E+01
     -7.588  0.2053E+01  0.5168E+01
     -7.470  0.1978E+01  0.5405E+01
     -7.352  0.1970E+01  0.5638E+01
     -7.234  0.1974E+01  0.5870E+01
     -7.116  0.2340E+01  0.6119E+01
     -6.998  0.2329E+01  0.6403E+01
     -6.880  0.2306E+01  0.6679E+01
     -6.762  0.2441E+01  0.6955E+01
     -6.644  0.2548E+01  0.7251E+01
     -6.526  0.2790E+01  0.7562E+01
     -6.408  0.3026E+01  0.7905E+01
     -6.290  0.3340E+01  0.8280E+01
     -6.172  0.3732E+01  0.8697E+01
     -6.054  0.4402E+01  0.9171E+01
     -5.936  0.3155E+01  0.9645E+01
     -5.818  0.2014E+01  0.9946E+01
     -5.700  0.1632E+01  0.1015E+02
     -5.582  0.1468E+01  0.1033E+02
     -5.464  0.1922E+01  0.1055E+02
     -5.346  0.2269E+01  0.1079E+02
     -5.228  0.2704E+01  0.1109E+02
     -5.110  0.2842E+01  0.1142E+02
     -4.992  0.2629E+01  0.1176E+02
     -4.874  0.2546E+01  0.1206E+02
     -4.756  0.2546E+01  0.1236E+02
     -4.638  0.2388E+01  0.1265E+02
     -4.520  0.2131E+01  0.1291E+02
     -4.402  0.2143E+01  0.1317E+02
     -4.284  0.2221E+01  0.1342E+02
     -4.166  0.2563E+01  0.1370E+02
     -4.048  0.2670E+01  0.1401E+02
     -3.930  0.2736E+01  0.1433E+02
     -3.812  0.2592E+01  0.1465E+02
     -3.694  0.2472E+01  0.1495E+02
     -3.576  0.2128E+01  0.1522E+02
     -3.458  0.1781E+01  0.1545E+02
     -3.340  0.1626E+01  0.1565E+02
     -3.222  0.1486E+01  0.1583E+02
     -3.104  0.1128E+01  0.1597E+02
     -2.986  0.1347E+01  0.1612E+02
     -2.868  0.1545E+01  0.1629E+02
     -2.750  0.1579E+01  0.1648E+02
     -2.632  0.1705E+01  0.1667E+02
     -2.514  0.1940E+01  0.1688E+02
     -2.396  0.2301E+01  0.1713E+02
     -2.278  0.2940E+01  0.1744E+02
     -2.160  0.3561E+01  0.1782E+02
     -2.042  0.4237E+01  0.1828E+02
     -1.924  0.4738E+01  0.1882E+02
     -1.806  0.4972E+01  0.1939E+02
     -1.688  0.5215E+01  0.1999E+02
     -1.570  0.5136E+01  0.2061E+02
     -1.452  0.4445E+01  0.2117E+02
     -1.334  0.3670E+01  0.2166E+02
     -1.216  0.2889E+01  0.2204E+02
     -1.097  0.2468E+01  0.2235E+02
     -0.979  0.2419E+01  0.2264E+02
     -0.861  0.2099E+01  0.2291E+02
     -0.743  0.2342E+01  0.2317E+02
     -0.625  0.2742E+01  0.2347E+02
     -0.507  0.2906E+01  0.2380E+02
     -0.389  0.3461E+01  0.2417E+02
     -0.271  0.3356E+01  0.2457E+02
     -0.153  0.3176E+01  0.2496E+02
     -0.035  0.2987E+01  0.2532E+02
      0.083  0.2759E+01  0.2566E+02
      0.201  0.2527E+01  0.2597E+02
      0.319  0.2324E+01  0.2626E+02
      0.437  0.2573E+01  0.2654E+02
      0.555  0.3009E+01  0.2688E+02
      0.673  0.2885E+01  0.2723E+02
      0.791  0.2711E+01  0.2755E+02
      0.909  0.3042E+01  0.2789E+02
      1.027  0.4443E+01  0.2832E+02
      1.145  0.3692E+01  0.2877E+02
      1.263  0.3323E+01  0.2919E+02
      1.381  0.3108E+01  0.2956E+02
      1.499  0.4224E+01  0.2999E+02
      1.617  0.4718E+01  0.3053E+02
      1.735  0.4642E+01  0.3109E+02
      1.853  0.3498E+01  0.3157E+02
      1.971  0.3169E+01  0.3195E+02
      2.089  0.4257E+01  0.3238E+02
      2.207  0.4741E+01  0.3292E+02
      2.325  0.4247E+01  0.3343E+02
      2.443  0.4442E+01  0.3394E+02
      2.561  0.4847E+01  0.3449E+02
      2.679  0.5348E+01  0.3509E+02
      2.797  0.5371E+01  0.3573E+02
      2.915  0.5118E+01  0.3635E+02
      3.033  0.4764E+01  0.3692E+02
      3.151  0.5091E+01  0.3750E+02
      3.269  0.6017E+01  0.3814E+02
      3.387  0.6424E+01  0.3887E+02
      3.505  0.7114E+01  0.3966E+02
      3.623  0.8167E+01  0.4057E+02
      3.741  0.6567E+01  0.4141E+02
      3.859  0.5980E+01  0.4217E+02
      3.977  0.5161E+01  0.4283E+02
      4.095  0.5749E+01  0.4344E+02
      4.213  0.4422E+01  0.4409E+02
      4.331  0.3937E+01  0.4457E+02
      4.449  0.4382E+01  0.4505E+02
      4.567  0.4664E+01  0.4559E+02
      4.685  0.5484E+01  0.4618E+02
      4.803  0.6730E+01  0.4690E+02
      4.921  0.7139E+01  0.4774E+02
      5.039  0.6701E+01  0.4854E+02
      5.157  0.6611E+01  0.4934E+02
      5.275  0.6773E+01  0.5012E+02
      5.393  0.6856E+01  0.5094E+02
      5.511  0.6265E+01  0.5172E+02
      5.629  0.5762E+01  0.5244E+02
      5.747  0.4932E+01  0.5307E+02
      5.865  0.4593E+01  0.5362E+02
      5.983  0.5187E+01  0.5419E+02
      6.101  0.5637E+01  0.5484E+02
      6.219  0.5521E+01  0.5550E+02
      6.337  0.5441E+01  0.5614E+02
      6.455  0.5394E+01  0.5681E+02
      6.573  0.4972E+01  0.5743E+02
      6.691  0.3887E+01  0.5795E+02
      6.809  0.3510E+01  0.5837E+02
      6.927  0.3746E+01  0.5880E+02
      7.045  0.4715E+01  0.5929E+02
      7.163  0.3577E+01  0.5979E+02
      7.281  0.3246E+01  0.6019E+02
      7.400  0.3098E+01  0.6056E+02
      7.518  0.3042E+01  0.6092E+02
      7.636  0.2806E+01  0.6127E+02
      7.754  0.2618E+01  0.6159E+02
      7.872  0.2414E+01  0.6189E+02
      7.990  0.2252E+01  0.6216E+02
      8.108  0.2249E+01  0.6242E+02
      8.226  0.2055E+01  0.6268E+02
      8.344  0.1820E+01  0.6291E+02
      8.462  0.1579E+01  0.6311E+02
      8.580  0.1359E+01  0.6328E+02
      8.698  0.1172E+01  0.6343E+02
      8.816  0.1049E+01  0.6356E+02
      8.934  0.9098E+00  0.6368E+02
      9.052  0.8068E+00  0.6378E+02
      9.170  0.6728E+00  0.6387E+02
      9.288  0.4668E+00  0.6394E+02
      9.406  0.2269E+00  0.6398E+02
      9.524  0.8228E-01  0.6400E+02
      9.642  0.9440E-02  0.6400E+02
      9.760  0.0000E+00  0.6400E+02
      9.878  0.0000E+00  0.6400E+02
      9.996  0.0000E+00  0.6400E+02
     10.114  0.0000E+00  0.6400E+02
     10.232  0.0000E+00  0.6400E+02
     10.350  0.0000E+00  0.6400E+02
     10.468  0.0000E+00  0.6400E+02
     10.586  0.0000E+00  0.6400E+02
     10.704  0.0000E+00  0.6400E+02
     10.822  0.0000E+00  0.6400E+02
     10.940  0.0000E+00  0.6400E+02
     11.058  0.0000E+00  0.6400E+02
     11.176  0.0000E+00  0.6400E+02
     11.294  0.0000E+00  0.6400E+02
     11.412  0.0000E+00  0.6400E+02
     11.530  0.0000E+00  0.6400E+02
     11.648  0.0000E+00  0.6400E+02
     11.766  0.0000E+00  0.6400E+02
     11.884  0.0000E+00  0.6400E+02
     12.002  0.0000E+00  0.6400E+02
     12.120  0.0000E+00  0.6400E+02
     12.238  0.0000E+00  0.6400E+02
     12.356  0.0000E+00  0.6400E+02
     12.474  0.0000E+00  0.6400E+02
     12.592  0.0000E+00  0.6400E+02
     12.710  0.0000E+00  0.6400E+02
     12.828  0.0000E+00  0.6400E+02
     12.946  0.0000E+00  0.6400E+02
     13.064  0.0000E+00  0.6400E+02
     13.182  0.0000E+00  0.6400E+02
     13.300  0.0000E+00  0.6400E+02
     13.418  0.0000E+00  0.6400E+02
     13.536  0.0000E+00  0.6400E+02
     13.654  0.0000E+00  0.6400E+02
     13.772  0.0000E+00  0.6400E+02
     13.890  0.1013E-01  0.6400E+02
     14.008  0.1270E+00  0.6401E+02
     14.126  0.4157E+00  0.6404E+02
     14.244  0.7818E+00  0.6411E+02
     14.362  0.1186E+01  0.6422E+02
     14.480  0.1492E+01  0.6438E+02
     14.598  0.1706E+01  0.6457E+02
     14.716  0.1936E+01  0.6479E+02
     14.834  0.2222E+01  0.6503E+02
     14.952  0.2707E+01  0.6532E+02
     15.070  0.3220E+01  0.6567E+02
     15.188  0.3568E+01  0.6607E+02
     15.306  0.3855E+01  0.6651E+02
     15.424  0.3919E+01  0.6697E+02
     15.542  0.3881E+01  0.6743E+02
     15.660  0.3778E+01  0.6790E+02
     15.779  0.3804E+01  0.6834E+02
     15.897  0.3683E+01  0.6878E+02
     16.015  0.3821E+01  0.6922E+02
     16.133  0.3609E+01  0.6966E+02
     16.251  0.4184E+01  0.7012E+02
     16.369  0.4319E+01  0.7062E+02
     16.487  0.5063E+01  0.7116E+02
     16.605  0.5436E+01  0.7181E+02
     16.723  0.5546E+01  0.7246E+02
     16.841  0.5691E+01  0.7311E+02
     16.959  0.5970E+01  0.7381E+02
     17.077  0.5866E+01  0.7451E+02
     17.195  0.6016E+01  0.7521E+02
     17.313  0.5754E+01  0.7590E+02
     17.431  0.6255E+01  0.7659E+02
     17.549  0.5566E+01  0.7726E+02
     17.667  0.5698E+01  0.7792E+02
     17.785  0.5220E+01  0.7857E+02
     17.903  0.4558E+01  0.7915E+02
     18.021  0.3987E+01  0.7965E+02
     18.139  0.3591E+01  0.8010E+02
     18.257  0.3411E+01  0.8051E+02
     18.375  0.3042E+01  0.8091E+02
     18.493  0.2583E+01  0.8125E+02
     18.611  0.1957E+01  0.8152E+02
     18.729  0.1390E+01  0.8172E+02
     18.847  0.9022E+00  0.8185E+02
     18.965  0.3609E+00  0.8192E+02
     19.083  0.2394E+00  0.8195E+02
     19.201  0.1520E+00  0.8198E+02
     19.319  0.8435E-01  0.8199E+02
     19.437  0.3651E-01  0.8200E+02
     19.555  0.8467E-02  0.8200E+02
     19.673  0.8320E-05  0.8200E+02
     19.791  0.0000E+00  0.8200E+02
     19.909  0.0000E+00  0.8200E+02
     20.027  0.0000E+00  0.8200E+02
     20.145  0.0000E+00  0.8200E+02
     20.263  0.0000E+00  0.8200E+02
     20.381  0.0000E+00  0.8200E+02
     20.499  0.0000E+00  0.8200E+02
     20.617  0.0000E+00  0.8200E+02
     20.735  0.0000E+00  0.8200E+02
     20.853  0.0000E+00  0.8200E+02
     20.971  0.0000E+00  0.8200E+02
     21.089  0.0000E+00  0.8200E+02
     21.207  0.0000E+00  0.8200E+02
     21.325  0.0000E+00  0.8200E+02
     21.443  0.0000E+00  0.8200E+02
     21.561  0.0000E+00  0.8200E+02
     21.679  0.0000E+00  0.8200E+02
