  32  32   0   0
  0.8951641E+01  0.4934311E-09  0.4934311E-09  0.1358600E-08  0.5000000E-15
  1.000000000000000E-004
  CAR 
 graphite                                
     15.38703786    -17.04644157  301      4.56069630      1.00000000
    -17.046  0.0000E+00  0.0000E+00
    -16.938  0.0000E+00  0.0000E+00
    -16.830  0.0000E+00  0.0000E+00
    -16.722  0.0000E+00  0.0000E+00
    -16.614  0.0000E+00  0.0000E+00
    -16.506  0.0000E+00  0.0000E+00
    -16.398  0.0000E+00  0.0000E+00
    -16.290  0.0000E+00  0.0000E+00
    -16.182  0.0000E+00  0.0000E+00
    -16.073  0.0000E+00  0.0000E+00
    -15.965  0.0000E+00  0.0000E+00
    -15.857  0.0000E+00  0.0000E+00
    -15.749  0.0000E+00  0.0000E+00
    -15.641  0.0000E+00  0.0000E+00
    -15.533  0.0000E+00  0.0000E+00
    -15.425  0.0000E+00  0.0000E+00
    -15.317  0.0000E+00  0.0000E+00
    -15.209  0.0000E+00  0.0000E+00
    -15.100  0.0000E+00  0.0000E+00
    -14.992  0.1135E+01  0.2370E-01
    -14.884  0.2522E+01  0.2323E+00
    -14.776  0.4173E+01  0.5893E+00
    -14.668  0.4807E+01  0.1107E+01
    -14.560  0.5029E+01  0.1642E+01
    -14.452  0.4909E+01  0.2175E+01
    -14.344  0.4954E+01  0.2709E+01
    -14.236  0.4913E+01  0.3242E+01
    -14.127  0.4983E+01  0.3778E+01
    -14.019  0.4985E+01  0.4316E+01
    -13.911  0.5007E+01  0.4856E+01
    -13.803  0.5627E+01  0.5426E+01
    -13.695  0.5902E+01  0.6054E+01
    -13.587  0.6812E+01  0.6766E+01
    -13.479  0.4592E+01  0.7357E+01
    -13.371  0.1792E+01  0.7722E+01
    -13.263  0.3331E+01  0.7967E+01
    -13.154  0.4257E+01  0.8411E+01
    -13.046  0.4628E+01  0.8895E+01
    -12.938  0.5923E+01  0.9640E+01
    -12.830  0.6724E+01  0.1034E+02
    -12.722  0.4356E+01  0.1089E+02
    -12.614  0.4530E+01  0.1137E+02
    -12.506  0.4664E+01  0.1187E+02
    -12.398  0.4780E+01  0.1238E+02
    -12.290  0.5145E+01  0.1292E+02
    -12.181  0.5491E+01  0.1349E+02
    -12.073  0.5674E+01  0.1412E+02
    -11.965  0.5527E+01  0.1472E+02
    -11.857  0.5137E+01  0.1529E+02
    -11.749  0.4948E+01  0.1583E+02
    -11.641  0.4929E+01  0.1636E+02
    -11.533  0.5026E+01  0.1690E+02
    -11.425  0.5085E+01  0.1745E+02
    -11.317  0.5225E+01  0.1800E+02
    -11.208  0.5500E+01  0.1858E+02
    -11.100  0.5908E+01  0.1919E+02
    -10.992  0.5795E+01  0.1983E+02
    -10.884  0.5746E+01  0.2045E+02
    -10.776  0.5804E+01  0.2107E+02
    -10.668  0.5344E+01  0.2169E+02
    -10.560  0.4541E+01  0.2221E+02
    -10.452  0.5147E+01  0.2274E+02
    -10.344  0.5344E+01  0.2331E+02
    -10.235  0.5444E+01  0.2389E+02
    -10.127  0.5643E+01  0.2449E+02
    -10.019  0.5893E+01  0.2511E+02
     -9.911  0.7283E+01  0.2581E+02
     -9.803  0.1063E+02  0.2676E+02
     -9.695  0.7175E+01  0.2772E+02
     -9.587  0.6615E+01  0.2837E+02
     -9.479  0.5961E+01  0.2909E+02
     -9.371  0.3639E+01  0.2962E+02
     -9.262  0.3268E+01  0.2999E+02
     -9.154  0.2897E+01  0.3032E+02
     -9.046  0.2525E+01  0.3062E+02
     -8.938  0.2396E+01  0.3087E+02
     -8.830  0.3100E+01  0.3119E+02
     -8.722  0.2035E+01  0.3147E+02
     -8.614  0.1531E+01  0.3163E+02
     -8.506  0.2421E+01  0.3184E+02
     -8.398  0.5998E+01  0.3223E+02
     -8.289  0.4542E+01  0.3299E+02
     -8.181  0.3881E+01  0.3343E+02
     -8.073  0.4213E+01  0.3387E+02
     -7.965  0.6733E+01  0.3447E+02
     -7.857  0.6183E+01  0.3526E+02
     -7.749  0.7248E+01  0.3598E+02
     -7.641  0.8346E+01  0.3683E+02
     -7.533  0.8312E+01  0.3777E+02
     -7.425  0.6326E+01  0.3855E+02
     -7.316  0.6063E+01  0.3922E+02
     -7.208  0.5803E+01  0.3986E+02
     -7.100  0.5567E+01  0.4047E+02
     -6.992  0.5372E+01  0.4106E+02
     -6.884  0.5192E+01  0.4163E+02
     -6.776  0.4998E+01  0.4218E+02
     -6.668  0.4857E+01  0.4271E+02
     -6.560  0.4829E+01  0.4324E+02
     -6.452  0.4799E+01  0.4376E+02
     -6.343  0.4655E+01  0.4427E+02
     -6.235  0.4435E+01  0.4477E+02
     -6.127  0.4381E+01  0.4524E+02
     -6.019  0.4065E+01  0.4565E+02
     -5.911  0.4215E+01  0.4609E+02
     -5.803  0.4848E+01  0.4658E+02
     -5.695  0.5645E+01  0.4715E+02
     -5.587  0.6439E+01  0.4780E+02
     -5.479  0.9843E+01  0.4867E+02
     -5.370  0.8912E+01  0.4975E+02
     -5.262  0.6604E+01  0.5059E+02
     -5.154  0.4297E+01  0.5118E+02
     -5.046  0.2620E+01  0.5153E+02
     -4.938  0.2928E+01  0.5182E+02
     -4.830  0.4135E+01  0.5220E+02
     -4.722  0.5468E+01  0.5272E+02
     -4.614  0.7015E+01  0.5339E+02
     -4.505  0.8141E+01  0.5423E+02
     -4.397  0.6994E+01  0.5505E+02
     -4.289  0.5735E+01  0.5574E+02
     -4.181  0.6619E+01  0.5637E+02
     -4.073  0.7355E+01  0.5717E+02
     -3.965  0.6834E+01  0.5794E+02
     -3.857  0.6350E+01  0.5865E+02
     -3.749  0.6458E+01  0.5935E+02
     -3.641  0.7230E+01  0.6003E+02
     -3.532  0.1246E+02  0.6115E+02
     -3.424  0.8805E+01  0.6224E+02
     -3.316  0.7930E+01  0.6315E+02
     -3.208  0.7303E+01  0.6397E+02
     -3.100  0.6798E+01  0.6472E+02
     -2.992  0.7532E+01  0.6549E+02
     -2.884  0.8593E+01  0.6636E+02
     -2.776  0.1033E+02  0.6736E+02
     -2.668  0.1429E+02  0.6870E+02
     -2.559  0.1258E+02  0.7023E+02
     -2.451  0.1155E+02  0.7149E+02
     -2.343  0.1270E+02  0.7284E+02
     -2.235  0.1393E+02  0.7420E+02
     -2.127  0.1362E+02  0.7578E+02
     -2.019  0.1496E+02  0.7723E+02
     -1.911  0.1271E+02  0.7906E+02
     -1.803  0.1336E+02  0.8030E+02
     -1.695  0.1639E+02  0.8237E+02
     -1.586  0.1836E+02  0.8431E+02
     -1.478  0.1488E+02  0.8616E+02
     -1.370  0.1220E+02  0.8763E+02
     -1.262  0.1059E+02  0.8885E+02
     -1.154  0.8995E+01  0.8994E+02
     -1.046  0.7559E+01  0.9085E+02
     -0.938  0.1078E+02  0.9182E+02
     -0.830  0.1343E+02  0.9318E+02
     -0.722  0.1621E+02  0.9463E+02
     -0.613  0.9101E+01  0.9612E+02
     -0.505  0.9763E+01  0.9711E+02
     -0.397  0.1087E+02  0.9822E+02
     -0.289  0.1047E+02  0.9936E+02
     -0.181  0.1118E+02  0.1005E+03
     -0.073  0.9539E+01  0.1016E+03
      0.035  0.9226E+01  0.1026E+03
      0.143  0.1015E+02  0.1037E+03
      0.251  0.9769E+01  0.1048E+03
      0.360  0.9331E+01  0.1058E+03
      0.468  0.9239E+01  0.1068E+03
      0.576  0.9465E+01  0.1078E+03
      0.684  0.9398E+01  0.1088E+03
      0.792  0.9267E+01  0.1098E+03
      0.900  0.9393E+01  0.1109E+03
      1.008  0.9115E+01  0.1118E+03
      1.116  0.9490E+01  0.1129E+03
      1.224  0.9602E+01  0.1139E+03
      1.333  0.9721E+01  0.1149E+03
      1.441  0.9936E+01  0.1160E+03
      1.549  0.7313E+01  0.1169E+03
      1.657  0.6615E+01  0.1177E+03
      1.765  0.6248E+01  0.1184E+03
      1.873  0.4989E+01  0.1189E+03
      1.981  0.3804E+01  0.1194E+03
      2.089  0.4227E+01  0.1198E+03
      2.197  0.6824E+01  0.1204E+03
      2.306  0.8562E+01  0.1213E+03
      2.414  0.5480E+01  0.1222E+03
      2.522  0.8605E+01  0.1229E+03
      2.630  0.6822E+01  0.1238E+03
      2.738  0.5258E+01  0.1244E+03
      2.846  0.4407E+01  0.1250E+03
      2.954  0.3749E+01  0.1254E+03
      3.062  0.3294E+01  0.1258E+03
      3.170  0.3144E+01  0.1261E+03
      3.279  0.2838E+01  0.1264E+03
      3.387  0.2439E+01  0.1267E+03
      3.495  0.2068E+01  0.1270E+03
      3.603  0.1834E+01  0.1272E+03
      3.711  0.1596E+01  0.1274E+03
      3.819  0.1355E+01  0.1275E+03
      3.927  0.1120E+01  0.1277E+03
      4.035  0.9254E+00  0.1278E+03
      4.143  0.7054E+00  0.1279E+03
      4.252  0.5030E+00  0.1279E+03
      4.360  0.3140E+00  0.1280E+03
      4.468  0.1359E+00  0.1280E+03
      4.576  0.8676E-02  0.1280E+03
      4.684  0.1324E+00  0.1280E+03
      4.792  0.2677E+00  0.1280E+03
      4.900  0.4166E+00  0.1281E+03
      5.008  0.5823E+00  0.1281E+03
      5.116  0.7710E+00  0.1282E+03
      5.225  0.1002E+01  0.1283E+03
      5.333  0.1373E+01  0.1284E+03
      5.441  0.1749E+01  0.1286E+03
      5.549  0.2088E+01  0.1288E+03
      5.657  0.2471E+01  0.1290E+03
      5.765  0.3222E+01  0.1293E+03
      5.873  0.3432E+01  0.1297E+03
      5.981  0.4398E+01  0.1301E+03
      6.089  0.7353E+01  0.1308E+03
      6.198  0.8177E+01  0.1318E+03
      6.306  0.8280E+01  0.1327E+03
      6.414  0.7988E+01  0.1336E+03
      6.522  0.7595E+01  0.1345E+03
      6.630  0.6315E+01  0.1352E+03
      6.738  0.6078E+01  0.1358E+03
      6.846  0.5588E+01  0.1365E+03
      6.954  0.4900E+01  0.1371E+03
      7.062  0.4301E+01  0.1376E+03
      7.171  0.3644E+01  0.1380E+03
      7.279  0.3578E+01  0.1384E+03
      7.387  0.3917E+01  0.1388E+03
      7.495  0.4428E+01  0.1392E+03
      7.603  0.4669E+01  0.1397E+03
      7.711  0.4700E+01  0.1402E+03
      7.819  0.4536E+01  0.1407E+03
      7.927  0.4380E+01  0.1412E+03
      8.035  0.4221E+01  0.1417E+03
      8.144  0.4048E+01  0.1421E+03
      8.252  0.3861E+01  0.1426E+03
      8.360  0.3719E+01  0.1430E+03
      8.468  0.3604E+01  0.1434E+03
      8.576  0.3526E+01  0.1437E+03
      8.684  0.3442E+01  0.1441E+03
      8.792  0.3347E+01  0.1445E+03
      8.900  0.3555E+01  0.1449E+03
      9.008  0.3757E+01  0.1453E+03
      9.117  0.3921E+01  0.1457E+03
      9.225  0.4080E+01  0.1461E+03
      9.333  0.4165E+01  0.1465E+03
      9.441  0.4065E+01  0.1470E+03
      9.549  0.3971E+01  0.1474E+03
      9.657  0.3959E+01  0.1479E+03
      9.765  0.3938E+01  0.1483E+03
      9.873  0.3958E+01  0.1487E+03
      9.981  0.3973E+01  0.1491E+03
     10.090  0.4030E+01  0.1496E+03
     10.198  0.4096E+01  0.1500E+03
     10.306  0.4244E+01  0.1505E+03
     10.414  0.4301E+01  0.1509E+03
     10.522  0.5443E+01  0.1514E+03
     10.630  0.5506E+01  0.1520E+03
     10.738  0.5364E+01  0.1526E+03
     10.846  0.4500E+01  0.1532E+03
     10.954  0.4467E+01  0.1536E+03
     11.063  0.3897E+01  0.1542E+03
     11.171  0.3465E+01  0.1546E+03
     11.279  0.3661E+01  0.1549E+03
     11.387  0.4362E+01  0.1554E+03
     11.495  0.3331E+01  0.1558E+03
     11.603  0.2430E+01  0.1561E+03
     11.711  0.3479E+01  0.1564E+03
     11.819  0.6341E+01  0.1569E+03
     11.927  0.6987E+01  0.1576E+03
     12.036  0.1062E+02  0.1586E+03
     12.144  0.1292E+02  0.1598E+03
     12.252  0.1394E+02  0.1613E+03
     12.360  0.1364E+02  0.1629E+03
     12.468  0.1052E+02  0.1642E+03
     12.576  0.7760E+01  0.1652E+03
     12.684  0.6299E+01  0.1659E+03
     12.792  0.5508E+01  0.1666E+03
     12.900  0.5485E+01  0.1672E+03
     13.009  0.3000E+01  0.1676E+03
     13.117  0.1705E+01  0.1679E+03
     13.225  0.5534E+00  0.1680E+03
     13.333  0.4710E-02  0.1680E+03
     13.441  0.0000E+00  0.1680E+03
     13.549  0.0000E+00  0.1680E+03
     13.657  0.0000E+00  0.1680E+03
     13.765  0.0000E+00  0.1680E+03
     13.873  0.0000E+00  0.1680E+03
     13.982  0.0000E+00  0.1680E+03
     14.090  0.0000E+00  0.1680E+03
     14.198  0.0000E+00  0.1680E+03
     14.306  0.0000E+00  0.1680E+03
     14.414  0.0000E+00  0.1680E+03
     14.522  0.0000E+00  0.1680E+03
     14.630  0.0000E+00  0.1680E+03
     14.738  0.0000E+00  0.1680E+03
     14.846  0.0000E+00  0.1680E+03
     14.955  0.0000E+00  0.1680E+03
     15.063  0.0000E+00  0.1680E+03
     15.171  0.0000E+00  0.1680E+03
     15.279  0.0000E+00  0.1680E+03
     15.387  0.0000E+00  0.1680E+03
