  32  32   0   0
  0.4431505E+01  0.4934311E-09  0.4934311E-09  0.6725742E-09  0.5000000E-15
  1.000000000000000E-004
  CAR 
 graphite                                
     25.84724584    -13.32859617  301     15.61217695      1.00000000
    -13.329  0.0000E+00  0.0000E+00
    -13.198  0.0000E+00  0.0000E+00
    -13.067  0.0000E+00  0.0000E+00
    -12.937  0.0000E+00  0.0000E+00
    -12.806  0.0000E+00  0.0000E+00
    -12.676  0.0000E+00  0.0000E+00
    -12.545  0.0000E+00  0.0000E+00
    -12.414  0.0000E+00  0.0000E+00
    -12.284  0.0000E+00  0.0000E+00
    -12.153  0.0000E+00  0.0000E+00
    -12.023  0.0000E+00  0.0000E+00
    -11.892  0.0000E+00  0.0000E+00
    -11.762  0.0000E+00  0.0000E+00
    -11.631  0.0000E+00  0.0000E+00
    -11.500  0.0000E+00  0.0000E+00
    -11.370  0.0000E+00  0.0000E+00
    -11.239  0.2503E+00  0.8275E-02
    -11.109  0.6099E+00  0.6641E-01
    -10.978  0.7575E+00  0.1556E+00
    -10.847  0.8926E+00  0.2627E+00
    -10.717  0.1061E+01  0.3909E+00
    -10.586  0.1160E+01  0.5372E+00
    -10.456  0.1260E+01  0.6951E+00
    -10.325  0.1364E+01  0.8666E+00
    -10.195  0.1440E+01  0.1050E+01
    -10.064  0.1535E+01  0.1243E+01
     -9.933  0.1724E+01  0.1457E+01
     -9.803  0.1862E+01  0.1688E+01
     -9.672  0.1880E+01  0.1938E+01
     -9.542  0.1722E+01  0.2166E+01
     -9.411  0.2128E+01  0.2415E+01
     -9.280  0.2238E+01  0.2706E+01
     -9.150  0.2487E+01  0.2997E+01
     -9.019  0.2733E+01  0.3354E+01
     -8.889  0.1695E+01  0.3626E+01
     -8.758  0.1358E+01  0.3809E+01
     -8.627  0.1694E+01  0.4007E+01
     -8.497  0.2383E+01  0.4262E+01
     -8.366  0.3065E+01  0.4630E+01
     -8.236  0.2643E+01  0.5017E+01
     -8.105  0.2548E+01  0.5347E+01
     -7.975  0.2535E+01  0.5678E+01
     -7.844  0.2573E+01  0.6012E+01
     -7.713  0.2992E+01  0.6363E+01
     -7.583  0.3120E+01  0.6763E+01
     -7.452  0.3357E+01  0.7189E+01
     -7.322  0.3193E+01  0.7621E+01
     -7.191  0.2904E+01  0.8019E+01
     -7.060  0.2560E+01  0.8373E+01
     -6.930  0.2548E+01  0.8704E+01
     -6.799  0.2681E+01  0.9043E+01
     -6.669  0.3313E+01  0.9428E+01
     -6.538  0.3365E+01  0.9862E+01
     -6.408  0.3814E+01  0.1033E+02
     -6.277  0.3704E+01  0.1083E+02
     -6.146  0.3352E+01  0.1129E+02
     -6.016  0.3341E+01  0.1172E+02
     -5.885  0.3232E+01  0.1216E+02
     -5.755  0.3658E+01  0.1260E+02
     -5.624  0.3692E+01  0.1309E+02
     -5.493  0.3616E+01  0.1356E+02
     -5.363  0.3532E+01  0.1403E+02
     -5.232  0.3814E+01  0.1452E+02
     -5.102  0.3718E+01  0.1502E+02
     -4.971  0.3554E+01  0.1549E+02
     -4.840  0.3826E+01  0.1597E+02
     -4.710  0.4173E+01  0.1650E+02
     -4.579  0.4376E+01  0.1705E+02
     -4.449  0.4572E+01  0.1764E+02
     -4.318  0.4957E+01  0.1826E+02
     -4.188  0.4595E+01  0.1891E+02
     -4.057  0.3008E+01  0.1941E+02
     -3.926  0.1968E+01  0.1971E+02
     -3.796  0.1361E+01  0.1994E+02
     -3.665  0.1299E+01  0.2011E+02
     -3.535  0.1727E+01  0.2030E+02
     -3.404  0.3630E+01  0.2066E+02
     -3.273  0.5404E+01  0.2122E+02
     -3.143  0.5887E+01  0.2196E+02
     -3.012  0.5774E+01  0.2271E+02
     -2.882  0.4799E+01  0.2342E+02
     -2.751  0.4202E+01  0.2400E+02
     -2.621  0.3940E+01  0.2453E+02
     -2.490  0.3723E+01  0.2504E+02
     -2.359  0.3967E+01  0.2553E+02
     -2.229  0.4288E+01  0.2608E+02
     -2.098  0.4529E+01  0.2664E+02
     -1.968  0.4270E+01  0.2721E+02
     -1.837  0.4481E+01  0.2777E+02
     -1.706  0.4462E+01  0.2836E+02
     -1.576  0.5083E+01  0.2900E+02
     -1.445  0.5042E+01  0.2965E+02
     -1.315  0.5178E+01  0.3032E+02
     -1.184  0.5016E+01  0.3099E+02
     -1.053  0.4799E+01  0.3164E+02
     -0.923  0.4089E+01  0.3222E+02
     -0.792  0.4061E+01  0.3274E+02
     -0.662  0.4575E+01  0.3329E+02
     -0.531  0.5450E+01  0.3395E+02
     -0.401  0.5614E+01  0.3468E+02
     -0.270  0.5835E+01  0.3542E+02
     -0.139  0.6209E+01  0.3620E+02
     -0.009  0.6422E+01  0.3704E+02
      0.122  0.6171E+01  0.3787E+02
      0.252  0.6214E+01  0.3867E+02
      0.383  0.6065E+01  0.3948E+02
      0.514  0.5678E+01  0.4025E+02
      0.644  0.4985E+01  0.4095E+02
      0.775  0.4273E+01  0.4156E+02
      0.905  0.3894E+01  0.4210E+02
      1.036  0.3732E+01  0.4257E+02
      1.166  0.4444E+01  0.4312E+02
      1.297  0.4601E+01  0.4370E+02
      1.428  0.6077E+01  0.4441E+02
      1.558  0.6465E+01  0.4526E+02
      1.689  0.6152E+01  0.4609E+02
      1.819  0.6274E+01  0.4689E+02
      1.950  0.6395E+01  0.4772E+02
      2.081  0.5883E+01  0.4852E+02
      2.211  0.6253E+01  0.4930E+02
      2.342  0.6219E+01  0.5012E+02
      2.472  0.5736E+01  0.5090E+02
      2.603  0.6544E+01  0.5168E+02
      2.733  0.6238E+01  0.5254E+02
      2.864  0.7540E+01  0.5343E+02
      2.995  0.8116E+01  0.5445E+02
      3.125  0.7713E+01  0.5552E+02
      3.256  0.5657E+01  0.5635E+02
      3.386  0.5453E+01  0.5705E+02
      3.517  0.6101E+01  0.5781E+02
      3.648  0.7390E+01  0.5868E+02
      3.778  0.8286E+01  0.5968E+02
      3.909  0.8389E+01  0.6076E+02
      4.039  0.9310E+01  0.6193E+02
      4.170  0.9905E+01  0.6316E+02
      4.301  0.7121E+01  0.6429E+02
      4.431  0.7445E+01  0.6515E+02
      4.562  0.1024E+02  0.6635E+02
      4.692  0.9770E+01  0.6761E+02
      4.823  0.8942E+01  0.6886E+02
      4.953  0.7893E+01  0.6993E+02
      5.084  0.7641E+01  0.7091E+02
      5.215  0.8536E+01  0.7199E+02
      5.345  0.6272E+01  0.7296E+02
      5.476  0.6203E+01  0.7376E+02
      5.606  0.6683E+01  0.7463E+02
      5.737  0.6788E+01  0.7551E+02
      5.868  0.7088E+01  0.7641E+02
      5.998  0.7358E+01  0.7736E+02
      6.129  0.7601E+01  0.7833E+02
      6.259  0.7049E+01  0.7930E+02
      6.390  0.7569E+01  0.8027E+02
      6.520  0.7598E+01  0.8128E+02
      6.651  0.8751E+01  0.8241E+02
      6.782  0.6005E+01  0.8344E+02
      6.912  0.5496E+01  0.8417E+02
      7.043  0.6453E+01  0.8494E+02
      7.173  0.7741E+01  0.8587E+02
      7.304  0.8006E+01  0.8686E+02
      7.435  0.8047E+01  0.8791E+02
      7.565  0.6452E+01  0.8892E+02
      7.696  0.5489E+01  0.8964E+02
      7.826  0.7134E+01  0.9047E+02
      7.957  0.8121E+01  0.9153E+02
      8.088  0.7154E+01  0.9252E+02
      8.218  0.6578E+01  0.9343E+02
      8.349  0.6243E+01  0.9424E+02
      8.479  0.6848E+01  0.9509E+02
      8.610  0.6131E+01  0.9596E+02
      8.740  0.5634E+01  0.9673E+02
      8.871  0.6018E+01  0.9747E+02
      9.002  0.7203E+01  0.9834E+02
      9.132  0.7353E+01  0.9931E+02
      9.263  0.6392E+01  0.1002E+03
      9.393  0.6277E+01  0.1010E+03
      9.524  0.6061E+01  0.1018E+03
      9.655  0.6041E+01  0.1026E+03
      9.785  0.5648E+01  0.1034E+03
      9.916  0.5062E+01  0.1041E+03
     10.046  0.4374E+01  0.1047E+03
     10.177  0.4821E+01  0.1053E+03
     10.307  0.5483E+01  0.1060E+03
     10.438  0.5181E+01  0.1067E+03
     10.569  0.5553E+01  0.1074E+03
     10.699  0.5200E+01  0.1081E+03
     10.830  0.3908E+01  0.1087E+03
     10.960  0.3365E+01  0.1092E+03
     11.091  0.2589E+01  0.1095E+03
     11.222  0.2170E+01  0.1099E+03
     11.352  0.2233E+01  0.1101E+03
     11.483  0.2403E+01  0.1104E+03
     11.613  0.2675E+01  0.1108E+03
     11.744  0.2851E+01  0.1111E+03
     11.875  0.3005E+01  0.1115E+03
     12.005  0.3133E+01  0.1119E+03
     12.136  0.3122E+01  0.1123E+03
     12.266  0.2898E+01  0.1127E+03
     12.397  0.2724E+01  0.1131E+03
     12.527  0.3029E+01  0.1135E+03
     12.658  0.3515E+01  0.1139E+03
     12.789  0.3551E+01  0.1143E+03
     12.919  0.3957E+01  0.1148E+03
     13.050  0.4646E+01  0.1154E+03
     13.180  0.3907E+01  0.1159E+03
     13.311  0.3887E+01  0.1164E+03
     13.442  0.3440E+01  0.1169E+03
     13.572  0.3228E+01  0.1174E+03
     13.703  0.2857E+01  0.1178E+03
     13.833  0.2909E+01  0.1181E+03
     13.964  0.3259E+01  0.1185E+03
     14.094  0.3973E+01  0.1190E+03
     14.225  0.4896E+01  0.1196E+03
     14.356  0.5533E+01  0.1203E+03
     14.486  0.5829E+01  0.1210E+03
     14.617  0.5439E+01  0.1217E+03
     14.747  0.5231E+01  0.1225E+03
     14.878  0.5527E+01  0.1232E+03
     15.009  0.5278E+01  0.1239E+03
     15.139  0.4109E+01  0.1245E+03
     15.270  0.4552E+01  0.1250E+03
     15.400  0.8231E+01  0.1258E+03
     15.531  0.1055E+02  0.1272E+03
     15.662  0.8042E+01  0.1284E+03
     15.792  0.7668E+01  0.1294E+03
     15.923  0.9050E+01  0.1305E+03
     16.053  0.1110E+02  0.1318E+03
     16.184  0.9450E+01  0.1331E+03
     16.314  0.9308E+01  0.1343E+03
     16.445  0.1050E+02  0.1356E+03
     16.576  0.9493E+01  0.1370E+03
     16.706  0.8489E+01  0.1381E+03
     16.837  0.8064E+01  0.1392E+03
     16.967  0.9519E+01  0.1404E+03
     17.098  0.1087E+02  0.1416E+03
     17.229  0.1017E+02  0.1430E+03
     17.359  0.7968E+01  0.1442E+03
     17.490  0.6955E+01  0.1451E+03
     17.620  0.7238E+01  0.1460E+03
     17.751  0.6652E+01  0.1470E+03
     17.881  0.6015E+01  0.1478E+03
     18.012  0.6424E+01  0.1486E+03
     18.143  0.6567E+01  0.1495E+03
     18.273  0.6116E+01  0.1503E+03
     18.404  0.6097E+01  0.1511E+03
     18.534  0.5897E+01  0.1518E+03
     18.665  0.5704E+01  0.1526E+03
     18.796  0.7611E+01  0.1536E+03
     18.926  0.5068E+01  0.1543E+03
     19.057  0.4697E+01  0.1550E+03
     19.187  0.4183E+01  0.1555E+03
     19.318  0.3803E+01  0.1561E+03
     19.449  0.3790E+01  0.1565E+03
     19.579  0.3492E+01  0.1570E+03
     19.710  0.3031E+01  0.1575E+03
     19.840  0.2458E+01  0.1578E+03
     19.971  0.2257E+01  0.1581E+03
     20.101  0.2187E+01  0.1584E+03
     20.232  0.2338E+01  0.1587E+03
     20.363  0.2219E+01  0.1590E+03
     20.493  0.2279E+01  0.1593E+03
     20.624  0.2882E+01  0.1596E+03
     20.754  0.3368E+01  0.1600E+03
     20.885  0.3757E+01  0.1605E+03
     21.016  0.3914E+01  0.1610E+03
     21.146  0.3448E+01  0.1615E+03
     21.277  0.2680E+01  0.1619E+03
     21.407  0.2447E+01  0.1622E+03
     21.538  0.2529E+01  0.1625E+03
     21.668  0.2604E+01  0.1629E+03
     21.799  0.2606E+01  0.1632E+03
     21.930  0.2579E+01  0.1635E+03
     22.060  0.2718E+01  0.1639E+03
     22.191  0.2913E+01  0.1642E+03
     22.321  0.3147E+01  0.1646E+03
     22.452  0.3384E+01  0.1651E+03
     22.583  0.3827E+01  0.1655E+03
     22.713  0.4273E+01  0.1661E+03
     22.844  0.4497E+01  0.1667E+03
     22.974  0.3346E+01  0.1672E+03
     23.105  0.2451E+01  0.1675E+03
     23.236  0.1163E+01  0.1678E+03
     23.366  0.7081E+00  0.1679E+03
     23.497  0.3916E+00  0.1680E+03
     23.627  0.1429E+00  0.1680E+03
     23.758  0.1475E-01  0.1680E+03
     23.888  0.0000E+00  0.1680E+03
     24.019  0.0000E+00  0.1680E+03
     24.150  0.0000E+00  0.1680E+03
     24.280  0.0000E+00  0.1680E+03
     24.411  0.0000E+00  0.1680E+03
     24.541  0.0000E+00  0.1680E+03
     24.672  0.0000E+00  0.1680E+03
     24.803  0.0000E+00  0.1680E+03
     24.933  0.0000E+00  0.1680E+03
     25.064  0.0000E+00  0.1680E+03
     25.194  0.0000E+00  0.1680E+03
     25.325  0.0000E+00  0.1680E+03
     25.455  0.0000E+00  0.1680E+03
     25.586  0.0000E+00  0.1680E+03
     25.717  0.0000E+00  0.1680E+03
     25.847  0.0000E+00  0.1680E+03
