   32   32    1    1
  0.4431505E+01  0.4934311E-09  0.4934311E-09  0.6725742E-09  0.5000000E-15
  1.000000000000000E-004
  CAR 
 graphite                                
    128    163     84
 
  0.0000000E+00  0.0000000E+00  0.0000000E+00  0.3086420E-02
    1      -11.328596
    2       -8.653100
    3       -8.645554
    4       -5.674947
    5       -5.672241
    6       -5.668613
    7       -4.321243
    8       -4.318510
    9       -4.315586
   10       -3.163222
   11       -3.159682
   12       -3.155650
   13       -3.154353
   14       -3.151231
   15       -3.147107
   16       -1.673205
   17       -1.666625
   18       -1.664351
   19       -1.663830
   20       -1.661777
   21       -1.655029
   22       -0.800128
   23       -0.724772
   24        3.735530
   25        3.738114
   26        3.740153
   27        3.897859
   28        3.900273
   29        3.901191
   30        4.073479
   31        4.076290
   32        4.080280
   33        4.378270
   34        4.380565
   35        4.383890
   36        6.104663
   37        6.108225
   38        6.111173
   39        6.111852
   40        6.115812
   41        6.118908
   42        8.289521
   43        8.296996
   44        9.282094
   45        9.285455
   46        9.287069
   47        9.294951
   48        9.298425
   49        9.302065
   50        9.672319
   51        9.678438
   52        9.683120
   53        9.689801
   54       10.791644
   55       10.796044
   56       11.235324
   57       11.243552
   58       14.445958
   59       14.450060
   60       14.450823
   61       14.453007
   62       14.454097
   63       14.458198
   64       15.045831
   65       15.047756
   66       15.050885
   67       15.051518
   68       15.054130
   69       15.056866
   70       15.325796
   71       15.331568
   72       15.335537
   73       17.718615
   74       17.719317
   75       17.721075
   76       19.473829
   77       19.880653
   78       20.193450
   79       20.198806
   80       20.263407
   81       20.271321
   82       20.390715
   83       20.398366
   84       20.405386
 
  0.1111111E+00  0.0000000E+00  0.0000000E+00  0.6172840E-02
    1      -11.249731
    2       -8.574822
    3       -8.567278
    4       -6.451723
    5       -5.888997
    6       -5.885566
    7       -3.964474
    8       -3.961542
    9       -3.875734
   10       -3.868072
   11       -3.408867
   12       -3.348039
   13       -3.345373
   14       -3.340874
   15       -3.336428
   16       -1.347233
   17       -1.345159
   18       -1.342262
   19       -1.335643
   20       -0.830339
   21       -0.823132
   22       -0.712056
   23       -0.665522
   24        2.973348
   25        3.224831
   26        3.226769
   27        3.747518
   28        3.749198
   29        3.980969
   30        3.995316
   31        4.323138
   32        4.326408
   33        4.519164
   34        4.522090
   35        4.911261
   36        5.790120
   37        5.795194
   38        5.798894
   39        5.800932
   40        6.183650
   41        6.190977
   42        7.790178
   43        8.007384
   44        9.139330
   45        9.142644
   46        9.279061
   47        9.287564
   48        9.346856
   49        9.498563
   50        9.503704
   51        9.508393
   52        9.518359
   53        9.819544
   54       10.730308
   55       10.875930
   56       11.348749
   57       11.356761
   58       14.191866
   59       14.194601
   60       14.558125
   61       14.560116
   62       14.563469
   63       14.566360
   64       15.208984
   65       15.210236
   66       15.213465
   67       15.215023
   68       15.276569
   69       15.281256
   70       15.412608
   71       15.787771
   72       15.795028
   73       17.358166
   74       17.361004
   75       17.768862
   76       19.381409
   77       19.386664
   78       19.411317
   79       19.614621
   80       19.959757
   81       20.407741
   82       20.721882
   83       20.736396
   84       20.948925
 
  0.2222222E+00  0.0000000E+00  0.0000000E+00  0.6172840E-02
    1      -11.013053
    2       -8.340386
    3       -8.332849
    4       -7.534681
    5       -6.236035
    6       -6.233105
    7       -4.919843
    8       -4.912357
    9       -3.666928
   10       -3.664152
   11       -3.659366
   12       -3.655989
   13       -3.200236
   14       -3.197275
   15       -1.937557
   16       -0.632996
   17       -0.630254
   18       -0.627088
   19       -0.621799
   20       -0.488565
   21       -0.449360
   22        0.574127
   23        0.581228
   24        2.151812
   25        2.404553
   26        2.407446
   27        3.146842
   28        3.379736
   29        3.382108
   30        4.193712
   31        4.196100
   32        4.222093
   33        4.986444
   34        4.991150
   35        4.994674
   36        4.997232
   37        5.174578
   38        5.177324
   39        5.942263
   40        6.405648
   41        6.412951
   42        6.558528
   43        7.341974
   44        8.279049
   45        8.286961
   46        8.736941
   47        8.739957
   48        9.057609
   49        9.066228
   50        9.523363
   51       10.057429
   52       10.062289
   53       10.428572
   54       10.934131
   55       11.068659
   56       11.592965
   57       11.600732
   58       13.733791
   59       13.737677
   60       14.637055
   61       14.640982
   62       14.645938
   63       14.646998
   64       15.657017
   65       15.664316
   66       15.670671
   67       15.770661
   68       15.772683
   69       15.774496
   70       15.777125
   71       16.444047
   72       16.447520
   73       17.037314
   74       17.044264
   75       17.913170
   76       18.567672
   77       18.573641
   78       18.797065
   79       19.152888
   80       19.277091
   81       20.946859
   82       21.655516
   83       21.669443
   84       21.752174
 
  0.3333333E+00  0.0000000E+00  0.0000000E+00  0.6172840E-02
    1      -10.619536
    2       -8.520577
    3       -7.950940
    4       -7.943386
    5       -6.503682
    6       -6.500955
    7       -5.882851
    8       -5.875357
    9       -3.919508
   10       -3.916808
   11       -3.911888
   12       -3.908906
   13       -2.259090
   14       -2.256080
   15       -0.333395
   16       -0.196071
   17       -0.015667
   18        0.246717
   19        0.249641
   20        0.252879
   21        0.257940
   22        1.352207
   23        1.355237
   24        1.442483
   25        2.121247
   26        2.128256
   27        2.207492
   28        3.107991
   29        3.110593
   30        3.958578
   31        3.962693
   32        3.966343
   33        3.969102
   34        4.061888
   35        4.065130
   36        4.615193
   37        4.966130
   38        5.890522
   39        5.893435
   40        6.565136
   41        6.766702
   42        6.774247
   43        6.915859
   44        6.923268
   45        6.999090
   46        8.143175
   47        8.146027
   48        8.459416
   49        8.467601
   50        9.799211
   51        9.829266
   52       10.801285
   53       10.847887
   54       10.853270
   55       11.909903
   56       11.917413
   57       12.647478
   58       13.235354
   59       13.240537
   60       14.637104
   61       14.641802
   62       14.647483
   63       14.648365
   64       15.306259
   65       15.310423
   66       16.069263
   67       16.106388
   68       16.112955
   69       16.447268
   70       16.449270
   71       16.451059
   72       16.455444
   73       17.571754
   74       17.837608
   75       17.844155
   76       18.138925
   77       18.235186
   78       18.826477
   79       18.833095
   80       19.030771
   81       21.984945
   82       22.891896
   83       23.045768
   84       23.059306
 
  0.4444444E+00  0.0000000E+00  0.0000000E+00  0.6172840E-02
    1      -10.070792
    2       -9.369388
    3       -7.408685
    4       -7.401143
    5       -6.717427
    6       -6.709816
    7       -6.643262
    8       -6.640684
    9       -4.052627
   10       -4.049964
   11       -4.044991
   12       -4.042150
   13       -1.285909
   14       -1.282626
   15        0.205275
   16        0.290116
   17        0.292734
   18        0.582923
   19        0.653538
   20        1.097086
   21        1.099851
   22        1.102984
   23        1.108304
   24        1.333058
   25        1.545112
   26        2.974493
   27        2.977023
   28        3.007686
   29        3.010547
   30        3.014962
   31        3.016928
   32        3.235514
   33        3.736884
   34        3.743861
   35        3.982182
   36        3.985385
   37        5.152325
   38        5.361936
   39        5.368978
   40        5.813745
   41        6.629431
   42        6.632852
   43        7.250936
   44        7.258403
   45        7.449407
   46        7.451820
   47        7.831128
   48        7.839005
   49        8.037332
   50        9.003758
   51       10.144398
   52       10.505804
   53       11.604544
   54       11.611533
   55       12.296730
   56       12.303768
   57       12.745422
   58       12.751686
   59       14.343158
   60       14.351030
   61       14.353948
   62       14.625977
   63       14.630754
   64       14.636754
   65       14.637708
   66       16.039294
   67       16.610035
   68       16.616185
   69       16.645791
   70       16.878967
   71       16.881528
   72       16.883371
   73       16.888518
   74       17.185838
   75       17.192673
   76       17.376421
   77       18.423427
   78       18.733798
   79       20.953953
   80       20.960378
   81       23.282422
   82       23.289009
   83       23.469527
   84       23.655999
 
 -0.8470329E-21  0.1111111E+00  0.0000000E+00  0.6172840E-02
    1      -11.249729
    2       -8.574821
    3       -8.567276
    4       -6.451925
    5       -5.889074
    6       -5.885009
    7       -3.965681
    8       -3.961598
    9       -3.876024
   10       -3.868515
   11       -3.407742
   12       -3.348288
   13       -3.344278
   14       -3.340591
   15       -3.336313
   16       -1.349991
   17       -1.344587
   18       -1.342355
   19       -1.336899
   20       -0.828678
   21       -0.821898
   22       -0.712076
   23       -0.665558
   24        2.974360
   25        3.225110
   26        3.227874
   27        3.744926
   28        3.748781
   29        3.979234
   30        3.993924
   31        4.323728
   32        4.327525
   33        4.519149
   34        4.523431
   35        4.912373
   36        5.791860
   37        5.795220
   38        5.799213
   39        5.802611
   40        6.182310
   41        6.188421
   42        7.794511
   43        8.002986
   44        9.141073
   45        9.143313
   46        9.285814
   47        9.288324
   48        9.344942
   49        9.497545
   50        9.501045
   51        9.507933
   52        9.510658
   53        9.822290
   54       10.733493
   55       10.872588
   56       11.348991
   57       11.356991
   58       14.192616
   59       14.195073
   60       14.556705
   61       14.559872
   62       14.563331
   63       14.566554
   64       15.208690
   65       15.210609
   66       15.213867
   67       15.216347
   68       15.276195
   69       15.280247
   70       15.411334
   71       15.790641
   72       15.793488
   73       17.358214
   74       17.361832
   75       17.768225
   76       19.380142
   77       19.383193
   78       19.411015
   79       19.614895
   80       19.956447
   81       20.412212
   82       20.730161
   83       20.739301
   84       20.948392
 
  0.1111111E+00  0.1111111E+00  0.0000000E+00  0.6172840E-02
    1      -11.091941
    2       -8.418428
    3       -8.410887
    4       -6.946126
    5       -6.941714
    6       -5.467293
    7       -4.350613
    8       -4.343573
    9       -4.341745
   10       -4.336297
   11       -4.093672
   12       -2.961412
   13       -2.953816
   14       -2.649600
   15       -2.644984
   16       -1.452282
   17       -1.444960
   18       -0.547528
   19       -0.536992
   20       -0.110539
   21       -0.102380
   22       -0.101511
   23       -0.096150
   24        2.394549
   25        2.556563
   26        2.559434
   27        3.650402
   28        3.654671
   29        3.724217
   30        3.727858
   31        4.198359
   32        4.216916
   33        4.569110
   34        4.911030
   35        4.918163
   36        5.511381
   37        5.515540
   38        5.942732
   39        5.944612
   40        5.947754
   41        5.954284
   42        7.014572
   43        7.440977
   44        8.627384
   45        8.636131
   46        8.679991
   47        9.153978
   48        9.162527
   49        9.258461
   50        9.263574
   51        9.558075
   52       10.437836
   53       10.442644
   54       10.626094
   55       10.865187
   56       11.523288
   57       11.531099
   58       14.099765
   59       14.105423
   60       14.106567
   61       14.109575
   62       15.027865
   63       15.032348
   64       15.413398
   65       15.417811
   66       15.608220
   67       15.614044
   68       15.616831
   69       15.617920
   70       15.947817
   71       15.954534
   72       16.377341
   73       16.965498
   74       17.466508
   75       17.470231
   76       18.824399
   77       18.829621
   78       19.102033
   79       19.281857
   80       19.780771
   81       20.084999
   82       21.199565
   83       21.212145
   84       21.793820
 
  0.2222222E+00  0.1111111E+00  0.0000000E+00  0.6172840E-02
    1      -10.776858
    2       -8.106556
    3       -8.099078
    4       -7.986418
    5       -7.309641
    6       -5.468605
    7       -5.360329
    8       -5.352855
    9       -4.699969
   10       -4.692510
   11       -3.529518
   12       -2.943312
   13       -2.935843
   14       -1.748266
   15       -1.099679
   16       -0.936238
   17       -0.928954
   18       -0.312591
   19       -0.188433
   20        0.745385
   21        0.752050
   22        1.221682
   23        1.374773
   24        1.381774
   25        1.809210
   26        2.155731
   27        2.733366
   28        3.049408
   29        3.367954
   30        3.789021
   31        3.796104
   32        3.944763
   33        4.023460
   34        4.693211
   35        4.884495
   36        5.223245
   37        5.229388
   38        5.707502
   39        6.210473
   40        6.241673
   41        6.248863
   42        6.561703
   43        6.617624
   44        7.523085
   45        7.531597
   46        8.028331
   47        8.547976
   48        8.557376
   49        8.911404
   50        9.489754
   51       10.003094
   52       10.238020
   53       10.752701
   54       11.260242
   55       11.801720
   56       11.809397
   57       11.874917
   58       13.587309
   59       13.591777
   60       14.092751
   61       14.096492
   62       15.123315
   63       15.138929
   64       15.143769
   65       16.017660
   66       16.023649
   67       16.056810
   68       16.062207
   69       16.246583
   70       16.251039
   71       16.274527
   72       16.651217
   73       17.269924
   74       17.679788
   75       18.133033
   76       18.218773
   77       18.224660
   78       18.684630
   79       19.026376
   80       19.040366
   81       20.509101
   82       21.985014
   83       21.994764
   84       23.107044
 
  0.3333333E+00  0.1111111E+00  0.0000000E+00  0.6172840E-02
    1      -10.305683
    2       -8.905073
    3       -7.640625
    4       -7.633090
    5       -7.532750
    6       -6.260459
    7       -6.252952
    8       -5.595887
    9       -4.916453
   10       -4.908990
   11       -3.050465
   12       -3.043045
   13       -2.601806
   14       -0.771534
   15       -0.095612
   16       -0.088541
   17        0.000833
   18        0.035337
   19        0.327960
   20        0.474708
   21        1.229141
   22        1.526999
   23        1.639301
   24        1.645675
   25        1.818069
   26        2.497890
   27        2.648722
   28        2.655835
   29        2.950623
   30        2.957501
   31        3.183503
   32        3.774608
   33        4.091521
   34        4.316499
   35        4.322640
   36        4.485210
   37        4.731354
   38        5.637171
   39        5.810570
   40        6.117555
   41        6.125221
   42        6.675555
   43        6.682750
   44        6.931397
   45        7.268640
   46        7.617516
   47        7.871451
   48        7.880052
   49        8.370861
   50        9.533153
   51        9.804248
   52       10.509337
   53       10.713556
   54       12.127240
   55       12.158968
   56       12.166252
   57       13.070631
   58       13.076282
   59       13.516223
   60       13.895608
   61       14.073259
   62       14.077307
   63       15.166434
   64       15.170563
   65       15.688031
   66       16.503901
   67       16.510007
   68       16.536340
   69       16.542260
   70       16.756504
   71       16.787813
   72       16.889469
   73       16.894258
   74       17.624826
   75       17.631108
   76       17.974802
   77       18.172387
   78       18.693090
   79       19.120038
   80       20.748050
   81       21.586609
   82       22.911080
   83       22.916574
   84       23.686884
 
  0.4444444E+00  0.1111111E+00  0.0000000E+00  0.6172840E-02
    1       -9.682506
    2       -9.678594
    3       -7.607677
    4       -7.026916
    5       -7.020844
    6       -7.019057
    7       -7.012762
    8       -5.649733
    9       -4.989354
   10       -4.981890
   11       -3.098172
   12       -3.090758
   13       -1.856511
   14       -0.839552
   15       -0.064211
   16        0.478986
   17        0.481498
   18        0.499888
   19        0.506373
   20        0.882217
   21        1.000871
   22        1.005359
   23        1.958410
   24        1.964665
   25        2.190213
   26        2.196784
   27        2.352547
   28        2.378974
   29        2.383544
   30        3.119712
   31        3.716593
   32        3.746398
   33        3.753016
   34        4.552587
   35        4.560244
   36        4.563078
   37        4.564910
   38        4.736568
   39        5.085227
   40        5.091531
   41        6.321776
   42        6.576721
   43        7.227080
   44        7.230283
   45        7.230449
   46        7.243450
   47        7.505527
   48        7.851376
   49        8.627895
   50        8.632336
   51       10.162324
   52       10.169080
   53       11.202380
   54       12.581388
   55       12.588079
   56       12.591441
   57       12.594689
   58       12.606202
   59       13.231353
   60       14.062816
   61       14.067029
   62       15.164434
   63       15.174079
   64       15.177073
   65       15.198399
   66       15.203538
   67       16.680370
   68       16.686144
   69       17.057594
   70       17.060920
   71       17.062210
   72       17.069620
   73       17.160361
   74       17.165451
   75       17.393099
   76       17.397740
   77       18.324313
   78       18.327762
   79       21.207582
   80       21.404775
   81       22.941843
   82       23.062250
   83       23.071778
   84       23.091025
 
 -0.4444444E+00  0.1111111E+00  0.0000000E+00  0.6172840E-02
    1      -10.305769
    2       -8.904936
    3       -7.640796
    4       -7.633192
    5       -7.532856
    6       -6.260342
    7       -6.252815
    8       -5.595453
    9       -4.916683
   10       -4.909219
   11       -3.050000
   12       -3.042565
   13       -2.601158
   14       -0.772745
   15       -0.095001
   16       -0.088530
   17       -0.000467
   18        0.035338
   19        0.327831
   20        0.474418
   21        1.229248
   22        1.528759
   23        1.638162
   24        1.645347
   25        1.818264
   26        2.497473
   27        2.648355
   28        2.654666
   29        2.950088
   30        2.957169
   31        3.183140
   32        3.774761
   33        4.091988
   34        4.316988
   35        4.324276
   36        4.485234
   37        4.731962
   38        5.637407
   39        5.809977
   40        6.119017
   41        6.125216
   42        6.675984
   43        6.683563
   44        6.931278
   45        7.268201
   46        7.617677
   47        7.871345
   48        7.878084
   49        8.371246
   50        9.533076
   51        9.804395
   52       10.509156
   53       10.713882
   54       12.126292
   55       12.159085
   56       12.166511
   57       13.070520
   58       13.076202
   59       13.515667
   60       13.894535
   61       14.073250
   62       14.077361
   63       15.167274
   64       15.170242
   65       15.689552
   66       16.503606
   67       16.508655
   68       16.536204
   69       16.542052
   70       16.755914
   71       16.788338
   72       16.890226
   73       16.895035
   74       17.625441
   75       17.630926
   76       17.975486
   77       18.173175
   78       18.692322
   79       19.122975
   80       20.744268
   81       21.589468
   82       22.915165
   83       22.919007
   84       23.684174
 
 -0.3333333E+00  0.1111111E+00  0.0000000E+00  0.6172840E-02
    1      -10.776919
    2       -8.106625
    3       -8.099141
    4       -7.986253
    5       -7.310069
    6       -5.467735
    7       -5.360086
    8       -5.352668
    9       -4.700445
   10       -4.692981
   11       -3.529201
   12       -2.942271
   13       -2.934775
   14       -1.749290
   15       -1.100063
   16       -0.935937
   17       -0.929368
   18       -0.312668
   19       -0.188527
   20        0.744446
   21        0.751619
   22        1.220268
   23        1.374362
   24        1.381439
   25        1.809526
   26        2.157045
   27        2.733577
   28        3.049464
   29        3.367213
   30        3.788416
   31        3.794745
   32        3.945197
   33        4.023183
   34        4.694429
   35        4.884578
   36        5.223837
   37        5.231108
   38        5.708307
   39        6.210328
   40        6.242037
   41        6.249495
   42        6.561935
   43        6.616829
   44        7.525777
   45        7.530751
   46        8.027757
   47        8.548800
   48        8.554010
   49        8.911892
   50        9.489862
   51       10.003204
   52       10.238097
   53       10.752497
   54       11.259417
   55       11.801905
   56       11.809580
   57       11.874470
   58       13.587232
   59       13.591715
   60       14.092965
   61       14.096714
   62       15.121371
   63       15.140362
   64       15.143515
   65       16.017034
   66       16.021380
   67       16.056829
   68       16.062002
   69       16.248156
   70       16.251683
   71       16.274054
   72       16.653290
   73       17.272891
   74       17.680316
   75       18.133501
   76       18.219605
   77       18.223766
   78       18.681050
   79       19.025814
   80       19.040982
   81       20.511633
   82       21.991473
   83       21.995628
   84       23.104962
 
 -0.2222222E+00  0.1111111E+00  0.0000000E+00  0.6172840E-02
    1      -11.091978
    2       -8.418468
    3       -8.410925
    4       -6.944663
    5       -6.943673
    6       -5.465731
    7       -4.349550
    8       -4.344605
    9       -4.341833
   10       -4.337362
   11       -4.093911
   12       -2.959743
   13       -2.952161
   14       -2.648154
   15       -2.647475
   16       -1.452477
   17       -1.445916
   18       -0.547585
   19       -0.537051
   20       -0.109246
   21       -0.103977
   22       -0.102033
   23       -0.096836
   24        2.393077
   25        2.558228
   26        2.558983
   27        3.650863
   28        3.653296
   29        3.725664
   30        3.726280
   31        4.197659
   32        4.217961
   33        4.570638
   34        4.910444
   35        4.916734
   36        5.513492
   37        5.513932
   38        5.942932
   39        5.945880
   40        5.950174
   41        5.953189
   42        7.015589
   43        7.439787
   44        8.631816
   45        8.634218
   46        8.678904
   47        9.156046
   48        9.157972
   49        9.260226
   50        9.262264
   51        9.557943
   52       10.438593
   53       10.441037
   54       10.626696
   55       10.864644
   56       11.523483
   57       11.531275
   58       14.101499
   59       14.104709
   60       14.106855
   61       14.109875
   62       15.028098
   63       15.031536
   64       15.412669
   65       15.416294
   66       15.611069
   67       15.614027
   68       15.615227
   69       15.618153
   70       15.951573
   71       15.953470
   72       16.375442
   73       16.962047
   74       17.469116
   75       17.470260
   76       18.825301
   77       18.827788
   78       19.102163
   79       19.281656
   80       19.779650
   81       20.088943
   82       21.207298
   83       21.212516
   84       21.791816
 
 -0.1111111E+00  0.1111111E+00  0.0000000E+00  0.6172840E-02
    1      -11.249742
    2       -8.574834
    3       -8.567289
    4       -6.452891
    5       -5.888169
    6       -5.884410
    7       -3.965669
    8       -3.961965
    9       -3.876854
   10       -3.869563
   11       -3.408155
   12       -3.348165
   13       -3.343213
   14       -3.339055
   15       -3.335898
   16       -1.350811
   17       -1.343815
   18       -1.341314
   19       -1.338842
   20       -0.829053
   21       -0.821882
   22       -0.712087
   23       -0.665531
   24        2.974572
   25        3.225976
   26        3.227491
   27        3.744089
   28        3.746656
   29        3.980529
   30        3.992517
   31        4.324527
   32        4.328412
   33        4.520198
   34        4.523722
   35        4.912171
   36        5.792254
   37        5.794066
   38        5.797297
   39        5.803403
   40        6.182819
   41        6.190034
   42        7.795260
   43        8.002119
   44        9.139875
   45        9.143927
   46        9.283769
   47        9.292601
   48        9.345007
   49        9.496857
   50        9.500049
   51        9.506009
   52        9.512068
   53        9.822108
   54       10.734316
   55       10.871857
   56       11.349083
   57       11.357078
   58       14.194220
   59       14.196890
   60       14.556428
   61       14.559223
   62       14.562300
   63       14.564561
   64       15.209268
   65       15.211355
   66       15.214010
   67       15.215618
   68       15.275830
   69       15.280577
   70       15.414384
   71       15.787208
   72       15.793544
   73       17.358112
   74       17.359874
   75       17.770550
   76       19.378280
   77       19.383369
   78       19.410901
   79       19.615117
   80       19.956011
   81       20.414992
   82       20.730990
   83       20.745696
   84       20.946322
 
 -0.3388132E-20  0.2222222E+00  0.0000000E+00  0.6172840E-02
    1      -11.013046
    2       -8.340378
    3       -8.332837
    4       -7.534709
    5       -6.236832
    6       -6.232128
    7       -4.919890
    8       -4.912398
    9       -3.667803
   10       -3.663059
   11       -3.659803
   12       -3.655121
   13       -3.201926
   14       -3.196878
   15       -1.936587
   16       -0.635787
   17       -0.629938
   18       -0.627717
   19       -0.621995
   20       -0.488488
   21       -0.449388
   22        0.575607
   23        0.582318
   24        2.152649
   25        2.404832
   26        2.408818
   27        3.145979
   28        3.377000
   29        3.381984
   30        4.193417
   31        4.197861
   32        4.220392
   33        4.987534
   34        4.991689
   35        4.995011
   36        4.999198
   37        5.174079
   38        5.178782
   39        5.943732
   40        6.404220
   41        6.410235
   42        6.562060
   43        7.338306
   44        8.284453
   45        8.288221
   46        8.738033
   47        8.741003
   48        9.056329
   49        9.059959
   50        9.520666
   51       10.056206
   52       10.060022
   53       10.431928
   54       10.930329
   55       11.070852
   56       11.593383
   57       11.601142
   58       13.734308
   59       13.738155
   60       14.636724
   61       14.640112
   62       14.644861
   63       14.648405
   64       15.655483
   65       15.664178
   66       15.669294
   67       15.770313
   68       15.772176
   69       15.776208
   70       15.778023
   71       16.443653
   72       16.449422
   73       17.039414
   74       17.043565
   75       17.912580
   76       18.565981
   77       18.571095
   78       18.797308
   79       19.150303
   80       19.277187
   81       20.951664
   82       21.662917
   83       21.672135
   84       21.751431
 
  0.1111111E+00  0.2222222E+00  0.0000000E+00  0.6172840E-02
    1      -10.776853
    2       -8.106527
    3       -8.098999
    4       -7.986514
    5       -7.309622
    6       -5.468726
    7       -5.360303
    8       -5.352765
    9       -4.699916
   10       -4.692458
   11       -3.529611
   12       -2.943270
   13       -2.935791
   14       -1.749361
   15       -1.098753
   16       -0.936359
   17       -0.929055
   18       -0.312589
   19       -0.188462
   20        0.743744
   21        0.750784
   22        1.221825
   23        1.376395
   24        1.382982
   25        1.809980
   26        2.155567
   27        2.732655
   28        3.049764
   29        3.368867
   30        3.789162
   31        3.796203
   32        3.943565
   33        4.022155
   34        4.693400
   35        4.885743
   36        5.224775
   37        5.231818
   38        5.709572
   39        6.209690
   40        6.240293
   41        6.246213
   42        6.562643
   43        6.615342
   44        7.526107
   45        7.531772
   46        8.028280
   47        8.547795
   48        8.553832
   49        8.913828