<?xml version="1.0" encoding="ISO-8859-1"?>
<modeling>
 <generator>
  <i name="program" type="string">vasp </i>
  <i name="version" type="string">5.3.5  </i>
  <i name="subversion" type="string">31Mar14 (build Nov 02 2014 15:17:37) complex                          parallel </i>
  <i name="platform" type="string">ion-Intel-MKL </i>
  <i name="date" type="string">2016 08 24 </i>
  <i name="time" type="string">08:55:27 </i>
 </generator>
 <incar>
  <i type="string" name="SYSTEM">graphite</i>
  <i type="string" name="PREC">accurate</i>
  <i type="int" name="NELM">   200</i>
  <i type="int" name="IBRION">    -1</i>
  <i name="EDIFF">      0.00000100</i>
  <i name="EDIFFG">      0.00100000</i>
  <i type="int" name="NSW">     0</i>
  <i type="int" name="ISIF">     2</i>
  <i name="ENCUT">    600.00000000</i>
  <i type="int" name="ISMEAR">    -5</i>
  <i type="logical" name="LWAVE"> F  </i>
  <i type="logical" name="LCHARG"> F  </i>
  <i type="int" name="NELM">   200</i>
  <i type="string" name="GGA">PE</i>
 </incar>
 <kpoints>
  <generation param="Gamma">
   <v type="int" name="divisions">       9        9        4 </v>
   <v name="usershift">      0.00000000       0.00000000       0.00000000 </v>
   <v name="genvec1">      0.11111111       0.00000000       0.00000000 </v>
   <v name="genvec2">      0.00000000       0.11111111       0.00000000 </v>
   <v name="genvec3">      0.00000000       0.00000000       0.25000000 </v>
   <v name="shift">      0.00000000       0.00000000       0.00000000 </v>
  </generation>
  <varray name="kpointlist" >
   <v>       0.00000000       0.00000000       0.00000000 </v>
   <v>       0.11111111       0.00000000       0.00000000 </v>
   <v>       0.22222222       0.00000000       0.00000000 </v>
   <v>       0.33333333       0.00000000       0.00000000 </v>
   <v>       0.44444444       0.00000000       0.00000000 </v>
   <v>      -0.00000000       0.11111111       0.00000000 </v>
   <v>       0.11111111       0.11111111       0.00000000 </v>
   <v>       0.22222222       0.11111111       0.00000000 </v>
   <v>       0.33333333       0.11111111       0.00000000 </v>
   <v>       0.44444444       0.11111111       0.00000000 </v>
   <v>      -0.44444444       0.11111111       0.00000000 </v>
   <v>      -0.33333333       0.11111111       0.00000000 </v>
   <v>      -0.22222222       0.11111111       0.00000000 </v>
   <v>      -0.11111111       0.11111111       0.00000000 </v>
   <v>      -0.00000000       0.22222222       0.00000000 </v>
   <v>       0.11111111       0.22222222       0.00000000 </v>
   <v>       0.22222222       0.22222222       0.00000000 </v>
   <v>       0.33333333       0.22222222       0.00000000 </v>
   <v>       0.44444444       0.22222222       0.00000000 </v>
   <v>      -0.44444444       0.22222222       0.00000000 </v>
   <v>      -0.33333333       0.22222222       0.00000000 </v>
   <v>      -0.22222222       0.22222222       0.00000000 </v>
   <v>      -0.11111111       0.22222222       0.00000000 </v>
   <v>      -0.00000000       0.33333333       0.00000000 </v>
   <v>       0.11111111       0.33333333       0.00000000 </v>
   <v>       0.22222222       0.33333333       0.00000000 </v>
   <v>       0.33333333       0.33333333       0.00000000 </v>
   <v>       0.44444444       0.33333333       0.00000000 </v>
   <v>      -0.44444444       0.33333333       0.00000000 </v>
   <v>      -0.33333333       0.33333333       0.00000000 </v>
   <v>      -0.22222222       0.33333333       0.00000000 </v>
   <v>      -0.11111111       0.33333333       0.00000000 </v>
   <v>      -0.00000000       0.44444444       0.00000000 </v>
   <v>       0.11111111       0.44444444       0.00000000 </v>
   <v>       0.22222222       0.44444444       0.00000000 </v>
   <v>       0.33333333       0.44444444       0.00000000 </v>
   <v>       0.44444444       0.44444444       0.00000000 </v>
   <v>      -0.44444444       0.44444444       0.00000000 </v>
   <v>      -0.33333333       0.44444444       0.00000000 </v>
   <v>      -0.22222222       0.44444444       0.00000000 </v>
   <v>      -0.11111111       0.44444444       0.00000000 </v>
   <v>       0.00000000       0.00000000       0.25000000 </v>
   <v>       0.11111111       0.00000000       0.25000000 </v>
   <v>       0.22222222       0.00000000       0.25000000 </v>
   <v>       0.33333333       0.00000000       0.25000000 </v>
   <v>       0.44444444       0.00000000       0.25000000 </v>
   <v>      -0.44444444       0.00000000       0.25000000 </v>
   <v>      -0.33333333       0.00000000       0.25000000 </v>
   <v>      -0.22222222       0.00000000       0.25000000 </v>
   <v>      -0.11111111       0.00000000       0.25000000 </v>
   <v>      -0.00000000       0.11111111       0.25000000 </v>
   <v>       0.11111111       0.11111111       0.25000000 </v>
   <v>       0.22222222       0.11111111       0.25000000 </v>
   <v>       0.33333333       0.11111111       0.25000000 </v>
   <v>       0.44444444       0.11111111       0.25000000 </v>
   <v>      -0.44444444       0.11111111       0.25000000 </v>
   <v>      -0.33333333       0.11111111       0.25000000 </v>
   <v>      -0.22222222       0.11111111       0.25000000 </v>
   <v>      -0.11111111       0.11111111       0.25000000 </v>
   <v>      -0.00000000       0.22222222       0.25000000 </v>
   <v>       0.11111111       0.22222222       0.25000000 </v>
   <v>       0.22222222       0.22222222       0.25000000 </v>
   <v>       0.33333333       0.22222222       0.25000000 </v>
   <v>       0.44444444       0.22222222       0.25000000 </v>
   <v>      -0.44444444       0.22222222       0.25000000 </v>
   <v>      -0.33333333       0.22222222       0.25000000 </v>
   <v>      -0.22222222       0.22222222       0.25000000 </v>
   <v>      -0.11111111       0.22222222       0.25000000 </v>
   <v>      -0.00000000       0.33333333       0.25000000 </v>
   <v>       0.11111111       0.33333333       0.25000000 </v>
   <v>       0.22222222       0.33333333       0.25000000 </v>
   <v>       0.33333333       0.33333333       0.25000000 </v>
   <v>       0.44444444       0.33333333       0.25000000 </v>
   <v>      -0.44444444       0.33333333       0.25000000 </v>
   <v>      -0.33333333       0.33333333       0.25000000 </v>
   <v>      -0.22222222       0.33333333       0.25000000 </v>
   <v>      -0.11111111       0.33333333       0.25000000 </v>
   <v>      -0.00000000       0.44444444       0.25000000 </v>
   <v>       0.11111111       0.44444444       0.25000000 </v>
   <v>       0.22222222       0.44444444       0.25000000 </v>
   <v>       0.33333333       0.44444444       0.25000000 </v>
   <v>       0.44444444       0.44444444       0.25000000 </v>
   <v>      -0.44444444       0.44444444       0.25000000 </v>
   <v>      -0.33333333       0.44444444       0.25000000 </v>
   <v>      -0.22222222       0.44444444       0.25000000 </v>
   <v>      -0.11111111       0.44444444       0.25000000 </v>
   <v>       0.00000000      -0.44444444       0.25000000 </v>
   <v>       0.11111111      -0.44444444       0.25000000 </v>
   <v>       0.22222222      -0.44444444       0.25000000 </v>
   <v>       0.33333333      -0.44444444       0.25000000 </v>
   <v>       0.44444444      -0.44444444       0.25000000 </v>
   <v>      -0.44444444      -0.44444444       0.25000000 </v>
   <v>      -0.33333333      -0.44444444       0.25000000 </v>
   <v>      -0.22222222      -0.44444444       0.25000000 </v>
   <v>      -0.11111111      -0.44444444       0.25000000 </v>
   <v>       0.00000000      -0.33333333       0.25000000 </v>
   <v>       0.11111111      -0.33333333       0.25000000 </v>
   <v>       0.22222222      -0.33333333       0.25000000 </v>
   <v>       0.33333333      -0.33333333       0.25000000 </v>
   <v>       0.44444444      -0.33333333       0.25000000 </v>
   <v>      -0.44444444      -0.33333333       0.25000000 </v>
   <v>      -0.33333333      -0.33333333       0.25000000 </v>
   <v>      -0.22222222      -0.33333333       0.25000000 </v>
   <v>      -0.11111111      -0.33333333       0.25000000 </v>
   <v>       0.00000000      -0.22222222       0.25000000 </v>
   <v>       0.11111111      -0.22222222       0.25000000 </v>
   <v>       0.22222222      -0.22222222       0.25000000 </v>
   <v>       0.33333333      -0.22222222       0.25000000 </v>
   <v>       0.44444444      -0.22222222       0.25000000 </v>
   <v>      -0.44444444      -0.22222222       0.25000000 </v>
   <v>      -0.33333333      -0.22222222       0.25000000 </v>
   <v>      -0.22222222      -0.22222222       0.25000000 </v>
   <v>      -0.11111111      -0.22222222       0.25000000 </v>
   <v>       0.00000000      -0.11111111       0.25000000 </v>
   <v>       0.11111111      -0.11111111       0.25000000 </v>
   <v>       0.22222222      -0.11111111       0.25000000 </v>
   <v>       0.33333333      -0.11111111       0.25000000 </v>
   <v>       0.44444444      -0.11111111       0.25000000 </v>
   <v>      -0.44444444      -0.11111111       0.25000000 </v>
   <v>      -0.33333333      -0.11111111       0.25000000 </v>
   <v>      -0.22222222      -0.11111111       0.25000000 </v>
   <v>      -0.11111111      -0.11111111       0.25000000 </v>
   <v>       0.00000000       0.00000000       0.50000000 </v>
   <v>       0.11111111       0.00000000       0.50000000 </v>
   <v>       0.22222222       0.00000000       0.50000000 </v>
   <v>       0.33333333       0.00000000       0.50000000 </v>
   <v>       0.44444444       0.00000000       0.50000000 </v>
   <v>      -0.00000000       0.11111111       0.50000000 </v>
   <v>       0.11111111       0.11111111       0.50000000 </v>
   <v>       0.22222222       0.11111111       0.50000000 </v>
   <v>       0.33333333       0.11111111       0.50000000 </v>
   <v>       0.44444444       0.11111111       0.50000000 </v>
   <v>      -0.44444444       0.11111111       0.50000000 </v>
   <v>      -0.33333333       0.11111111       0.50000000 </v>
   <v>      -0.22222222       0.11111111       0.50000000 </v>
   <v>      -0.11111111       0.11111111       0.50000000 </v>
   <v>      -0.00000000       0.22222222       0.50000000 </v>
   <v>       0.11111111       0.22222222       0.50000000 </v>
   <v>       0.22222222       0.22222222       0.50000000 </v>
   <v>       0.33333333       0.22222222       0.50000000 </v>
   <v>       0.44444444       0.22222222       0.50000000 </v>
   <v>      -0.44444444       0.22222222       0.50000000 </v>
   <v>      -0.33333333       0.22222222       0.50000000 </v>
   <v>      -0.22222222       0.22222222       0.50000000 </v>
   <v>      -0.11111111       0.22222222       0.50000000 </v>
   <v>      -0.00000000       0.33333333       0.50000000 </v>
   <v>       0.11111111       0.33333333       0.50000000 </v>
   <v>       0.22222222       0.33333333       0.50000000 </v>
   <v>       0.33333333       0.33333333       0.50000000 </v>
   <v>       0.44444444       0.33333333       0.50000000 </v>
   <v>      -0.44444444       0.33333333       0.50000000 </v>
   <v>      -0.33333333       0.33333333       0.50000000 </v>
   <v>      -0.22222222       0.33333333       0.50000000 </v>
   <v>      -0.11111111       0.33333333       0.50000000 </v>
   <v>      -0.00000000       0.44444444       0.50000000 </v>
   <v>       0.11111111       0.44444444       0.50000000 </v>
   <v>       0.22222222       0.44444444       0.50000000 </v>
   <v>       0.33333333       0.44444444       0.50000000 </v>
   <v>       0.44444444       0.44444444       0.50000000 </v>
   <v>      -0.44444444       0.44444444       0.50000000 </v>
   <v>      -0.33333333       0.44444444       0.50000000 </v>
   <v>      -0.22222222       0.44444444       0.50000000 </v>
   <v>      -0.11111111       0.44444444       0.50000000 </v>
  </varray>
  <varray name="weights" >
   <v>       0.00308642 </v>
   <v>       0.00617284 </v>
   <v>       0.00617284 </v>
   <v>       0.00617284 </v>
   <v>       0.00617284 </v>
   <v>       0.00617284 </v>
   <v>       0.00617284 </v>
   <v>       0.00617284 </v>
   <v>       0.00617284 </v>
   <v>       0.00617284 </v>
   <v>       0.00617284 </v>
   <v>       0.00617284 </v>
   <v>       0.00617284 </v>
   <v>       0.00617284 </v>
   <v>       0.00617284 </v>
   <v>       0.00617284 </v>
   <v>       0.00617284 </v>
   <v>       0.00617284 </v>
   <v>       0.00617284 </v>
   <v>       0.00617284 </v>
   <v>       0.00617284 </v>
   <v>       0.00617284 </v>
   <v>       0.00617284 </v>
   <v>       0.00617284 </v>
   <v>       0.00617284 </v>
   <v>       0.00617284 </v>
   <v>       0.00617284 </v>
   <v>       0.00617284 </v>
   <v>       0.00617284 </v>
   <v>       0.00617284 </v>
   <v>       0.00617284 </v>
   <v>       0.00617284 </v>
   <v>       0.00617284 </v>
   <v>       0.00617284 </v>
   <v>       0.00617284 </v>
   <v>       0.00617284 </v>
   <v>       0.00617284 </v>
   <v>       0.00617284 </v>
   <v>       0.00617284 </v>
   <v>       0.00617284 </v>
   <v>       0.00617284 </v>
   <v>       0.00617284 </v>
   <v>       0.00617284 </v>
   <v>       0.00617284 </v>
   <v>       0.00617284 </v>
   <v>       0.00617284 </v>
   <v>       0.00617284 </v>
   <v>       0.00617284 </v>
   <v>       0.00617284 </v>
   <v>       0.00617284 </v>
   <v>       0.00617284 </v>
   <v>       0.00617284 </v>
   <v>       0.00617284 </v>
   <v>       0.00617284 </v>
   <v>       0.00617284 </v>
   <v>       0.00617284 </v>
   <v>       0.00617284 </v>
   <v>       0.00617284 </v>
   <v>       0.00617284 </v>
   <v>       0.00617284 </v>
   <v>       0.00617284 </v>
   <v>       0.00617284 </v>
   <v>       0.00617284 </v>
   <v>       0.00617284 </v>
   <v>       0.00617284 </v>
   <v>       0.00617284 </v>
   <v>       0.00617284 </v>
   <v>       0.00617284 </v>
   <v>       0.00617284 </v>
   <v>       0.00617284 </v>
   <v>       0.00617284 </v>
   <v>       0.00617284 </v>
   <v>       0.00617284 </v>
   <v>       0.00617284 </v>
   <v>       0.00617284 </v>
   <v>       0.00617284 </v>
   <v>       0.00617284 </v>
   <v>       0.00617284 </v>
   <v>       0.00617284 </v>
   <v>       0.00617284 </v>
   <v>       0.00617284 </v>
   <v>       0.00617284 </v>
   <v>       0.00617284 </v>
   <v>       0.00617284 </v>
   <v>       0.00617284 </v>
   <v>       0.00617284 </v>
   <v>       0.00617284 </v>
   <v>       0.00617284 </v>
   <v>       0.00617284 </v>
   <v>       0.00617284 </v>
   <v>       0.00617284 </v>
   <v>       0.00617284 </v>
   <v>       0.00617284 </v>
   <v>       0.00617284 </v>
   <v>       0.00617284 </v>
   <v>       0.00617284 </v>
   <v>       0.00617284 </v>
   <v>       0.00617284 </v>
   <v>       0.00617284 </v>
   <v>       0.00617284 </v>
   <v>       0.00617284 </v>
   <v>       0.00617284 </v>
   <v>       0.00617284 </v>
   <v>       0.00617284 </v>
   <v>       0.00617284 </v>
   <v>       0.00617284 </v>
   <v>       0.00617284 </v>
   <v>       0.00617284 </v>
   <v>       0.00617284 </v>
   <v>       0.00617284 </v>
   <v>       0.00617284 </v>
   <v>       0.00617284 </v>
   <v>       0.00617284 </v>
   <v>       0.00617284 </v>
   <v>       0.00617284 </v>
   <v>       0.00617284 </v>
   <v>       0.00617284 </v>
   <v>       0.00617284 </v>
   <v>       0.00617284 </v>
   <v>       0.00617284 </v>
   <v>       0.00617284 </v>
   <v>       0.00617284 </v>
   <v>       0.00308642 </v>
   <v>       0.00617284 </v>
   <v>       0.00617284 </v>
   <v>       0.00617284 </v>
   <v>       0.00617284 </v>
   <v>       0.00617284 </v>
   <v>       0.00617284 </v>
   <v>       0.00617284 </v>
   <v>       0.00617284 </v>
   <v>       0.00617284 </v>
   <v>       0.00617284 </v>
   <v>       0.00617284 </v>
   <v>       0.00617284 </v>
   <v>       0.00617284 </v>
   <v>       0.00617284 </v>
   <v>       0.00617284 </v>
   <v>       0.00617284 </v>
   <v>       0.00617284 </v>
   <v>       0.00617284 </v>
   <v>       0.00617284 </v>
   <v>       0.00617284 </v>
   <v>       0.00617284 </v>
   <v>       0.00617284 </v>
   <v>       0.00617284 </v>
   <v>       0.00617284 </v>
   <v>       0.00617284 </v>
   <v>       0.00617284 </v>
   <v>       0.00617284 </v>
   <v>       0.00617284 </v>
   <v>       0.00617284 </v>
   <v>       0.00617284 </v>
   <v>       0.00617284 </v>
   <v>       0.00617284 </v>
   <v>       0.00617284 </v>
   <v>       0.00617284 </v>
   <v>       0.00617284 </v>
   <v>       0.00617284 </v>
   <v>       0.00617284 </v>
   <v>       0.00617284 </v>
   <v>       0.00617284 </v>
   <v>       0.00617284 </v>
  </varray>
  <varray name="tetrahedronlist"  type="int" >
   <v type="int" >        2        2        6        7       51 </v>
   <v type="int" >        2        1        2        6       51 </v>
   <v type="int" >        2        1        2       42       51 </v>
   <v type="int" >        2        2        7       51       52 </v>
   <v type="int" >        2        2       43       51       52 </v>
   <v type="int" >        2        2       42       43       51 </v>
   <v type="int" >        2        3        7        8       52 </v>
   <v type="int" >        2        2        3        7       52 </v>
   <v type="int" >        2        2        3       43       52 </v>
   <v type="int" >        2        3        8       52       53 </v>
   <v type="int" >        2        3       44       52       53 </v>
   <v type="int" >        2        3       43       44       52 </v>
   <v type="int" >        2        4        8        9       53 </v>
   <v type="int" >        2        3        4        8       53 </v>
   <v type="int" >        2        3        4       44       53 </v>
   <v type="int" >        2        4        9       53       54 </v>
   <v type="int" >        2        4       45       53       54 </v>
   <v type="int" >        2        4       44       45       53 </v>
   <v type="int" >        2        5        9       10       54 </v>
   <v type="int" >        2        4        5        9       54 </v>
   <v type="int" >        2        4        5       45       54 </v>
   <v type="int" >        2        5       10       54       55 </v>
   <v type="int" >        2        5       46       54       55 </v>
   <v type="int" >        2        5       45       46       54 </v>
   <v type="int" >        2        5       10       11       55 </v>
   <v type="int" >        2        5        5       10       55 </v>
   <v type="int" >        2        5        5       46       55 </v>
   <v type="int" >        2        5       11       55       56 </v>
   <v type="int" >        2        5       47       55       56 </v>
   <v type="int" >        2        5       46       47       55 </v>
   <v type="int" >        2        4       11       12       56 </v>
   <v type="int" >        2        4        5       11       56 </v>
   <v type="int" >        2        4        5       47       56 </v>
   <v type="int" >        2        4       12       56       57 </v>
   <v type="int" >        2        4       48       56       57 </v>
   <v type="int" >        2        4       47       48       56 </v>
   <v type="int" >        2        3       12       13       57 </v>
   <v type="int" >        2        3        4       12       57 </v>
   <v type="int" >        2        3        4       48       57 </v>
   <v type="int" >        2        3       13       57       58 </v>
   <v type="int" >        2        3       49       57       58 </v>
   <v type="int" >        2        3       48       49       57 </v>
   <v type="int" >        2        2       13       14       58 </v>
   <v type="int" >        2        2        3       13       58 </v>
   <v type="int" >        2        2        3       49       58 </v>
   <v type="int" >        2        2       14       58       59 </v>
   <v type="int" >        2        2       50       58       59 </v>
   <v type="int" >        2        2       49       50       58 </v>
   <v type="int" >        2        1        6       14       59 </v>
   <v type="int" >        2        1        2       14       59 </v>
   <v type="int" >        2        1        2       50       59 </v>
   <v type="int" >        2        1        6       51       59 </v>
   <v type="int" >        2        1       42       51       59 </v>
   <v type="int" >        2        1       42       50       59 </v>
   <v type="int" >        2        7       15       16       60 </v>
   <v type="int" >        2        6        7       15       60 </v>
   <v type="int" >        2        6        7       51       60 </v>
   <v type="int" >        2        7       16       60       61 </v>
   <v type="int" >        2        7       52       60       61 </v>
   <v type="int" >        2        7       51       52       60 </v>
   <v type="int" >        2        8       16       17       61 </v>
   <v type="int" >        2        7        8       16       61 </v>
   <v type="int" >        2        7        8       52       61 </v>
   <v type="int" >        2        8       17       61       62 </v>
   <v type="int" >        2        8       53       61       62 </v>
   <v type="int" >        2        8       52       53       61 </v>
   <v type="int" >        2        9       17       18       62 </v>
   <v type="int" >        2        8        9       17       62 </v>
   <v type="int" >        2        8        9       53       62 </v>
   <v type="int" >        2        9       18       62       63 </v>
   <v type="int" >        2        9       54       62       63 </v>
   <v type="int" >        2        9       53       54       62 </v>
   <v type="int" >        2       10       18       19       63 </v>
   <v type="int" >        2        9       10       18       63 </v>
   <v type="int" >        2        9       10       54       63 </v>
   <v type="int" >        2       10       19       63       64 </v>
   <v type="int" >        2       10       55       63       64 </v>
   <v type="int" >        2       10       54       55       63 </v>
   <v type="int" >        2       11       19       20       64 </v>
   <v type="int" >        2       10       11       19       64 </v>
   <v type="int" >        2       10       11       55       64 </v>
   <v type="int" >        2       11       20       64       65 </v>
   <v type="int" >        2       11       56       64       65 </v>
   <v type="int" >        2       11       55       56       64 </v>
   <v type="int" >        2       12       20       21       65 </v>
   <v type="int" >        2       11       12       20       65 </v>
   <v type="int" >        2       11       12       56       65 </v>
   <v type="int" >        2       12       21       65       66 </v>
   <v type="int" >        2       12       57       65       66 </v>
   <v type="int" >        2       12       56       57       65 </v>
   <v type="int" >        2       13       21       22       66 </v>
   <v type="int" >        2       12       13       21       66 </v>
   <v type="int" >        2       12       13       57       66 </v>
   <v type="int" >        2       13       22       66       67 </v>
   <v type="int" >        2       13       58       66       67 </v>
   <v type="int" >        2       13       57       58       66 </v>
   <v type="int" >        2       14       22       23       67 </v>
   <v type="int" >        2       13       14       22       67 </v>
   <v type="int" >        2       13       14       58       67 </v>
   <v type="int" >        2       14       23       67       68 </v>
   <v type="int" >        2       14       59       67       68 </v>
   <v type="int" >        2       14       58       59       67 </v>
   <v type="int" >        2        6       15       23       68 </v>
   <v type="int" >        2        6       14       23       68 </v>
   <v type="int" >        2        6       14       59       68 </v>
   <v type="int" >        2        6       15       60       68 </v>
   <v type="int" >        2        6       51       60       68 </v>
   <v type="int" >        2        6       51       59       68 </v>
   <v type="int" >        2       16       24       25       69 </v>
   <v type="int" >        2       15       16       24       69 </v>
   <v type="int" >        2       15       16       60       69 </v>
   <v type="int" >        2       16       25       69       70 </v>
   <v type="int" >        2       16       61       69       70 </v>
   <v type="int" >        2       16       60       61       69 </v>
   <v type="int" >        2       17       25       26       70 </v>
   <v type="int" >        2       16       17       25       70 </v>
   <v type="int" >        2       16       17       61       70 </v>
   <v type="int" >        2       17       26       70       71 </v>
   <v type="int" >        2       17       62       70       71 </v>
   <v type="int" >        2       17       61       62       70 </v>
   <v type="int" >        2       18       26       27       71 </v>
   <v type="int" >        2       17       18       26       71 </v>
   <v type="int" >        2       17       18       62       71 </v>
   <v type="int" >        2       18       27       71       72 </v>
   <v type="int" >        2       18       63       71       72 </v>
   <v type="int" >        2       18       62       63       71 </v>
   <v type="int" >        2       19       27       28       72 </v>
   <v type="int" >        2       18       19       27       72 </v>
   <v type="int" >        2       18       19       63       72 </v>
   <v type="int" >        2       19       28       72       73 </v>
   <v type="int" >        2       19       64       72       73 </v>
   <v type="int" >        2       19       63       64       72 </v>
   <v type="int" >        2       20       28       29       73 </v>
   <v type="int" >        2       19       20       28       73 </v>
   <v type="int" >        2       19       20       64       73 </v>
   <v type="int" >        2       20       29       73       74 </v>
   <v type="int" >        2       20       65       73       74 </v>
   <v type="int" >        2       20       64       65       73 </v>
   <v type="int" >        2       21       29       30       74 </v>
   <v type="int" >        2       20       21       29       74 </v>
   <v type="int" >        2       20       21       65       74 </v>
   <v type="int" >        2       21       30       74       75 </v>
   <v type="int" >        2       21       66       74       75 </v>
   <v type="int" >        2       21       65       66       74 </v>
   <v type="int" >        2       22       30       31       75 </v>
   <v type="int" >        2       21       22       30       75 </v>
   <v type="int" >        2       21       22       66       75 </v>
   <v type="int" >        2       22       31       75       76 </v>
   <v type="int" >        2       22       67       75       76 </v>
   <v type="int" >        2       22       66       67       75 </v>
   <v type="int" >        2       23       31       32       76 </v>
   <v type="int" >        2       22       23       31       76 </v>
   <v type="int" >        2       22       23       67       76 </v>
   <v type="int" >        2       23       32       76       77 </v>
   <v type="int" >        2       23       68       76       77 </v>
   <v type="int" >        2       23       67       68       76 </v>
   <v type="int" >        2       15       24       32       77 </v>
   <v type="int" >        2       15       23       32       77 </v>
   <v type="int" >        2       15       23       68       77 </v>
   <v type="int" >        2       15       24       69       77 </v>
   <v type="int" >        2       15       60       69       77 </v>
   <v type="int" >        2       15       60       68       77 </v>
   <v type="int" >        2       25       33       34       78 </v>
   <v type="int" >        2       24       25       33       78 </v>
   <v type="int" >        2       24       25       69       78 </v>
   <v type="int" >        2       25       34       78       79 </v>
   <v type="int" >        2       25       70       78       79 </v>
   <v type="int" >        2       25       69       70       78 </v>
   <v type="int" >        2       26       34       35       79 </v>
   <v type="int" >        2       25       26       34       79 </v>
   <v type="int" >        2       25       26       70       79 </v>
   <v type="int" >        2       26       35       79       80 </v>
   <v type="int" >        2       26       71       79       80 </v>
   <v type="int" >        2       26       70       71       79 </v>
   <v type="int" >        2       27       35       36       80 </v>
   <v type="int" >        2       26       27       35       80 </v>
   <v type="int" >        2       26       27       71       80 </v>
   <v type="int" >        2       27       36       80       81 </v>
   <v type="int" >        2       27       72       80       81 </v>
   <v type="int" >        2       27       71       72       80 </v>
   <v type="int" >        2       28       36       37       81 </v>
   <v type="int" >        2       27       28       36       81 </v>
   <v type="int" >        2       27       28       72       81 </v>
   <v type="int" >        2       28       37       81       82 </v>
   <v type="int" >        2       28       73       81       82 </v>
   <v type="int" >        2       28       72       73       81 </v>
   <v type="int" >        2       29       37       38       82 </v>
   <v type="int" >        2       28       29       37       82 </v>
   <v type="int" >        2       28       29       73       82 </v>
   <v type="int" >        2       29       38       82       83 </v>
   <v type="int" >        2       29       74       82       83 </v>
   <v type="int" >        2       29       73       74       82 </v>
   <v type="int" >        2       30       38       39       83 </v>
   <v type="int" >        2       29       30       38       83 </v>
   <v type="int" >        2       29       30       74       83 </v>
   <v type="int" >        2       30       39       83       84 </v>
   <v type="int" >        2       30       75       83       84 </v>
   <v type="int" >        2       30       74       75       83 </v>
   <v type="int" >        2       31       39       40       84 </v>
   <v type="int" >        2       30       31       39       84 </v>
   <v type="int" >        2       30       31       75       84 </v>
   <v type="int" >        2       31       40       84       85 </v>
   <v type="int" >        2       31       76       84       85 </v>
   <v type="int" >        2       31       75       76       84 </v>
   <v type="int" >        2       32       40       41       85 </v>
   <v type="int" >        2       31       32       40       85 </v>
   <v type="int" >        2       31       32       76       85 </v>
   <v type="int" >        2       32       41       85       86 </v>
   <v type="int" >        2       32       77       85       86 </v>
   <v type="int" >        2       32       76       77       85 </v>
   <v type="int" >        2       24       33       41       86 </v>
   <v type="int" >        2       24       32       41       86 </v>
   <v type="int" >        2       24       32       77       86 </v>
   <v type="int" >        2       24       33       78       86 </v>
   <v type="int" >        2       24       69       78       86 </v>
   <v type="int" >        2       24       69       77       86 </v>
   <v type="int" >        2       33       34       41       87 </v>
   <v type="int" >        2       33       33       34       87 </v>
   <v type="int" >        2       33       34       78       87 </v>
   <v type="int" >        2       34       41       87       88 </v>
   <v type="int" >        2       34       79       87       88 </v>
   <v type="int" >        2       34       78       79       87 </v>
   <v type="int" >        2       35       40       41       88 </v>
   <v type="int" >        2       34       35       41       88 </v>
   <v type="int" >        2       34       35       79       88 </v>
   <v type="int" >        2       35       40       88       89 </v>
   <v type="int" >        2       35       80       88       89 </v>
   <v type="int" >        2       35       79       80       88 </v>
   <v type="int" >        2       36       39       40       89 </v>
   <v type="int" >        2       35       36       40       89 </v>
   <v type="int" >        2       35       36       80       89 </v>
   <v type="int" >        2       36       39       89       90 </v>
   <v type="int" >        2       36       81       89       90 </v>
   <v type="int" >        2       36       80       81       89 </v>
   <v type="int" >        2       37       38       39       90 </v>
   <v type="int" >        2       36       37       39       90 </v>
   <v type="int" >        2       36       37       81       90 </v>
   <v type="int" >        2       37       38       90       91 </v>
   <v type="int" >        2       37       82       90       91 </v>
   <v type="int" >        2       37       81       82       90 </v>
   <v type="int" >        4       37       38       38       91 </v>
   <v type="int" >        2       37       38       82       91 </v>
   <v type="int" >        2       37       38       91       92 </v>
   <v type="int" >        2       38       83       91       92 </v>
   <v type="int" >        2       38       82       83       91 </v>
   <v type="int" >        2       36       37       39       92 </v>
   <v type="int" >        2       37       38       39       92 </v>
   <v type="int" >        2       38       39       83       92 </v>
   <v type="int" >        2       36       39       92       93 </v>
   <v type="int" >        2       39       84       92       93 </v>
   <v type="int" >        2       39       83       84       92 </v>
   <v type="int" >        2       35       36       40       93 </v>
   <v type="int" >        2       36       39       40       93 </v>
   <v type="int" >        2       39       40       84       93 </v>
   <v type="int" >        2       35       40       93       94 </v>
   <v type="int" >        2       40       85       93       94 </v>
   <v type="int" >        2       40       84       85       93 </v>
   <v type="int" >        2       34       35       41       94 </v>
   <v type="int" >        2       35       40       41       94 </v>
   <v type="int" >        2       40       41       85       94 </v>
   <v type="int" >        2       34       41       94       95 </v>
   <v type="int" >        2       41       86       94       95 </v>
   <v type="int" >        2       41       85       86       94 </v>
   <v type="int" >        2       33       33       34       95 </v>
   <v type="int" >        2       33       34       41       95 </v>
   <v type="int" >        2       33       41       86       95 </v>
   <v type="int" >        2       33       33       87       95 </v>
   <v type="int" >        2       33       78       87       95 </v>
   <v type="int" >        2       33       78       86       95 </v>
   <v type="int" >        2       24       32       41       96 </v>
   <v type="int" >        2       24       33       41       96 </v>
   <v type="int" >        2       33       41       87       96 </v>
   <v type="int" >        2       32       41       96       97 </v>
   <v type="int" >        2       41       88       96       97 </v>
   <v type="int" >        2       41       87       88       96 </v>
   <v type="int" >        2       31       32       40       97 </v>
   <v type="int" >        2       32       40       41       97 </v>
   <v type="int" >        2       40       41       88       97 </v>
   <v type="int" >        2       31       40       97       98 </v>
   <v type="int" >        2       40       89       97       98 </v>
   <v type="int" >        2       40       88       89       97 </v>
   <v type="int" >        2       30       31       39       98 </v>
   <v type="int" >        2       31       39       40       98 </v>
   <v type="int" >        2       39       40       89       98 </v>
   <v type="int" >        2       30       39       98       99 </v>
   <v type="int" >        2       39       90       98       99 </v>
   <v type="int" >        2       39       89       90       98 </v>
   <v type="int" >        2       29       30       38       99 </v>
   <v type="int" >        2       30       38       39       99 </v>
   <v type="int" >        2       38       39       90       99 </v>
   <v type="int" >        2       29       38       99      100 </v>
   <v type="int" >        2       38       91       99      100 </v>
   <v type="int" >        2       38       90       91       99 </v>
   <v type="int" >        2       28       29       37      100 </v>
   <v type="int" >        2       29       37       38      100 </v>
   <v type="int" >        2       37       38       91      100 </v>
   <v type="int" >        2       28       37      100      101 </v>
   <v type="int" >        2       37       92      100      101 </v>
   <v type="int" >        2       37       91       92      100 </v>
   <v type="int" >        2       27       28       36      101 </v>
   <v type="int" >        2       28       36       37      101 </v>
   <v type="int" >        2       36       37       92      101 </v>
   <v type="int" >        2       27       36      101      102 </v>
   <v type="int" >        2       36       93      101      102 </v>
   <v type="int" >        2       36       92       93      101 </v>
   <v type="int" >        2       26       27       35      102 </v>
   <v type="int" >        2       27       35       36      102 </v>
   <v type="int" >        2       35       36       93      102 </v>
   <v type="int" >        2       26       35      102      103 </v>
   <v type="int" >        2       35       94      102      103 </v>
   <v type="int" >        2       35       93       94      102 </v>
   <v type="int" >        2       25       26       34      103 </v>
   <v type="int" >        2       26       34       35      103 </v>
   <v type="int" >        2       34       35       94      103 </v>
   <v type="int" >        2       25       34      103      104 </v>
   <v type="int" >        2       34       95      103      104 </v>
   <v type="int" >        2       34       94       95      103 </v>
   <v type="int" >        2       24       25       33      104 </v>
   <v type="int" >        2       25       33       34      104 </v>
   <v type="int" >        2       33       34       95      104 </v>
   <v type="int" >        2       24       33       96      104 </v>
   <v type="int" >        2       33       87       96      104 </v>
   <v type="int" >        2       33       87       95      104 </v>
   <v type="int" >        2       15       23       32      105 </v>
   <v type="int" >        2       15       24       32      105 </v>
   <v type="int" >        2       24       32       96      105 </v>
   <v type="int" >        2       23       32      105      106 </v>
   <v type="int" >        2       32       97      105      106 </v>
   <v type="int" >        2       32       96       97      105 </v>
   <v type="int" >        2       22       23       31      106 </v>
   <v type="int" >        2       23       31       32      106 </v>
   <v type="int" >        2       31       32       97      106 </v>
   <v type="int" >        2       22       31      106      107 </v>
   <v type="int" >        2       31       98      106      107 </v>
   <v type="int" >        2       31       97       98      106 </v>
   <v type="int" >        2       21       22       30      107 </v>
   <v type="int" >        2       22       30       31      107 </v>
   <v type="int" >        2       30       31       98      107 </v>
   <v type="int" >        2       21       30      107      108 </v>
   <v type="int" >        2       30       99      107      108 </v>
   <v type="int" >        2       30       98       99      107 </v>
   <v type="int" >        2       20       21       29      108 </v>
   <v type="int" >        2       21       29       30      108 </v>
   <v type="int" >        2       29       30       99      108 </v>
   <v type="int" >        2       20       29      108      109 </v>
   <v type="int" >        2       29      100      108      109 </v>
   <v type="int" >        2       29       99      100      108 </v>
   <v type="int" >        2       19       20       28      109 </v>
   <v type="int" >        2       20       28       29      109 </v>
   <v type="int" >        2       28       29      100      109 </v>
   <v type="int" >        2       19       28      109      110 </v>
   <v type="int" >        2       28      101      109      110 </v>
   <v type="int" >        2       28      100      101      109 </v>
   <v type="int" >        2       18       19       27      110 </v>
   <v type="int" >        2       19       27       28      110 </v>
   <v type="int" >        2       27       28      101      110 </v>
   <v type="int" >        2       18       27      110      111 </v>
   <v type="int" >        2       27      102      110      111 </v>
   <v type="int" >        2       27      101      102      110 </v>
   <v type="int" >        2       17       18       26      111 </v>
   <v type="int" >        2       18       26       27      111 </v>
   <v type="int" >        2       26       27      102      111 </v>
   <v type="int" >        2       17       26      111      112 </v>
   <v type="int" >        2       26      103      111      112 </v>
   <v type="int" >        2       26      102      103      111 </v>
   <v type="int" >        2       16       17       25      112 </v>
   <v type="int" >        2       17       25       26      112 </v>
   <v type="int" >        2       25       26      103      112 </v>
   <v type="int" >        2       16       25      112      113 </v>
   <v type="int" >        2       25      104      112      113 </v>
   <v type="int" >        2       25      103      104      112 </v>
   <v type="int" >        2       15       16       24      113 </v>
   <v type="int" >        2       16       24       25      113 </v>
   <v type="int" >        2       24       25      104      113 </v>
   <v type="int" >        2       15       24      105      113 </v>
   <v type="int" >        2       24       96      105      113 </v>
   <v type="int" >        2       24       96      104      113 </v>
   <v type="int" >        2        6       14       23      114 </v>
   <v type="int" >        2        6       15       23      114 </v>
   <v type="int" >        2       15       23      105      114 </v>
   <v type="int" >        2       14       23      114      115 </v>
   <v type="int" >        2       23      106      114      115 </v>
   <v type="int" >        2       23      105      106      114 </v>
   <v type="int" >        2       13       14       22      115 </v>
   <v type="int" >        2       14       22       23      115 </v>
   <v type="int" >        2       22       23      106      115 </v>
   <v type="int" >        2       13       22      115      116 </v>
   <v type="int" >        2       22      107      115      116 </v>
   <v type="int" >        2       22      106      107      115 </v>
   <v type="int" >        2       12       13       21      116 </v>
   <v type="int" >        2       13       21       22      116 </v>
   <v type="int" >        2       21       22      107      116 </v>
   <v type="int" >        2       12       21      116      117 </v>
   <v type="int" >        2       21      108      116      117 </v>
   <v type="int" >        2       21      107      108      116 </v>
   <v type="int" >        2       11       12       20      117 </v>
   <v type="int" >        2       12       20       21      117 </v>
   <v type="int" >        2       20       21      108      117 </v>
   <v type="int" >        2       11       20      117      118 </v>
   <v type="int" >        2       20      109      117      118 </v>
   <v type="int" >        2       20      108      109      117 </v>
   <v type="int" >        2       10       11       19      118 </v>
   <v type="int" >        2       11       19       20      118 </v>
   <v type="int" >        2       19       20      109      118 </v>
   <v type="int" >        2       10       19      118      119 </v>
   <v type="int" >        2       19      110      118      119 </v>
   <v type="int" >        2       19      109      110      118 </v>
   <v type="int" >        2        9       10       18      119 </v>
   <v type="int" >        2       10       18       19      119 </v>
   <v type="int" >        2       18       19      110      119 </v>
   <v type="int" >        2        9       18      119      120 </v>
   <v type="int" >        2       18      111      119      120 </v>
   <v type="int" >        2       18      110      111      119 </v>
   <v type="int" >        2        8        9       17      120 </v>
   <v type="int" >        2        9       17       18      120 </v>
   <v type="int" >        2       17       18      111      120 </v>
   <v type="int" >        2        8       17      120      121 </v>
   <v type="int" >        2       17      112      120      121 </v>
   <v type="int" >        2       17      111      112      120 </v>
   <v type="int" >        2        7        8       16      121 </v>
   <v type="int" >        2        8       16       17      121 </v>
   <v type="int" >        2       16       17      112      121 </v>
   <v type="int" >        2        7       16      121      122 </v>
   <v type="int" >        2       16      113      121      122 </v>
   <v type="int" >        2       16      112      113      121 </v>
   <v type="int" >        2        6        7       15      122 </v>
   <v type="int" >        2        7       15       16      122 </v>
   <v type="int" >        2       15       16      113      122 </v>
   <v type="int" >        2        6       15      114      122 </v>
   <v type="int" >        2       15      105      114      122 </v>
   <v type="int" >        2       15      105      113      122 </v>
   <v type="int" >        2        1        2       14       42 </v>
   <v type="int" >        2        1        6       14       42 </v>
   <v type="int" >        2        6       14       42      114 </v>
   <v type="int" >        2        2       14       42       43 </v>
   <v type="int" >        2       14       42       43      115 </v>
   <v type="int" >        2       14       42      114      115 </v>
   <v type="int" >        2        2        3       13       43 </v>
   <v type="int" >        2        2       13       14       43 </v>
   <v type="int" >        2       13       14       43      115 </v>
   <v type="int" >        2        3       13       43       44 </v>
   <v type="int" >        2       13       43       44      116 </v>
   <v type="int" >        2       13       43      115      116 </v>
   <v type="int" >        2        3        4       12       44 </v>
   <v type="int" >        2        3       12       13       44 </v>
   <v type="int" >        2       12       13       44      116 </v>
   <v type="int" >        2        4       12       44       45 </v>
   <v type="int" >        2       12       44       45      117 </v>
   <v type="int" >        2       12       44      116      117 </v>
   <v type="int" >        2        4        5       11       45 </v>
   <v type="int" >        2        4       11       12       45 </v>
   <v type="int" >        2       11       12       45      117 </v>
   <v type="int" >        2        5       11       45       46 </v>
   <v type="int" >        2       11       45       46      118 </v>
   <v type="int" >        2       11       45      117      118 </v>
   <v type="int" >        2        5        5       10       46 </v>
   <v type="int" >        2        5       10       11       46 </v>
   <v type="int" >        2       10       11       46      118 </v>
   <v type="int" >        2        5       10       46       47 </v>
   <v type="int" >        2       10       46       47      119 </v>
   <v type="int" >        2       10       46      118      119 </v>
   <v type="int" >        2        4        5        9       47 </v>
   <v type="int" >        2        5        9       10       47 </v>
   <v type="int" >        2        9       10       47      119 </v>
   <v type="int" >        2        4        9       47       48 </v>
   <v type="int" >        2        9       47       48      120 </v>
   <v type="int" >        2        9       47      119      120 </v>
   <v type="int" >        2        3        4        8       48 </v>
   <v type="int" >        2        4        8        9       48 </v>
   <v type="int" >        2        8        9       48      120 </v>
   <v type="int" >        2        3        8       48       49 </v>
   <v type="int" >        2        8       48       49      121 </v>
   <v type="int" >        2        8       48      120      121 </v>
   <v type="int" >        2        2        3        7       49 </v>
   <v type="int" >        2        3        7        8       49 </v>
   <v type="int" >        2        7        8       49      121 </v>
   <v type="int" >        2        2        7       49       50 </v>
   <v type="int" >        2        7       49       50      122 </v>
   <v type="int" >        2        7       49      121      122 </v>
   <v type="int" >        2        1        2        6       50 </v>
   <v type="int" >        2        2        6        7       50 </v>
   <v type="int" >        2        6        7       50      122 </v>
   <v type="int" >        2        1        6       42       50 </v>
   <v type="int" >        2        6       42       50      114 </v>
   <v type="int" >        2        6       50      114      122 </v>
   <v type="int" >        2       43       51       52      128 </v>
   <v type="int" >        2       42       43       51      128 </v>
   <v type="int" >        2       42       43      123      128 </v>
   <v type="int" >        2       43       52      128      129 </v>
   <v type="int" >        2       43      124      128      129 </v>
   <v type="int" >        2       43      123      124      128 </v>
   <v type="int" >        2       44       52       53      129 </v>
   <v type="int" >        2       43       44       52      129 </v>
   <v type="int" >        2       43       44      124      129 </v>
   <v type="int" >        2       44       53      129      130 </v>
   <v type="int" >        2       44      125      129      130 </v>
   <v type="int" >        2       44      124      125      129 </v>
   <v type="int" >        2       45       53       54      130 </v>
   <v type="int" >        2       44       45       53      130 </v>
   <v type="int" >        2       44       45      125      130 </v>
   <v type="int" >        2       45       54      130      131 </v>
   <v type="int" >        2       45      126      130      131 </v>
   <v type="int" >        2       45      125      126      130 </v>
   <v type="int" >        2       46       54       55      131 </v>
   <v type="int" >        2       45       46       54      131 </v>
   <v type="int" >        2       45       46      126      131 </v>
   <v type="int" >        2       46       55      131      132 </v>
   <v type="int" >        2       46      127      131      132 </v>
   <v type="int" >        2       46      126      127      131 </v>
   <v type="int" >        2       47       55       56      132 </v>
   <v type="int" >        2       46       47       55      132 </v>
   <v type="int" >        2       46       47      127      132 </v>
   <v type="int" >        2       47       56      132      133 </v>
   <v type="int" >        2       47      127      132      133 </v>
   <v type="int" >        2       47      127      127      132 </v>
   <v type="int" >        2       48       56       57      133 </v>
   <v type="int" >        2       47       48       56      133 </v>
   <v type="int" >        2       47       48      127      133 </v>
   <v type="int" >        2       48       57      133      134 </v>
   <v type="int" >        2       48      126      133      134 </v>
   <v type="int" >        2       48      126      127      133 </v>
   <v type="int" >        2       49       57       58      134 </v>
   <v type="int" >        2       48       49       57      134 </v>
   <v type="int" >        2       48       49      126      134 </v>
   <v type="int" >        2       49       58      134      135 </v>
   <v type="int" >        2       49      125      134      135 </v>
   <v type="int" >        2       49      125      126      134 </v>
   <v type="int" >        2       50       58       59      135 </v>
   <v type="int" >        2       49       50       58      135 </v>
   <v type="int" >        2       49       50      125      135 </v>
   <v type="int" >        2       50       59      135      136 </v>
   <v type="int" >        2       50      124      135      136 </v>
   <v type="int" >        2       50      124      125      135 </v>
   <v type="int" >        2       42       51       59      136 </v>
   <v type="int" >        2       42       50       59      136 </v>
   <v type="int" >        2       42       50      124      136 </v>
   <v type="int" >        2       42       51      128      136 </v>
   <v type="int" >        2       42      123      128      136 </v>
   <v type="int" >        2       42      123      124      136 </v>
   <v type="int" >        2       52       60       61      137 </v>
   <v type="int" >        2       51       52       60      137 </v>
   <v type="int" >        2       51       52      128      137 </v>
   <v type="int" >        2       52       61      137      138 </v>
   <v type="int" >        2       52      129      137      138 </v>
   <v type="int" >        2       52      128      129      137 </v>
   <v type="int" >        2       53       61       62      138 </v>
   <v type="int" >        2       52       53       61      138 </v>
   <v type="int" >        2       52       53      129      138 </v>
   <v type="int" >        2       53       62      138      139 </v>
   <v type="int" >        2       53      130      138      139 </v>
   <v type="int" >        2       53      129      130      138 </v>
   <v type="int" >        2       54       62       63      139 </v>
   <v type="int" >        2       53       54       62      139 </v>
   <v type="int" >        2       53       54      130      139 </v>
   <v type="int" >        2       54       63      139      140 </v>
   <v type="int" >        2       54      131      139      140 </v>
   <v type="int" >        2       54      130      131      139 </v>
   <v type="int" >        2       55       63       64      140 </v>
   <v type="int" >        2       54       55       63      140 </v>
   <v type="int" >        2       54       55      131      140 </v>
   <v type="int" >        2       55       64      140      141 </v>
   <v type="int" >        2       55      132      140      141 </v>
   <v type="int" >        2       55      131      132      140 </v>
   <v type="int" >        2       56       64       65      141 </v>
   <v type="int" >        2       55       56       64      141 </v>
   <v type="int" >        2       55       56      132      141 </v>
   <v type="int" >        2       56       65      141      142 </v>
   <v type="int" >        2       56      133      141      142 </v>
   <v type="int" >        2       56      132      133      141 </v>
   <v type="int" >        2       57       65       66      142 </v>
   <v type="int" >        2       56       57       65      142 </v>
   <v type="int" >        2       56       57      133      142 </v>
   <v type="int" >        2       57       66      142      143 </v>
   <v type="int" >        2       57      134      142      143 </v>
   <v type="int" >        2       57      133      134      142 </v>
   <v type="int" >        2       58       66       67      143 </v>
   <v type="int" >        2       57       58       66      143 </v>
   <v type="int" >        2       57       58      134      143 </v>
   <v type="int" >        2       58       67      143      144 </v>
   <v type="int" >        2       58      135      143      144 </v>
   <v type="int" >        2       58      134      135      143 </v>
   <v type="int" >        2       59       67       68      144 </v>
   <v type="int" >        2       58       59       67      144 </v>
   <v type="int" >        2       58       59      135      144 </v>
   <v type="int" >        2       59       68      144      145 </v>
   <v type="int" >        2       59      136      144      145 </v>
   <v type="int" >        2       59      135      136      144 </v>
   <v type="int" >        2       51       60       68      145 </v>
   <v type="int" >        2       51       59       68      145 </v>
   <v type="int" >        2       51       59      136      145 </v>
   <v type="int" >        2       51       60      137      145 </v>
   <v type="int" >        2       51      128      137      145 </v>
   <v type="int" >        2       51      128      136      145 </v>
   <v type="int" >        2       61       69       70      146 </v>
   <v type="int" >        2       60       61       69      146 </v>
   <v type="int" >        2       60       61      137      146 </v>
   <v type="int" >        2       61       70      146      147 </v>
   <v type="int" >        2       61      138      146      147 </v>
   <v type="int" >        2       61      137      138      146 </v>
   <v type="int" >        2       62       70       71      147 </v>
   <v type="int" >        2       61       62       70      147 </v>
   <v type="int" >        2       61       62      138      147 </v>
   <v type="int" >        2       62       71      147      148 </v>
   <v type="int" >        2       62      139      147      148 </v>
   <v type="int" >        2       62      138      139      147 </v>
   <v type="int" >        2       63       71       72      148 </v>
   <v type="int" >        2       62       63       71      148 </v>
   <v type="int" >        2       62       63      139      148 </v>
   <v type="int" >        2       63       72      148      149 </v>
   <v type="int" >        2       63      140      148      149 </v>
   <v type="int" >        2       63      139      140      148 </v>
   <v type="int" >        2       64       72       73      149 </v>
   <v type="int" >        2       63       64       72      149 </v>
   <v type="int" >        2       63       64      140      149 </v>
   <v type="int" >        2       64       73      149      150 </v>
   <v type="int" >        2       64      141      149      150 </v>
   <v type="int" >        2       64      140      141      149 </v>
   <v type="int" >        2       65       73       74      150 </v>
   <v type="int" >        2       64       65       73      150 </v>
   <v type="int" >        2       64       65      141      150 </v>
   <v type="int" >        2       65       74      150      151 </v>
   <v type="int" >        2       65      142      150      151 </v>
   <v type="int" >        2       65      141      142      150 </v>
   <v type="int" >        2       66       74       75      151 </v>
   <v type="int" >        2       65       66       74      151 </v>
   <v type="int" >        2       65       66      142      151 </v>
   <v type="int" >        2       66       75      151      152 </v>
   <v type="int" >        2       66      143      151      152 </v>
   <v type="int" >        2       66      142      143      151 </v>
   <v type="int" >        2       67       75       76      152 </v>
   <v type="int" >        2       66       67       75      152 </v>
   <v type="int" >        2       66       67      143      152 </v>
   <v type="int" >        2       67       76      152      153 </v>
   <v type="int" >        2       67      144      152      153 </v>
   <v type="int" >        2       67      143      144      152 </v>
   <v type="int" >        2       68       76       77      153 </v>
   <v type="int" >        2       67       68       76      153 </v>
   <v type="int" >        2       67       68      144      153 </v>
   <v type="int" >        2       68       77      153      154 </v>
   <v type="int" >        2       68      145      153      154 </v>
   <v type="int" >        2       68      144      145      153 </v>
   <v type="int" >        2       60       69       77      154 </v>
   <v type="int" >        2       60       68       77      154 </v>
   <v type="int" >        2       60       68      145      154 </v>
   <v type="int" >        2       60       69      146      154 </v>
   <v type="int" >        2       60      137      146      154 </v>
   <v type="int" >        2       60      137      145      154 </v>
   <v type="int" >        2       70       78       79      155 </v>
   <v type="int" >        2       69       70       78      155 </v>
   <v type="int" >        2       69       70      146      155 </v>
   <v type="int" >        2       70       79      155      156 </v>
   <v type="int" >        2       70      147      155      156 </v>
   <v type="int" >        2       70      146      147      155 </v>
   <v type="int" >        2       71       79       80      156 </v>
   <v type="int" >        2       70       71       79      156 </v>
   <v type="int" >        2       70       71      147      156 </v>
   <v type="int" >        2       71       80      156      157 </v>
   <v type="int" >        2       71      148      156      157 </v>
   <v type="int" >        2       71      147      148      156 </v>
   <v type="int" >        2       72       80       81      157 </v>
   <v type="int" >        2       71       72       80      157 </v>
   <v type="int" >        2       71       72      148      157 </v>
   <v type="int" >        2       72       81      157      158 </v>
   <v type="int" >        2       72      149      157      158 </v>
   <v type="int" >        2       72      148      149      157 </v>
   <v type="int" >        2       73       81       82      158 </v>
   <v type="int" >        2       72       73       81      158 </v>
   <v type="int" >        2       72       73      149      158 </v>
   <v type="int" >        2       73       82      158      159 </v>
   <v type="int" >        2       73      150      158      159 </v>
   <v type="int" >        2       73      149      150      158 </v>
   <v type="int" >        2       74       82       83      159 </v>
   <v type="int" >        2       73       74       82      159 </v>
   <v type="int" >        2       73       74      150      159 </v>
   <v type="int" >        2       74       83      159      160 </v>
   <v type="int" >        2       74      151      159      160 </v>
   <v type="int" >        2       74      150      151      159 </v>
   <v type="int" >        2       75       83       84      160 </v>
   <v type="int" >        2       74       75       83      160 </v>
   <v type="int" >        2       74       75      151      160 </v>
   <v type="int" >        2       75       84      160      161 </v>
   <v type="int" >        2       75      152      160      161 </v>
   <v type="int" >        2       75      151      152      160 </v>
   <v type="int" >        2       76       84       85      161 </v>
   <v type="int" >        2       75       76       84      161 </v>
   <v type="int" >        2       75       76      152      161 </v>
   <v type="int" >        2       76       85      161      162 </v>
   <v type="int" >        2       76      153      161      162 </v>
   <v type="int" >        2       76      152      153      161 </v>
   <v type="int" >        2       77       85       86      162 </v>
   <v type="int" >        2       76       77       85      162 </v>
   <v type="int" >        2       76       77      153      162 </v>
   <v type="int" >        2       77       86      162      163 </v>
   <v type="int" >        2       77      154      162      163 </v>
   <v type="int" >        2       77      153      154      162 </v>
   <v type="int" >        2       69       78       86      163 </v>
   <v type="int" >        2       69       77       86      163 </v>
   <v type="int" >        2       69       77      154      163 </v>
   <v type="int" >        2       69       78      155      163 </v>
   <v type="int" >        2       69      146      155      163 </v>
   <v type="int" >        2       69      146      154      163 </v>
   <v type="int" >        2       79       87       88      155 </v>
   <v type="int" >        2       78       79       87      155 </v>
   <v type="int" >        2       78       79      155      155 </v>
   <v type="int" >        2       79       88      155      163 </v>
   <v type="int" >        2       79      155      156      163 </v>
   <v type="int" >        2       79      155      155      156 </v>
   <v type="int" >        2       80       88       89      163 </v>
   <v type="int" >        2       79       80       88      163 </v>
   <v type="int" >        2       79       80      156      163 </v>
   <v type="int" >        2       80       89      162      163 </v>
   <v type="int" >        2       80      157      162      163 </v>
   <v type="int" >        2       80      156      157      163 </v>
   <v type="int" >        2       81       89       90      162 </v>
   <v type="int" >        2       80       81       89      162 </v>
   <v type="int" >        2       80       81      157      162 </v>
   <v type="int" >        2       81       90      161      162 </v>
   <v type="int" >        2       81      158      161      162 </v>
   <v type="int" >        2       81      157      158      162 </v>
   <v type="int" >        2       82       90       91      161 </v>
   <v type="int" >        2       81       82       90      161 </v>
   <v type="int" >        2       81       82      158      161 </v>
   <v type="int" >        2       82       91      160      161 </v>
   <v type="int" >        2       82      159      160      161 </v>
   <v type="int" >        2       82      158      159      161 </v>
   <v type="int" >        2       83       91       92      160 </v>
   <v type="int" >        2       82       83       91      160 </v>
   <v type="int" >        2       82       83      159      160 </v>
   <v type="int" >        2       83       92      159      160 </v>
   <v type="int" >        4       83      159      160      160 </v>
   <v type="int" >        2       84       92       93      159 </v>
   <v type="int" >        2       83       84       92      159 </v>
   <v type="int" >        2       83       84      159      160 </v>
   <v type="int" >        2       84       93      158      159 </v>
   <v type="int" >        2       84      158      159      161 </v>
   <v type="int" >        2       84      159      160      161 </v>
   <v type="int" >        2       85       93       94      158 </v>
   <v type="int" >        2       84       85       93      158 </v>
   <v type="int" >        2       84       85      158      161 </v>
   <v type="int" >        2       85       94      157      158 </v>
   <v type="int" >        2       85      157      158      162 </v>
   <v type="int" >        2       85      158      161      162 </v>
   <v type="int" >        2       86       94       95      157 </v>
   <v type="int" >        2       85       86       94      157 </v>
   <v type="int" >        2       85       86      157      162 </v>
   <v type="int" >        2       86       95      156      157 </v>
   <v type="int" >        2       86      156      157      163 </v>
   <v type="int" >        2       86      157      162      163 </v>
   <v type="int" >        2       78       87       95      156 </v>
   <v type="int" >        2       78       86       95      156 </v>
   <v type="int" >        2       78       86      156      163 </v>
   <v type="int" >        2       78       87      155      156 </v>
   <v type="int" >        2       78      155      155      156 </v>
   <v type="int" >        2       78      155      156      163 </v>
   <v type="int" >        2       88       96       97      146 </v>
   <v type="int" >        2       87       88       96      146 </v>
   <v type="int" >        2       87       88      146      155 </v>
   <v type="int" >        2       88       97      146      154 </v>
   <v type="int" >        2       88      146      154      163 </v>
   <v type="int" >        2       88      146      155      163 </v>
   <v type="int" >        2       89       97       98      154 </v>
   <v type="int" >        2       88       89       97      154 </v>
   <v type="int" >        2       88       89      154      163 </v>
   <v type="int" >        2       89       98      153      154 </v>
   <v type="int" >        2       89      153      154      162 </v>
   <v type="int" >        2       89      154      162      163 </v>
   <v type="int" >        2       90       98       99      153 </v>
   <v type="int" >        2       89       90       98      153 </v>
   <v type="int" >        2       89       90      153      162 </v>
   <v type="int" >        2       90       99      152      153 </v>
   <v type="int" >        2       90      152      153      161 </v>
   <v type="int" >        2       90      153      161      162 </v>
   <v type="int" >        2       91       99      100      152 </v>
   <v type="int" >        2       90       91       99      152 </v>
   <v type="int" >        2       90       91      152      161 </v>
   <v type="int" >        2       91      100      151      152 </v>
   <v type="int" >        2       91      151      152      160 </v>
   <v type="int" >        2       91      152      160      161 </v>
   <v type="int" >        2       92      100      101      151 </v>
   <v type="int" >        2       91       92      100      151 </v>
   <v type="int" >        2       91       92      151      160 </v>
   <v type="int" >        2       92      101      150      151 </v>
   <v type="int" >        2       92      150      151      159 </v>
   <v type="int" >        2       92      151      159      160 </v>
   <v type="int" >        2       93      101      102      150 </v>
   <v type="int" >        2       92       93      101      150 </v>
   <v type="int" >        2       92       93      150      159 </v>
   <v type="int" >        2       93      102      149      150 </v>
   <v type="int" >        2       93      149      150      158 </v>
   <v type="int" >        2       93      150      158      159 </v>
   <v type="int" >        2       94      102      103      149 </v>
   <v type="int" >        2       93       94      102      149 </v>
   <v type="int" >        2       93       94      149      158 </v>
   <v type="int" >        2       94      103      148      149 </v>
   <v type="int" >        2       94      148      149      157 </v>
   <v type="int" >        2       94      149      157      158 </v>
   <v type="int" >        2       95      103      104      148 </v>
   <v type="int" >        2       94       95      103      148 </v>
   <v type="int" >        2       94       95      148      157 </v>
   <v type="int" >        2       95      104      147      148 </v>
   <v type="int" >        2       95      147      148      156 </v>
   <v type="int" >        2       95      148      156      157 </v>
   <v type="int" >        2       87       96      104      147 </v>
   <v type="int" >        2       87       95      104      147 </v>
   <v type="int" >        2       87       95      147      156 </v>
   <v type="int" >        2       87       96      146      147 </v>
   <v type="int" >        2       87      146      147      155 </v>
   <v type="int" >        2       87      147      155      156 </v>
   <v type="int" >        2       97      105      106      137 </v>
   <v type="int" >        2       96       97      105      137 </v>
   <v type="int" >        2       96       97      137      146 </v>
   <v type="int" >        2       97      106      137      145 </v>
   <v type="int" >        2       97      137      145      154 </v>
   <v type="int" >        2       97      137      146      154 </v>
   <v type="int" >        2       98      106      107      145 </v>
   <v type="int" >        2       97       98      106      145 </v>
   <v type="int" >        2       97       98      145      154 </v>
   <v type="int" >        2       98      107      144      145 </v>
   <v type="int" >        2       98      144      145      153 </v>
   <v type="int" >        2       98      145      153      154 </v>
   <v type="int" >        2       99      107      108      144 </v>
   <v type="int" >        2       98       99      107      144 </v>
   <v type="int" >        2       98       99      144      153 </v>
   <v type="int" >        2       99      108      143      144 </v>
   <v type="int" >        2       99      143      144      152 </v>
   <v type="int" >        2       99      144      152      153 </v>
   <v type="int" >        2      100      108      109      143 </v>
   <v type="int" >        2       99      100      108      143 </v>
   <v type="int" >        2       99      100      143      152 </v>
   <v type="int" >        2      100      109      142      143 </v>
   <v type="int" >        2      100      142      143      151 </v>
   <v type="int" >        2      100      143      151      152 </v>
   <v type="int" >        2      101      109      110      142 </v>
   <v type="int" >        2      100      101      109      142 </v>
   <v type="int" >        2      100      101      142      151 </v>
   <v type="int" >        2      101      110      141      142 </v>
   <v type="int" >        2      101      141      142      150 </v>
   <v type="int" >        2      101      142      150      151 </v>
   <v type="int" >        2      102      110      111      141 </v>
   <v type="int" >        2      101      102      110      141 </v>
   <v type="int" >        2      101      102      141      150 </v>
   <v type="int" >        2      102      111      140      141 </v>
   <v type="int" >        2      102      140      141      149 </v>
   <v type="int" >        2      102      141      149      150 </v>
   <v type="int" >        2      103      111      112      140 </v>
   <v type="int" >        2      102      103      111      140 </v>
   <v type="int" >        2      102      103      140      149 </v>
   <v type="int" >        2      103      112      139      140 </v>
   <v type="int" >        2      103      139      140      148 </v>
   <v type="int" >        2      103      140      148      149 </v>
   <v type="int" >        2      104      112      113      139 </v>
   <v type="int" >        2      103      104      112      139 </v>
   <v type="int" >        2      103      104      139      148 </v>
   <v type="int" >        2      104      113      138      139 </v>
   <v type="int" >        2      104      138      139      147 </v>
   <v type="int" >        2      104      139      147      148 </v>
   <v type="int" >        2       96      105      113      138 </v>
   <v type="int" >        2       96      104      113      138 </v>
   <v type="int" >        2       96      104      138      147 </v>
   <v type="int" >        2       96      105      137      138 </v>
   <v type="int" >        2       96      137      138      146 </v>
   <v type="int" >        2       96      138      146      147 </v>
   <v type="int" >        2      106      114      115      128 </v>
   <v type="int" >        2      105      106      114      128 </v>
   <v type="int" >        2      105      106      128      137 </v>
   <v type="int" >        2      106      115      128      136 </v>
   <v type="int" >        2      106      128      136      145 </v>
   <v type="int" >        2      106      128      137      145 </v>
   <v type="int" >        2      107      115      116      136 </v>
   <v type="int" >        2      106      107      115      136 </v>
   <v type="int" >        2      106      107      136      145 </v>
   <v type="int" >        2      107      116      135      136 </v>
   <v type="int" >        2      107      135      136      144 </v>
   <v type="int" >        2      107      136      144      145 </v>
   <v type="int" >        2      108      116      117      135 </v>
   <v type="int" >        2      107      108      116      135 </v>
   <v type="int" >        2      107      108      135      144 </v>
   <v type="int" >        2      108      117      134      135 </v>
   <v type="int" >        2      108      134      135      143 </v>
   <v type="int" >        2      108      135      143      144 </v>
   <v type="int" >        2      109      117      118      134 </v>
   <v type="int" >        2      108      109      117      134 </v>
   <v type="int" >        2      108      109      134      143 </v>
   <v type="int" >        2      109      118      133      134 </v>
   <v type="int" >        2      109      133      134      142 </v>
   <v type="int" >        2      109      134      142      143 </v>
   <v type="int" >        2      110      118      119      133 </v>
   <v type="int" >        2      109      110      118      133 </v>
   <v type="int" >        2      109      110      133      142 </v>
   <v type="int" >        2      110      119      132      133 </v>
   <v type="int" >        2      110      132      133      141 </v>
   <v type="int" >        2      110      133      141      142 </v>
   <v type="int" >        2      111      119      120      132 </v>
   <v type="int" >        2      110      111      119      132 </v>
   <v type="int" >        2      110      111      132      141 </v>
   <v type="int" >        2      111      120      131      132 </v>
   <v type="int" >        2      111      131      132      140 </v>
   <v type="int" >        2      111      132      140      141 </v>
   <v type="int" >        2      112      120      121      131 </v>
   <v type="int" >        2      111      112      120      131 </v>
   <v type="int" >        2      111      112      131      140 </v>
   <v type="int" >        2      112      121      130      131 </v>
   <v type="int" >        2      112      130      131      139 </v>
   <v type="int" >        2      112      131      139      140 </v>
   <v type="int" >        2      113      121      122      130 </v>
   <v type="int" >        2      112      113      121      130 </v>
   <v type="int" >        2      112      113      130      139 </v>
   <v type="int" >        2      113      122      129      130 </v>
   <v type="int" >        2      113      129      130      138 </v>
   <v type="int" >        2      113      130      138      139 </v>
   <v type="int" >        2      105      114      122      129 </v>
   <v type="int" >        2      105      113      122      129 </v>
   <v type="int" >        2      105      113      129      138 </v>
   <v type="int" >        2      105      114      128      129 </v>
   <v type="int" >        2      105      128      129      137 </v>
   <v type="int" >        2      105      129      137      138 </v>
   <v type="int" >        2       42       43      115      123 </v>
   <v type="int" >        2       42      114      115      123 </v>
[...]
       <r>    4.5478    1.0000 </r>
       <r>    4.5533    1.0000 </r>
       <r>    4.5866    1.0000 </r>
       <r>    4.5896    1.0000 </r>
       <r>    4.8527    1.0000 </r>
       <r>    4.8558    1.0000 </r>
       <r>    5.2782    1.0000 </r>
       <r>    5.2840    1.0000 </r>
       <r>    5.5110    1.0000 </r>
       <r>    5.5160    1.0000 </r>
       <r>    5.6373    1.0000 </r>
       <r>    5.6404    1.0000 </r>
       <r>    6.4230    1.0000 </r>
       <r>    6.4257    1.0000 </r>
       <r>    6.6967    1.0000 </r>
       <r>    6.7023    1.0000 </r>
       <r>    7.4588    1.0000 </r>
       <r>    7.4622    1.0000 </r>
       <r>    8.5356    1.0000 </r>
       <r>    8.5399    1.0000 </r>
       <r>    8.5424    1.0000 </r>
       <r>    8.5451    1.0000 </r>
       <r>    8.7345    1.0000 </r>
       <r>    8.7393    1.0000 </r>
       <r>    9.6357    1.0000 </r>
       <r>    9.6396    1.0000 </r>
       <r>    9.8236    1.0000 </r>
       <r>    9.8275    1.0000 </r>
       <r>   13.3388    1.0000 </r>
       <r>   13.3440    1.0000 </r>
       <r>   14.3036    1.0000 </r>
       <r>   14.3052    1.0000 </r>
       <r>   14.6773    1.0000 </r>
       <r>   14.6799    1.0000 </r>
       <r>   15.3919    0.9703 </r>
       <r>   15.3936    1.0111 </r>
       <r>   16.2315   -0.2429 </r>
       <r>   16.2337   -0.0019 </r>
       <r>   16.5997    0.0000 </r>
       <r>   16.6044    0.0000 </r>
       <r>   16.8758    0.0000 </r>
       <r>   16.8812    0.0000 </r>
       <r>   17.0862    0.0000 </r>
       <r>   17.0943    0.0000 </r>
       <r>   17.7923    0.0000 </r>
       <r>   17.7962    0.0000 </r>
       <r>   18.9859    0.0000 </r>
       <r>   18.9905    0.0000 </r>
       <r>   19.3333    0.0000 </r>
       <r>   19.3351    0.0000 </r>
       <r>   20.4812    0.0000 </r>
       <r>   20.4835    0.0000 </r>
       <r>   21.6723    0.0000 </r>
       <r>   21.6778    0.0000 </r>
       <r>   22.9693    0.0000 </r>
       <r>   22.9721    0.0000 </r>
      </set>
     </set>
    </set>
   </array>
  </eigenvalues>
  <separator name="orbital magnetization" >
   <v name="MAGDIPOLOUT">      0.00000000      0.00000000      0.00000000</v>
  </separator>
  <dos>
   <i name="efermi">     15.61217695 </i>
   <total>
    <array>
     <dimension dim="1">gridpoints</dimension>
     <dimension dim="2">spin</dimension>
     <field>energy</field>
     <field>total</field>
     <field>integrated</field>
     <set>
      <set comment="spin 1">
       <r>   -13.3286     0.0000     0.0000 </r>
       <r>   -13.1980     0.0000     0.0000 </r>
       <r>   -13.0674     0.0000     0.0000 </r>
       <r>   -12.9368     0.0000     0.0000 </r>
       <r>   -12.8063     0.0000     0.0000 </r>
       <r>   -12.6757     0.0000     0.0000 </r>
       <r>   -12.5451     0.0000     0.0000 </r>
       <r>   -12.4145     0.0000     0.0000 </r>
       <r>   -12.2839     0.0000     0.0000 </r>
       <r>   -12.1533     0.0000     0.0000 </r>
       <r>   -12.0227     0.0000     0.0000 </r>
       <r>   -11.8921     0.0000     0.0000 </r>
       <r>   -11.7616     0.0000     0.0000 </r>
       <r>   -11.6310     0.0000     0.0000 </r>
       <r>   -11.5004     0.0000     0.0000 </r>
       <r>   -11.3698     0.0000     0.0000 </r>
       <r>   -11.2392     0.2503     0.0083 </r>
       <r>   -11.1086     0.6099     0.0664 </r>
       <r>   -10.9780     0.7575     0.1556 </r>
       <r>   -10.8475     0.8926     0.2627 </r>
       <r>   -10.7169     1.0609     0.3909 </r>
       <r>   -10.5863     1.1605     0.5372 </r>
       <r>   -10.4557     1.2602     0.6951 </r>
       <r>   -10.3251     1.3643     0.8666 </r>
       <r>   -10.1945     1.4400     1.0498 </r>
       <r>   -10.0639     1.5351     1.2434 </r>
       <r>    -9.9334     1.7244     1.4573 </r>
       <r>    -9.8028     1.8617     1.6882 </r>
       <r>    -9.6722     1.8798     1.9384 </r>
       <r>    -9.5416     1.7224     2.1660 </r>
       <r>    -9.4110     2.1281     2.4151 </r>
       <r>    -9.2804     2.2376     2.7062 </r>
       <r>    -9.1498     2.4874     2.9973 </r>
       <r>    -9.0193     2.7328     3.3545 </r>
       <r>    -8.8887     1.6946     3.6264 </r>
       <r>    -8.7581     1.3583     3.8094 </r>
       <r>    -8.6275     1.6938     4.0066 </r>
       <r>    -8.4969     2.3832     4.2622 </r>
       <r>    -8.3663     3.0651     4.6304 </r>
       <r>    -8.2357     2.6430     5.0173 </r>
       <r>    -8.1052     2.5478     5.3468 </r>
       <r>    -7.9746     2.5350     5.6782 </r>
       <r>    -7.8440     2.5732     6.0118 </r>
       <r>    -7.7134     2.9917     6.3632 </r>
       <r>    -7.5828     3.1199     6.7631 </r>
       <r>    -7.4522     3.3572     7.1887 </r>
       <r>    -7.3216     3.1930     7.6208 </r>
       <r>    -7.1910     2.9041     8.0188 </r>
       <r>    -7.0605     2.5603     8.3731 </r>
       <r>    -6.9299     2.5484     8.7040 </r>
       <r>    -6.7993     2.6808     9.0427 </r>
       <r>    -6.6687     3.3133     9.4283 </r>
       <r>    -6.5381     3.3654     9.8620 </r>
       <r>    -6.4075     3.8143    10.3290 </r>
       <r>    -6.2769     3.7040    10.8266 </r>
       <r>    -6.1464     3.3518    11.2870 </r>
       <r>    -6.0158     3.3413    11.7224 </r>
       <r>    -5.8852     3.2323    12.1562 </r>
       <r>    -5.7546     3.6576    12.6040 </r>
       <r>    -5.6240     3.6916    13.0890 </r>
       <r>    -5.4934     3.6165    13.5642 </r>
       <r>    -5.3628     3.5315    14.0292 </r>
       <r>    -5.2323     3.8136    14.5246 </r>
       <r>    -5.1017     3.7183    15.0194 </r>
       <r>    -4.9711     3.5539    15.4916 </r>
       <r>    -4.8405     3.8255    15.9692 </r>
       <r>    -4.7099     4.1729    16.4953 </r>
       <r>    -4.5793     4.3759    17.0537 </r>
       <r>    -4.4487     4.5724    17.6381 </r>
       <r>    -4.3182     4.9573    18.2596 </r>
       <r>    -4.1876     4.5948    18.9117 </r>
       <r>    -4.0570     3.0082    19.4059 </r>
       <r>    -3.9264     1.9682    19.7147 </r>
       <r>    -3.7958     1.3610    19.9414 </r>
       <r>    -3.6652     1.2988    20.1092 </r>
       <r>    -3.5346     1.7272    20.3018 </r>
       <r>    -3.4040     3.6297    20.6632 </r>
       <r>    -3.2735     5.4043    21.2152 </r>
       <r>    -3.1429     5.8869    21.9573 </r>
       <r>    -3.0123     5.7739    22.7108 </r>
       <r>    -2.8817     4.7991    23.4220 </r>
       <r>    -2.7511     4.2022    23.9996 </r>
       <r>    -2.6205     3.9399    24.5295 </r>
       <r>    -2.4899     3.7230    25.0392 </r>
       <r>    -2.3594     3.9673    25.5347 </r>
       <r>    -2.2288     4.2884    26.0782 </r>
       <r>    -2.0982     4.5292    26.6443 </r>
       <r>    -1.9676     4.2701    27.2079 </r>
       <r>    -1.8370     4.4814    27.7731 </r>
       <r>    -1.7064     4.4624    28.3564 </r>
       <r>    -1.5758     5.0829    28.9983 </r>
       <r>    -1.4453     5.0423    29.6457 </r>
       <r>    -1.3147     5.1784    30.3152 </r>
       <r>    -1.1841     5.0156    30.9947 </r>
       <r>    -1.0535     4.7988    31.6387 </r>
       <r>    -0.9229     4.0888    32.2156 </r>
       <r>    -0.7923     4.0614    32.7396 </r>
       <r>    -0.6617     4.5748    33.2947 </r>
       <r>    -0.5312     5.4502    33.9479 </r>
       <r>    -0.4006     5.6143    34.6775 </r>
       <r>    -0.2700     5.8349    35.4224 </r>
       <r>    -0.1394     6.2094    36.2029 </r>
       <r>    -0.0088     6.4222    37.0389 </r>
       <r>     0.1218     6.1712    37.8659 </r>
       <r>     0.2524     6.2136    38.6683 </r>
       <r>     0.3829     6.0648    39.4780 </r>
       <r>     0.5135     5.6778    40.2544 </r>
       <r>     0.6441     4.9845    40.9473 </r>
       <r>     0.7747     4.2729    41.5593 </r>
       <r>     0.9053     3.8941    42.1015 </r>
       <r>     1.0359     3.7323    42.5699 </r>
       <r>     1.1665     4.4436    43.1166 </r>
       <r>     1.2971     4.6014    43.7042 </r>
       <r>     1.4276     6.0769    44.4138 </r>
       <r>     1.5582     6.4648    45.2635 </r>
       <r>     1.6888     6.1519    46.0868 </r>
       <r>     1.8194     6.2740    46.8918 </r>
       <r>     1.9500     6.3955    47.7243 </r>
       <r>     2.0806     5.8832    48.5248 </r>
       <r>     2.2112     6.2529    49.3010 </r>
       <r>     2.3417     6.2189    50.1236 </r>
       <r>     2.4723     5.7358    50.9024 </r>
       <r>     2.6029     6.5438    51.6813 </r>
       <r>     2.7335     6.2376    52.5441 </r>
       <r>     2.8641     7.5395    53.4342 </r>
       <r>     2.9947     8.1159    54.4510 </r>
       <r>     3.1253     7.7135    55.5158 </r>
       <r>     3.2558     5.6565    56.3475 </r>
       <r>     3.3864     5.4531    57.0495 </r>
       <r>     3.5170     6.1014    57.8116 </r>
       <r>     3.6476     7.3903    58.6814 </r>
       <r>     3.7782     8.2857    59.6843 </r>
       <r>     3.9088     8.3894    60.7601 </r>
       <r>     4.0394     9.3098    61.9262 </r>
       <r>     4.1699     9.9055    63.1560 </r>
       <r>     4.3005     7.1212    64.2887 </r>
       <r>     4.4311     7.4449    65.1530 </r>
       <r>     4.5617    10.2363    66.3460 </r>
       <r>     4.6923     9.7702    67.6121 </r>
       <r>     4.8229     8.9425    68.8573 </r>
       <r>     4.9535     7.8927    69.9337 </r>
       <r>     5.0840     7.6408    70.9053 </r>
       <r>     5.2146     8.5356    71.9864 </r>
       <r>     5.3452     6.2724    72.9617 </r>
       <r>     5.4758     6.2028    73.7646 </r>
       <r>     5.6064     6.6826    74.6316 </r>
       <r>     5.7370     6.7876    75.5149 </r>
       <r>     5.8676     7.0884    76.4132 </r>
       <r>     5.9982     7.3576    77.3581 </r>
       <r>     6.1287     7.6010    78.3252 </r>
       <r>     6.2593     7.0488    79.2999 </r>
       <r>     6.3899     7.5687    80.2723 </r>
       <r>     6.5205     7.5983    81.2850 </r>
       <r>     6.6511     8.7513    82.4139 </r>
       <r>     6.7817     6.0053    83.4352 </r>
       <r>     6.9123     5.4957    84.1657 </r>
       <r>     7.0428     6.4530    84.9356 </r>
       <r>     7.1734     7.7414    85.8690 </r>
       <r>     7.3040     8.0063    86.8586 </r>
       <r>     7.4346     8.0474    87.9128 </r>
       <r>     7.5652     6.4518    88.9150 </r>
       <r>     7.6958     5.4885    89.6398 </r>
       <r>     7.8264     7.1336    90.4673 </r>
       <r>     7.9569     8.1210    91.5305 </r>
       <r>     8.0875     7.1539    92.5213 </r>
       <r>     8.2181     6.5779    93.4266 </r>
       <r>     8.3487     6.2430    94.2435 </r>
       <r>     8.4793     6.8476    95.0917 </r>
       <r>     8.6099     6.1314    95.9594 </r>
       <r>     8.7405     5.6339    96.7277 </r>
       <r>     8.8710     6.0185    97.4723 </r>
       <r>     9.0016     7.2029    98.3389 </r>
       <r>     9.1322     7.3532    99.3110 </r>
       <r>     9.2628     6.3923   100.2086 </r>
       <r>     9.3934     6.2768   101.0339 </r>
       <r>     9.5240     6.0611   101.8430 </r>
       <r>     9.6546     6.0408   102.6308 </r>
       <r>     9.7852     5.6483   103.3939 </r>
       <r>     9.9157     5.0622   104.0991 </r>
       <r>    10.0463     4.3742   104.7089 </r>
       <r>    10.1769     4.8206   105.3042 </r>
       <r>    10.3075     5.4829   105.9880 </r>
       <r>    10.4381     5.1809   106.7087 </r>
       <r>    10.5687     5.5528   107.4075 </r>
       <r>    10.6993     5.1996   108.0931 </r>
       <r>    10.8298     3.9076   108.6735 </r>
       <r>    10.9604     3.3649   109.1603 </r>
       <r>    11.0910     2.5893   109.5481 </r>
       <r>    11.2216     2.1696   109.8526 </r>
       <r>    11.3522     2.2333   110.1377 </r>
       <r>    11.4828     2.4035   110.4416 </r>
       <r>    11.6134     2.6752   110.7695 </r>
       <r>    11.7439     2.8512   111.1349 </r>
       <r>    11.8745     3.0048   111.5109 </r>
       <r>    12.0051     3.1328   111.9112 </r>
       <r>    12.1357     3.1216   112.3179 </r>
       <r>    12.2663     2.8984   112.7197 </r>
       <r>    12.3969     2.7235   113.0834 </r>
       <r>    12.5275     3.0294   113.4528 </r>
       <r>    12.6580     3.5149   113.8848 </r>
       <r>    12.7886     3.5508   114.3396 </r>
       <r>    12.9192     3.9573   114.8285 </r>
       <r>    13.0498     4.6455   115.4018 </r>
       <r>    13.1804     3.9072   115.9300 </r>
       <r>    13.3110     3.8872   116.4401 </r>
       <r>    13.4416     3.4397   116.9152 </r>
       <r>    13.5721     3.2283   117.3645 </r>
       <r>    13.7027     2.8571   117.7530 </r>
       <r>    13.8333     2.9093   118.1270 </r>
       <r>    13.9639     3.2595   118.5257 </r>
       <r>    14.0945     3.9730   118.9931 </r>
       <r>    14.2251     4.8964   119.5891 </r>
       <r>    14.3557     5.5327   120.2643 </r>
       <r>    14.4863     5.8293   121.0157 </r>
       <r>    14.6168     5.4389   121.7499 </r>
       <r>    14.7474     5.2314   122.4633 </r>
       <r>    14.8780     5.5275   123.1603 </r>
       <r>    15.0086     5.2781   123.8811 </r>
       <r>    15.1392     4.1087   124.4582 </r>
       <r>    15.2698     4.5517   125.0291 </r>
       <r>    15.4004     8.2312   125.7732 </r>
       <r>    15.5309    10.5506   127.1502 </r>
       <r>    15.6615     8.0423   128.4357 </r>
       <r>    15.7921     7.6682   129.4392 </r>
       <r>    15.9227     9.0500   130.5097 </r>
       <r>    16.0533    11.0958   131.8153 </r>
       <r>    16.1839     9.4501   133.1257 </r>
       <r>    16.3145     9.3078   134.3413 </r>
       <r>    16.4450    10.5001   135.6414 </r>
       <r>    16.5756     9.4932   136.9686 </r>
       <r>    16.7062     8.4893   138.1398 </r>
       <r>    16.8368     8.0641   139.1849 </r>
       <r>    16.9674     9.5189   140.3535 </r>
       <r>    17.0980    10.8722   141.6304 </r>
       <r>    17.2286    10.1699   142.9806 </r>
       <r>    17.3591     7.9677   144.1977 </r>
       <r>    17.4897     6.9554   145.1269 </r>
       <r>    17.6203     7.2378   146.0465 </r>
       <r>    17.7509     6.6525   147.0118 </r>
       <r>    17.8815     6.0149   147.8163 </r>
       <r>    18.0121     6.4237   148.6184 </r>
       <r>    18.1427     6.5667   149.4514 </r>
       <r>    18.2732     6.1156   150.2604 </r>
       <r>    18.4038     6.0970   151.0587 </r>
       <r>    18.5344     5.8965   151.8406 </r>
       <r>    18.6650     5.7037   152.5815 </r>
       <r>    18.7956     7.6107   153.5614 </r>
       <r>    18.9262     5.0682   154.3169 </r>
       <r>    19.0568     4.6971   154.9627 </r>
       <r>    19.1874     4.1826   155.5328 </r>
       <r>    19.3179     3.8026   156.0520 </r>
       <r>    19.4485     3.7903   156.5470 </r>
       <r>    19.5791     3.4921   157.0234 </r>
       <r>    19.7097     3.0313   157.4537 </r>
       <r>    19.8403     2.4579   157.8046 </r>
       <r>    19.9709     2.2574   158.1117 </r>
       <r>    20.1015     2.1868   158.3978 </r>
       <r>    20.2320     2.3378   158.6738 </r>
       <r>    20.3626     2.2186   158.9893 </r>
       <r>    20.4932     2.2789   159.2708 </r>
       <r>    20.6238     2.8817   159.6155 </r>
       <r>    20.7544     3.3680   160.0198 </r>
       <r>    20.8850     3.7575   160.4991 </r>
       <r>    21.0156     3.9138   160.9896 </r>
       <r>    21.1461     3.4475   161.4711 </r>
       <r>    21.2767     2.6796   161.8711 </r>
       <r>    21.4073     2.4472   162.2032 </r>
       <r>    21.5379     2.5288   162.5278 </r>
       <r>    21.6685     2.6037   162.8618 </r>
       <r>    21.7991     2.6062   163.2047 </r>
       <r>    21.9297     2.5790   163.5380 </r>
       <r>    22.0602     2.7179   163.8829 </r>
       <r>    22.1908     2.9125   164.2498 </r>
       <r>    22.3214     3.1469   164.6448 </r>
       <r>    22.4520     3.3845   165.0704 </r>
       <r>    22.5826     3.8273   165.5369 </r>
       <r>    22.7132     4.2729   166.0665 </r>
       <r>    22.8438     4.4965   166.6572 </r>
       <r>    22.9744     3.3465   167.1518 </r>
       <r>    23.1049     2.4510   167.5329 </r>
       <r>    23.2355     1.1627   167.7677 </r>
       <r>    23.3661     0.7081   167.8864 </r>
       <r>    23.4967     0.3916   167.9570 </r>
       <r>    23.6273     0.1429   167.9922 </r>
       <r>    23.7579     0.0148   167.9996 </r>
       <r>    23.8885     0.0000   168.0000 </r>
       <r>    24.0190     0.0000   168.0000 </r>
       <r>    24.1496     0.0000   168.0000 </r>
       <r>    24.2802     0.0000   168.0000 </r>
       <r>    24.4108     0.0000   168.0000 </r>
       <r>    24.5414     0.0000   168.0000 </r>
       <r>    24.6720     0.0000   168.0000 </r>
       <r>    24.8026     0.0000   168.0000 </r>
       <r>    24.9331     0.0000   168.0000 </r>
       <r>    25.0637     0.0000   168.0000 </r>
       <r>    25.1943     0.0000   168.0000 </r>
       <r>    25.3249     0.0000   168.0000 </r>
       <r>    25.4555     0.0000   168.0000 </r>
       <r>    25.5861     0.0000   168.0000 </r>
       <r>    25.7167     0.0000   168.0000 </r>
       <r>    25.8472     0.0000   168.0000 </r>
      </set>
     </set>
    </array>
   </total>
  </dos>
 </calculation>
 <structure name="finalpos" >
  <crystal>
   <varray name="basis" >
    <v>       4.93431088      -0.00022240       0.00000000 </v>
    <v>      -2.46734805       4.27312738       0.00000000 </v>
    <v>       0.00000000       0.00000000       6.72574231 </v>
   </varray>
   <i name="volume">    141.80817516 </i>
   <varray name="rec_basis" >
    <v>       0.20266782       0.11702250       0.00000000 </v>
    <v>       0.00001055       0.23402673       0.00000000 </v>
    <v>       0.00000000       0.00000000       0.14868247 </v>
   </varray>
  </crystal>
  <varray name="positions" >
   <v>       0.49999985       0.00000017       0.12500000 </v>
   <v>       0.99999985       0.00000017       0.12500000 </v>
   <v>       0.49999985       0.50000017       0.12500000 </v>
   <v>       0.99999985       0.50000017       0.12500000 </v>
   <v>       0.49999985       0.00000017       0.62500000 </v>
   <v>       0.99999985       0.00000017       0.62500000 </v>
   <v>       0.49999985       0.50000017       0.62500000 </v>
   <v>       0.99999985       0.50000017       0.62500000 </v>
   <v>       0.00000017       0.49999985       0.37500000 </v>
   <v>       0.50000017       0.49999985       0.37500000 </v>
   <v>       0.00000017       0.99999985       0.37500000 </v>
   <v>       0.50000017       0.99999985       0.37500000 </v>
   <v>       0.00000017       0.49999985       0.87500000 </v>
   <v>       0.50000017       0.49999985       0.87500000 </v>
   <v>       0.00000017       0.99999985       0.87500000 </v>
   <v>       0.50000017       0.99999985       0.87500000 </v>
   <v>       0.16784827       0.33335053       0.12619880 </v>
   <v>       0.66664946       0.33335053       0.12500000 </v>
   <v>       0.16664946       0.83335053       0.12500000 </v>
   <v>       0.66664946       0.83335053       0.12500000 </v>
   <v>       0.16664946       0.33335053       0.62500000 </v>
   <v>       0.66664946       0.33335053       0.62500000 </v>
   <v>       0.16664946       0.83335053       0.62500000 </v>
   <v>       0.66664946       0.83335053       0.62500000 </v>
   <v>       0.33335053       0.16664946       0.37500000 </v>
   <v>       0.83335053       0.16664946       0.37500000 </v>
   <v>       0.33335053       0.66664946       0.37500000 </v>
   <v>       0.83335053       0.66664946       0.37500000 </v>
   <v>       0.33335053       0.16664946       0.87500000 </v>
   <v>       0.83335053       0.16664946       0.87500000 </v>
   <v>       0.33335053       0.66664946       0.87500000 </v>
   <v>       0.83335053       0.66664946       0.87500000 </v>
  </varray>
 </structure>
</modeling>
