   4   4   0   0
  0.8905205E+01  0.2466437E-09  0.2466437E-09  0.6764386E-09  0.5000000E-15
  1.000000000000000E-004
  CAR 
 graphite                                
     18.42237075    -17.01675436  301      4.60428226      1.00000000
    -17.017  0.0000E+00  0.0000E+00
    -16.899  0.0000E+00  0.0000E+00
    -16.780  0.0000E+00  0.0000E+00
    -16.662  0.0000E+00  0.0000E+00
    -16.544  0.0000E+00  0.0000E+00
    -16.426  0.0000E+00  0.0000E+00
    -16.308  0.0000E+00  0.0000E+00
    -16.190  0.0000E+00  0.0000E+00
    -16.072  0.0000E+00  0.0000E+00
    -15.954  0.0000E+00  0.0000E+00
    -15.835  0.0000E+00  0.0000E+00
    -15.717  0.0000E+00  0.0000E+00
    -15.599  0.0000E+00  0.0000E+00
    -15.481  0.0000E+00  0.0000E+00
    -15.363  0.0000E+00  0.0000E+00
    -15.245  0.0000E+00  0.0000E+00
    -15.127  0.0000E+00  0.0000E+00
    -15.009  0.2870E-04  0.7862E-07
    -14.890  0.1280E-02  0.9173E-04
    -14.772  0.2251E-02  0.2979E-03
    -14.654  0.2951E-02  0.6309E-03
    -14.536  0.3145E-02  0.9928E-03
    -14.418  0.3061E-02  0.1357E-02
    -14.300  0.3095E-02  0.1721E-02
    -14.182  0.3078E-02  0.2085E-02
    -14.063  0.3105E-02  0.2452E-02
    -13.945  0.3111E-02  0.2819E-02
    -13.827  0.3071E-02  0.3185E-02
    -13.709  0.3105E-02  0.3549E-02
    -13.591  0.3137E-02  0.3919E-02
    -13.473  0.3132E-02  0.4289E-02
    -13.355  0.3102E-02  0.4658E-02
    -13.237  0.3107E-02  0.5024E-02
    -13.118  0.3142E-02  0.5393E-02
    -13.000  0.3170E-02  0.5767E-02
    -12.882  0.3164E-02  0.6141E-02
    -12.764  0.3137E-02  0.6513E-02
    -12.646  0.3141E-02  0.6884E-02
    -12.528  0.3161E-02  0.7256E-02
    -12.410  0.3191E-02  0.7631E-02
    -12.292  0.3208E-02  0.8009E-02
    -12.173  0.3203E-02  0.8388E-02
    -12.055  0.3189E-02  0.8766E-02
    -11.937  0.3195E-02  0.9143E-02
    -11.819  0.3212E-02  0.9521E-02
    -11.701  0.3235E-02  0.9902E-02
    -11.583  0.3264E-02  0.1029E-01
    -11.465  0.3273E-02  0.1067E-01
    -11.346  0.3273E-02  0.1106E-01
    -11.228  0.3274E-02  0.1144E-01
    -11.110  0.3292E-02  0.1183E-01
    -10.992  0.3317E-02  0.1222E-01
    -10.874  0.3346E-02  0.1262E-01
    -10.756  0.3383E-02  0.1301E-01
    -10.638  0.3422E-02  0.1342E-01
    -10.520  0.3453E-02  0.1382E-01
    -10.401  0.3498E-02  0.1423E-01
    -10.283  0.3583E-02  0.1465E-01
    -10.165  0.3729E-02  0.1508E-01
    -10.047  0.3934E-02  0.1553E-01
     -9.929  0.4506E-02  0.1601E-01
     -9.811  0.5251E-02  0.1660E-01
     -9.693  0.4411E-02  0.1721E-01
     -9.575  0.3253E-02  0.1765E-01
     -9.456  0.3636E-02  0.1811E-01
     -9.338  0.2288E-02  0.1849E-01
     -9.220  0.2036E-02  0.1875E-01
     -9.102  0.1783E-02  0.1897E-01
     -8.984  0.1530E-02  0.1917E-01
     -8.866  0.1675E-02  0.1935E-01
     -8.748  0.1662E-02  0.1957E-01
     -8.629  0.8608E-03  0.1972E-01
     -8.511  0.1157E-02  0.1983E-01
     -8.393  0.2247E-02  0.2001E-01
     -8.275  0.3737E-02  0.2042E-01
     -8.157  0.2706E-02  0.2082E-01
     -8.039  0.2835E-02  0.2115E-01
     -7.921  0.4344E-02  0.2158E-01
     -7.803  0.3979E-02  0.2211E-01
     -7.684  0.4666E-02  0.2262E-01
     -7.566  0.5397E-02  0.2322E-01
     -7.448  0.4601E-02  0.2384E-01
     -7.330  0.3828E-02  0.2431E-01
     -7.212  0.3673E-02  0.2475E-01
     -7.094  0.3527E-02  0.2517E-01
     -6.976  0.3383E-02  0.2558E-01
     -6.858  0.3244E-02  0.2597E-01
     -6.739  0.3102E-02  0.2635E-01
     -6.621  0.2991E-02  0.2671E-01
     -6.503  0.2955E-02  0.2706E-01
     -6.385  0.2919E-02  0.2741E-01
     -6.267  0.2883E-02  0.2775E-01
     -6.149  0.2846E-02  0.2809E-01
     -6.031  0.2700E-02  0.2842E-01
     -5.912  0.2570E-02  0.2873E-01
     -5.794  0.2973E-02  0.2905E-01
     -5.676  0.3405E-02  0.2943E-01
     -5.558  0.3835E-02  0.2986E-01
     -5.440  0.3833E-02  0.3032E-01
     -5.322  0.3710E-02  0.3076E-01
     -5.204  0.3653E-02  0.3120E-01
     -5.086  0.3596E-02  0.3163E-01
     -4.967  0.3625E-02  0.3205E-01
     -4.849  0.3726E-02  0.3248E-01
     -4.731  0.3820E-02  0.3293E-01
     -4.613  0.3907E-02  0.3339E-01
     -4.495  0.3945E-02  0.3385E-01
     -4.377  0.3955E-02  0.3432E-01
     -4.259  0.3933E-02  0.3478E-01
     -4.141  0.3933E-02  0.3524E-01
     -4.022  0.4030E-02  0.3572E-01
     -3.904  0.4070E-02  0.3620E-01
     -3.786  0.4365E-02  0.3669E-01
     -3.668  0.4642E-02  0.3722E-01
     -3.550  0.4943E-02  0.3779E-01
     -3.432  0.5186E-02  0.3839E-01
     -3.314  0.5421E-02  0.3901E-01
     -3.195  0.5616E-02  0.3966E-01
     -3.077  0.5801E-02  0.4034E-01
     -2.959  0.5983E-02  0.4103E-01
     -2.841  0.6162E-02  0.4175E-01
     -2.723  0.6748E-02  0.4251E-01
     -2.605  0.7303E-02  0.4334E-01
     -2.487  0.7577E-02  0.4422E-01
     -2.369  0.7574E-02  0.4512E-01
     -2.250  0.7761E-02  0.4601E-01
     -2.132  0.7273E-02  0.4689E-01
     -2.014  0.7955E-02  0.4777E-01
     -1.896  0.1121E-01  0.4894E-01
     -1.778  0.1253E-01  0.5036E-01
     -1.660  0.1012E-01  0.5170E-01
     -1.542  0.9330E-02  0.5286E-01
     -1.424  0.8712E-02  0.5389E-01
     -1.305  0.7709E-02  0.5488E-01
     -1.187  0.7407E-02  0.5575E-01
     -1.069  0.5849E-02  0.5652E-01
     -0.951  0.6812E-02  0.5725E-01
     -0.833  0.7121E-02  0.5809E-01
     -0.715  0.7560E-02  0.5895E-01
     -0.597  0.6201E-02  0.5982E-01
     -0.478  0.6218E-02  0.6055E-01
     -0.360  0.6512E-02  0.6131E-01
     -0.242  0.6779E-02  0.6209E-01
     -0.124  0.6924E-02  0.6290E-01
     -0.006  0.6304E-02  0.6369E-01
      0.112  0.6102E-02  0.6442E-01
      0.230  0.5975E-02  0.6513E-01
      0.348  0.5853E-02  0.6583E-01
      0.467  0.5738E-02  0.6652E-01
      0.585  0.5761E-02  0.6720E-01
      0.703  0.5850E-02  0.6789E-01
      0.821  0.5742E-02  0.6857E-01
      0.939  0.5606E-02  0.6924E-01
      1.057  0.5532E-02  0.6990E-01
      1.175  0.5745E-02  0.7057E-01
      1.293  0.5548E-02  0.7124E-01
      1.412  0.5583E-02  0.7192E-01
      1.530  0.5217E-02  0.7259E-01
      1.648  0.3761E-02  0.7310E-01
      1.766  0.4192E-02  0.7356E-01
      1.884  0.4413E-02  0.7408E-01
      2.002  0.4322E-02  0.7460E-01
      2.120  0.4274E-02  0.7510E-01
      2.239  0.4477E-02  0.7562E-01
      2.357  0.4484E-02  0.7615E-01
      2.475  0.4607E-02  0.7669E-01
      2.593  0.3844E-02  0.7720E-01
      2.711  0.3144E-02  0.7762E-01
      2.829  0.2664E-02  0.7796E-01
      2.947  0.2376E-02  0.7826E-01
      3.065  0.2125E-02  0.7852E-01
      3.184  0.1989E-02  0.7876E-01
      3.302  0.1812E-02  0.7899E-01
      3.420  0.1553E-02  0.7919E-01
      3.538  0.1295E-02  0.7936E-01
      3.656  0.1133E-02  0.7950E-01
      3.774  0.9691E-03  0.7962E-01
      3.892  0.8048E-03  0.7973E-01
      4.010  0.6473E-03  0.7981E-01
      4.129  0.5225E-03  0.7988E-01
      4.247  0.3775E-03  0.7994E-01
      4.365  0.2429E-03  0.7997E-01
      4.483  0.1167E-03  0.7999E-01
      4.601  0.3555E-05  0.8000E-01
      4.719  0.7826E-04  0.8000E-01
      4.837  0.1690E-03  0.8002E-01
      4.956  0.2696E-03  0.8004E-01
      5.074  0.3824E-03  0.8008E-01
      5.192  0.5133E-03  0.8014E-01
      5.310  0.6885E-03  0.8021E-01
      5.428  0.9406E-03  0.8030E-01
      5.546  0.1213E-02  0.8043E-01
      5.664  0.1475E-02  0.8059E-01
      5.782  0.1754E-02  0.8078E-01
      5.901  0.1994E-02  0.8100E-01
      6.019  0.2849E-02  0.8129E-01
      6.137  0.4185E-02  0.8173E-01
      6.255  0.4940E-02  0.8235E-01
      6.373  0.4637E-02  0.8292E-01
      6.491  0.4454E-02  0.8345E-01
      6.609  0.4180E-02  0.8398E-01
      6.727  0.4189E-02  0.8447E-01
      6.846  0.4232E-02  0.8497E-01
      6.964  0.3573E-02  0.8542E-01
      7.082  0.3318E-02  0.8583E-01
      7.200  0.3105E-02  0.8621E-01
      7.318  0.2957E-02  0.8657E-01
      7.436  0.2837E-02  0.8691E-01
      7.554  0.2730E-02  0.8724E-01
      7.673  0.2635E-02  0.8755E-01
      7.791  0.2565E-02  0.8786E-01
      7.909  0.2505E-02  0.8816E-01
      8.027  0.2448E-02  0.8845E-01
      8.145  0.2389E-02  0.8874E-01
      8.263  0.2324E-02  0.8902E-01
      8.381  0.2263E-02  0.8929E-01
      8.499  0.2210E-02  0.8955E-01
      8.618  0.2161E-02  0.8981E-01
      8.736  0.2114E-02  0.9006E-01
      8.854  0.2077E-02  0.9031E-01
      8.972  0.2225E-02  0.9056E-01
      9.090  0.2355E-02  0.9084E-01
      9.208  0.2395E-02  0.9112E-01
      9.326  0.2419E-02  0.9140E-01
      9.444  0.2463E-02  0.9169E-01
      9.563  0.2494E-02  0.9198E-01
      9.681  0.2500E-02  0.9228E-01
      9.799  0.2516E-02  0.9257E-01
      9.917  0.2541E-02  0.9287E-01
     10.035  0.2587E-02  0.9317E-01
     10.153  0.2636E-02  0.9348E-01
     10.271  0.2694E-02  0.9380E-01
     10.390  0.2765E-02  0.9412E-01
     10.508  0.2857E-02  0.9445E-01
     10.626  0.3547E-02  0.9484E-01
     10.744  0.3368E-02  0.9525E-01
     10.862  0.2600E-02  0.9559E-01
     10.980  0.2432E-02  0.9589E-01
     11.098  0.2281E-02  0.9616E-01
     11.216  0.2145E-02  0.9643E-01
     11.335  0.2076E-02  0.9667E-01
     11.453  0.2192E-02  0.9692E-01
     11.571  0.2548E-02  0.9720E-01
     11.689  0.2835E-02  0.9752E-01
     11.807  0.3006E-02  0.9787E-01
     11.925  0.4055E-02  0.9827E-01
     12.043  0.5789E-02  0.9885E-01
     12.161  0.7268E-02  0.9962E-01
     12.280  0.8738E-02  0.1006E+00
     12.398  0.9117E-02  0.1016E+00
     12.516  0.8882E-02  0.1027E+00
     12.634  0.7858E-02  0.1037E+00
     12.752  0.7728E-02  0.1046E+00
     12.870  0.8086E-02  0.1055E+00
     12.988  0.1360E-01  0.1067E+00
     13.107  0.1523E-01  0.1084E+00
     13.225  0.1022E-01  0.1099E+00
     13.343  0.7064E-02  0.1109E+00
     13.461  0.5283E-02  0.1116E+00
     13.579  0.4791E-02  0.1122E+00
     13.697  0.4713E-02  0.1128E+00
     13.815  0.3999E-02  0.1133E+00
     13.933  0.4001E-02  0.1137E+00
     14.052  0.4004E-02  0.1142E+00
     14.170  0.3989E-02  0.1147E+00
     14.288  0.2740E-02  0.1151E+00
     14.406  0.2731E-02  0.1154E+00
     14.524  0.2788E-02  0.1157E+00
     14.642  0.3184E-02  0.1161E+00
     14.760  0.2844E-02  0.1165E+00
     14.878  0.3067E-02  0.1168E+00
     14.997  0.4005E-02  0.1172E+00
     15.115  0.4697E-02  0.1177E+00
     15.233  0.4190E-02  0.1183E+00
     15.351  0.3053E-02  0.1187E+00
     15.469  0.2520E-02  0.1190E+00
     15.587  0.2157E-02  0.1193E+00
     15.705  0.1964E-02  0.1195E+00
     15.824  0.1777E-02  0.1198E+00
     15.942  0.7523E-03  0.1199E+00
     16.060  0.2096E-03  0.1200E+00
     16.178  0.5100E-04  0.1200E+00
     16.296  0.1163E-04  0.1200E+00
     16.414  0.2137E-07  0.1200E+00
     16.532  0.0000E+00  0.1200E+00
     16.650  0.0000E+00  0.1200E+00
     16.769  0.0000E+00  0.1200E+00
     16.887  0.0000E+00  0.1200E+00
     17.005  0.0000E+00  0.1200E+00
     17.123  0.0000E+00  0.1200E+00
     17.241  0.0000E+00  0.1200E+00
     17.359  0.0000E+00  0.1200E+00
     17.477  0.0000E+00  0.1200E+00
     17.595  0.0000E+00  0.1200E+00
     17.714  0.0000E+00  0.1200E+00
     17.832  0.0000E+00  0.1200E+00
     17.950  0.0000E+00  0.1200E+00
     18.068  0.0000E+00  0.1200E+00
     18.186  0.0000E+00  0.1200E+00
     18.304  0.0000E+00  0.1200E+00
     18.422  0.0000E+00  0.1200E+00
