    4    4  200    1
  0.8905205E+01  0.2466437E-09  0.2466437E-09  0.6764386E-09  0.5000000E-15
  1.000000000000000E-004
  CAR 
 graphite                                
     16    455     12
 
  0.0000000E+00  0.0000000E+00  0.0000000E+00  0.3858025E-03
    1      -15.016754
    2      -14.734979
    3       -3.859867
    4       -1.973892
    5        1.599254
    6        1.615665
    7        1.616496
    8        1.632352
    9        8.844503
   10       12.938084
   11       12.944565
   12       12.986350
 
  0.5555556E-01  0.6938894E-17  0.0000000E+00  0.1543210E-02
    1      -14.943145
    2      -14.662573
    3       -3.770492
    4       -1.890182
    5        1.309636
    6        1.333511
    7        1.444709
    8        1.466599
    9        8.933595
   10       12.971915
   11       13.033840
   12       13.261308
 
  0.1111111E+00  0.1387779E-16  0.0000000E+00  0.1543210E-02
    1      -14.722497
    2      -14.445697
    3       -3.503176
    4       -1.640061
    5        0.483314
    6        0.523265
    7        1.024329
    8        1.054550
    9        9.201538
   10       12.987208
   11       13.092420
   12       14.172835
 
  0.1666667E+00  0.0000000E+00  0.0000000E+00  0.1543210E-02
    1      -14.356017
    2      -14.085428
    3       -3.060523
    4       -1.227598
    5       -0.702093
    6       -0.642277
    7        0.461180
    8        0.498558
    9        9.648545
   10       12.885995
   11       13.058784
   12       13.786691
 
  0.2222222E+00  0.2775558E-16  0.0000000E+00  0.1543210E-02
    1      -13.845592
    2      -13.583679
    3       -2.447633
    4       -2.088395
    5       -2.007231
    6       -0.660744
    7       -0.136211
    8       -0.093512
    9       10.272128
   10       12.352288
   11       12.677332
   12       12.920203
 
  0.2777778E+00  0.0000000E+00  0.0000000E+00  0.1543210E-02
    1      -13.194338
    2      -12.943406
    3       -3.560808
    4       -3.457577
    5       -1.674141
    6       -0.691703
    7       -0.645677
    8        0.045521
    9       10.759782
   10       11.063315
   11       11.452885
   12       12.427775
 
  0.3333333E+00  0.0000000E+00  0.0000000E+00  0.1543210E-02
    1      -12.407499
    2      -12.169791
    3       -5.041533
    4       -4.916769
    5       -1.157990
    6       -1.109689
    7       -0.757826
    8        0.859588
    9        9.136781
   10        9.994403
   11       11.941847
   12       12.224843
 
  0.3888889E+00  0.5551115E-16  0.0000000E+00  0.1543210E-02
    1      -11.494525
    2      -11.273076
    3       -6.475208
    4       -6.330754
    5       -1.507289
    6       -1.457068
    7        0.262553
    8        1.706176
    9        7.629551
   10        8.584712
   11       11.972842
   12       12.301174
 
  0.4444444E+00  0.5551115E-16  0.0000000E+00  0.1543210E-02
    1      -10.483381
    2      -10.285745
    3       -7.800865
    4       -7.645202
    5       -1.722272
    6       -1.671150
    7        1.280212
    8        2.372839
    9        6.494548
   10        7.372435
   11       11.857271
   12       12.220856
 
  0.5000000E+00  0.0000000E+00  0.0000000E+00  0.7716049E-03
    1       -9.687407
    2       -9.581799
    3       -8.620777
    4       -8.541142
    5       -1.794735
    6       -1.743231
    7        1.868299
    8        2.530265
    9        6.119091
   10        6.776042
   11       11.816638
   12       12.188813
 
  0.5555556E-01  0.5555556E-01  0.0000000E+00  0.7716049E-03
    1      -14.795896
    2      -14.517812
    3       -3.592017
    4       -1.723139
    5        0.780749
    6        0.804085
    7        1.130604
    8        1.149845
    9        9.112444
   10       13.074878
   11       13.154286
   12       13.783917
 
  0.1111111E+00  0.5555556E-01  0.0000000E+00  0.1543210E-02
    1      -14.502254
    2      -14.229146
    3       -3.236852
    4       -1.391660
    5       -0.174072
    6       -0.133453
    7        0.585969
    8        0.615217
    9        9.470904
   10       13.160977
   11       13.289606
   12       14.254337
 
  0.1666667E+00  0.5555556E-01  0.0000000E+00  0.1543210E-02
    1      -14.063717
    2      -13.798054
    3       -2.708734
    4       -1.420873
    5       -1.355769
    6       -0.901460
    7       -0.038977
    8        0.001122
    9       10.008088
   10       12.985473
   11       13.070763
   12       13.274359
 
  0.2222222E+00  0.5555556E-01  0.0000000E+00  0.1543210E-02
    1      -13.482756
    2      -13.226908
    3       -2.825167
    4       -2.736323
    5       -2.014677
    6       -0.643668
    7       -0.596328
    8       -0.263242
    9       10.719785
   10       11.494545
   11       12.063915
   12       12.861906
 
  0.2777778E+00  0.5555556E-01  0.0000000E+00  0.1543210E-02
    1      -12.763414
    2      -12.519785
    3       -4.287290
    4       -4.175466
    5       -1.171078
    6       -1.167511
    7       -1.119231
    8        0.501657
    9        9.901130
   10       10.644601
   11       11.592083
   12       12.625308
 
  0.3333333E+00  0.5555556E-01  0.0000000E+00  0.1543210E-02
    1      -11.912635
    2      -11.683786
    3       -5.736929
    4       -5.603802
    5       -1.587953
    6       -1.533202
    7       -0.192738
    8        1.346519
    9        8.335179
   10        9.220801
   11       12.344472
   12       12.565072
 
  0.3888889E+00  0.5555556E-01  0.0000000E+00  0.1543210E-02
    1      -10.945627
    2      -10.735063
    3       -7.118627
    4       -6.967737
    5       -1.874865
    6       -1.818373
    7        0.848356
    8        2.146963
    9        6.979693
   10        7.898698
   11       12.229507
   12       12.587173
 
  0.4444444E+00  0.5555556E-01  0.0000000E+00  0.1543210E-02
    1       -9.935703
    2       -9.767456
    3       -8.314829
    4       -8.174091
    5       -2.020996
    6       -1.963671
    7        1.754281
    8        2.577886
    9        6.198127
   10        6.908901
   11       12.150166
   12       12.528756
 
  0.5000000E+00  0.5555556E-01  0.0000000E+00  0.1543210E-02
    1       -9.937167
    2       -9.768783
    3       -8.313304
    4       -8.172388
    5       -2.021398
    6       -1.964066
    7        1.753490
    8        2.577785
    9        6.198046
   10        6.909865
   11       12.150634
   12       12.529230
 
 -0.4444444E+00  0.5555556E-01  0.0000000E+00  0.1543210E-02
    1      -10.947210
    2      -10.736636
    3       -7.116432
    4       -6.965498
    5       -1.876050
    6       -1.819524
    7        0.847111
    8        2.146157
    9        6.980065
   10        7.900278
   11       12.230899
   12       12.588505
 
 -0.3888889E+00  0.5555556E-01  0.0000000E+00  0.1543210E-02
    1      -11.914033
    2      -11.685182
    3       -5.734555
    4       -5.601385
    5       -1.589817
    6       -1.535018
    7       -0.193990
    8        1.345460
    9        8.335521
   10        9.222391
   11       12.346175
   12       12.565251
 
 -0.3333333E+00  0.5555556E-01  0.0000000E+00  0.1543210E-02
    1      -12.764599
    2      -12.520961
    3       -4.284922
    4       -4.173059
    5       -1.173381
    6       -1.168641
    7       -1.121469
    8        0.500618
    9        9.900960
   10       10.646006
   11       11.590539
   12       12.628260
 
 -0.2777778E+00  0.5555556E-01  0.0000000E+00  0.1543210E-02
    1      -13.483729
    2      -13.227873
    3       -2.823205
    4       -2.734326
    5       -2.015646
    6       -0.645885
    7       -0.598525
    8       -0.264161
    9       10.718455
   10       11.493508
   11       12.065027
   12       12.865525
 
 -0.2222222E+00  0.5555556E-01  0.0000000E+00  0.1543210E-02
    1      -14.064475
    2      -13.798813
    3       -2.709514
    4       -1.420251
    5       -1.355153
    6       -0.902208
    7       -0.039912
    8        0.000066
    9       10.007031
   10       12.983430
   11       13.074555
   12       13.278480
 
 -0.1666667E+00  0.5555556E-01  0.0000000E+00  0.1543210E-02
    1      -14.502787
    2      -14.229688
    3       -3.237415
    4       -1.392206
    5       -0.176968
    6       -0.136416
    7        0.588823
    8        0.617678
    9        9.470129
   10       13.164123
   11       13.293740
   12       14.249456
 
 -0.1111111E+00  0.5555556E-01  0.0000000E+00  0.1543210E-02
    1      -14.796222
    2      -14.518142
    3       -3.592357
    4       -1.723472
    5        0.770523
    6        0.794480
    7        1.140508
    8        1.159558
    9        9.111962
   10       13.076604
   11       13.157222
   12       13.791415
 
 -0.5555556E-01  0.5555556E-01  0.0000000E+00  0.7716049E-03
    1      -14.943253
    2      -14.662678
    3       -3.770605
    4       -1.890295
    5        1.297338
    6        1.321582
    7        1.456980
    8        1.478617
    9        8.933432
   10       12.971824
   11       13.034048
   12       13.274917
 
  0.1111111E+00  0.1111111E+00  0.0000000E+00  0.7716049E-03
    1      -14.136539
    2      -13.869630
    3       -2.796078
    4       -1.074167
    5       -1.037587
    6       -0.982059
    7       -0.116186
    8       -0.090179
    9        9.920866
   10       13.232609
   11       13.571927
   12       13.675788
 
  0.1666667E+00  0.1111111E+00  0.0000000E+00  0.1543210E-02
    1      -13.627465
    2      -13.369179
    3       -2.223788
    4       -2.185943
    5       -2.164798
    6       -0.863820
    7       -0.823769
    8       -0.419009
    9       10.548875
   10       11.957582
   11       12.385733
   12       13.732123
 
  0.2222222E+00  0.1111111E+00  0.0000000E+00  0.1543210E-02
    1      -12.978335
    2      -12.731086
    3       -3.552849
    4       -3.463497
    5       -1.512879
    6       -1.457705
    7       -1.415932
    8        0.282763
    9       10.509393
   10       11.073983
   11       11.349325
   12       13.600553
 
  0.2777778E+00  0.1111111E+00  0.0000000E+00  0.1543210E-02
    1      -12.194641
    2      -11.960809
    3       -4.951558
    4       -4.835840
    5       -2.027624
    6       -1.963711
    7       -0.503341
    8        1.093969
    9        8.994689
   10        9.716425
   11       12.308885
   12       13.396259
 
  0.3333333E+00  0.1111111E+00  0.0000000E+00  0.1543210E-02
    1      -11.286576
    2      -11.068800
    3       -6.337096
    4       -6.199147
    5       -2.400475
    6       -2.331836
    7        0.514786
    8        1.943863
    9        7.554839
   10        8.386644
   11       13.156369
   12       13.393128
 
  0.3888889E+00  0.1111111E+00  0.0000000E+00  0.1543210E-02
    1      -10.283195
    2      -10.089236
    3       -7.633593
    4       -7.482890
    5       -2.626812
    6       -2.555516
    7        1.536420
    8        2.626503
    9        6.449535
   10        7.213389
   11       13.069860
   12       13.474462
 
  0.4444444E+00  0.1111111E+00  0.0000000E+00  0.1543210E-02
    1       -9.498803
    2       -9.394985
    3       -8.437001
    4       -8.360829
    5       -2.703109
    6       -2.631060
    7        2.135039
    8        2.791268
    9        6.099384
   10        6.603152
   11       13.029868
   12       13.447363
 
  0.5000000E+00  0.1111111E+00  0.0000000E+00  0.1543210E-02
    1      -10.286431
    2      -10.092387
    3       -7.629601
    4       -7.478753
    5       -2.628108
    6       -2.556873
    7        1.534170
    8        2.625502
    9        6.449492
   10        7.216428
   11       13.071484
   12       13.476025
 
 -0.4444444E+00  0.1111111E+00  0.0000000E+00  0.1543210E-02
    1      -11.289572
    2      -11.071785
    3       -6.332550
    4       -6.194495
    5       -2.403213
    6       -2.334409
    7        0.512262
    8        1.941867
    9        7.555197
   10        8.390012
   11       13.158780
   12       13.391534
 
 -0.3888889E+00  0.1111111E+00  0.0000000E+00  0.1543210E-02
    1      -12.197212
    2      -11.963383
    3       -4.946981
    4       -4.831149
    5       -2.031125
    6       -1.967006
    7       -0.505731
    8        1.091812
    9        8.994226
   10        9.719582
   11       12.305436
   12       13.400837
 
 -0.3333333E+00  0.1111111E+00  0.0000000E+00  0.1543210E-02
    1      -12.980496
    2      -12.733233
    3       -3.549100
    4       -3.459631
    5       -1.516194
    6       -1.460979
    7       -1.418035
    8        0.280775
    9       10.507253
   10       11.076719
   11       11.346394
   12       13.606844
 
 -0.2777778E+00  0.1111111E+00  0.0000000E+00  0.1543210E-02
    1      -13.629189
    2      -13.370892
    3       -2.222988
    4       -2.187684
    5       -2.163826
    6       -0.864558
    7       -0.824579
    8       -0.420688
    9       10.546514
   10       11.953417
   11       12.387852
   12       13.740499
 
 -0.2222222E+00  0.1111111E+00  0.0000000E+00  0.1543210E-02
    1      -14.137831
    2      -13.870911
    3       -2.797414
    4       -1.079885
    5       -1.042434
    6       -0.983358
    7       -0.110963
    8       -0.084719
    9        9.919069
   10       13.227154
   11       13.583929
   12       13.657176
 
 -0.1666667E+00  0.1111111E+00  0.0000000E+00  0.1543210E-02
    1      -14.503113
    2      -14.229998
    3       -3.237755
    4       -1.392543
    5       -0.185924
    6       -0.144611
    7        0.597707
    8        0.627026
    9        9.469681
   10       13.174272
   11       13.303121
   12       14.264689
 
 -0.1111111E+00  0.1111111E+00  0.0000000E+00  0.7716049E-03
    1      -14.722925
    2      -14.446123
    3       -3.503631
    4       -1.640507
    5        0.470174
    6        0.510435
    7        1.037754
    8        1.067789
    9        9.200915
   10       12.996409
   11       13.101497
   12       14.155058
 
  0.1666667E+00  0.1666667E+00  0.0000000E+00  0.7716049E-03
    1      -13.050180
    2      -12.801719
    3       -3.141102
    4       -3.090912
    5       -1.781697
    6       -1.745022
    7       -1.499218
    8        0.209160
    9       10.761840
   10       11.212714
   11       11.265670
   12       14.525888
 
  0.2222222E+00  0.1666667E+00  0.0000000E+00  0.1543210E-02
    1      -12.336504
    2      -12.100141
    3       -4.267618
    4       -4.189414
    5       -2.555125
    6       -2.499099
    7       -0.660573
    8        0.964111
    9        9.437434
   10        9.968770
   11       12.150310
   12       14.711771
 
  0.2777778E+00  0.1666667E+00  0.0000000E+00  0.1543210E-02
    1      -11.494325
    2      -11.272599
    3       -5.539378
    4       -5.426407
    5       -3.098597
    6       -3.023509
    7        0.306360
    8        1.805811
    9        8.064517
   10        8.716182
   11       13.188903
   12       14.561369
 
  0.3333333E+00  0.1666667E+00  0.0000000E+00  0.1543210E-02
    1      -10.540159
    2      -10.336981
    3       -6.826420
    4       -6.689102
    5       -3.441195
    6       -3.356902
    7        1.346842
    8        2.626040
    9        6.810810
   10        7.518411
   11       14.284643
   12       14.469520
 
  0.3888889E+00  0.1666667E+00  0.0000000E+00  0.1543210E-02
    1       -9.549137
    2       -9.387590
    3       -7.970463
    4       -7.839780
    5       -3.608609
    6       -3.520579
    7        2.274272
    8        3.096028
    9        6.079100
   10        6.542097
   11       14.302701
   12       14.813161
 
  0.4444444E+00  0.1666667E+00  0.0000000E+00  0.1543210E-02
    1       -9.553509
    2       -9.391579
    3       -7.965961
    4       -7.834673
    5       -3.609488
    6       -3.521419
    7        2.271832
    8        3.095709
    9        6.077154
   10        6.546404
   11       14.303662
   12       14.813965
 
  0.5000000E+00  0.1666667E+00  0.0000000E+00  0.1543210E-02
    1      -10.544907
    2      -10.341704
    3       -6.820053
    4       -6.682516
    5       -3.443674
    6       -3.359277
    7        1.343162
    8        2.623451
    9        6.810168
   10        7.523902
   11       14.282326
   12       14.468020
 
 -0.4444444E+00  0.1666667E+00  0.0000000E+00  0.1543210E-02
    1      -11.498517
    2      -11.276780
    3       -5.532980
    4       -5.419828
    5       -3.101984
    6       -3.026679
    7        0.302682
    8        1.802527
    9        8.063032
   10        8.721574
   11       13.183144
   12       14.566129
 
 -0.3888889E+00  0.1666667E+00  0.0000000E+00  0.1543210E-02
    1      -12.340068
    2      -12.103691
    3       -4.263244
    4       -4.184657
    5       -2.557493
    6       -2.501326
    7       -0.663922
    8        0.960926
    9        9.433630
   10        9.973656
   11       12.145495
   12       14.720049
 
 -0.3333333E+00  0.1666667E+00  0.0000000E+00  0.1543210E-02
    1      -13.053091
    2      -12.804653
    3       -3.142667
    4       -3.091324
    5       -1.779554
    6       -1.742138
    7       -1.502085
    8        0.206367
    9       10.755580
   10       11.216283
   11       11.261757
   12       14.545618
 
 -0.2777778E+00  0.1666667E+00  0.0000000E+00  0.1543210E-02
    1      -13.629724
    2      -13.371425
    3       -2.231580
    4       -2.188238
    5       -2.171568
    6       -0.855451
    7       -0.814896
    8       -0.421269
    9       10.545832
   10       11.950076
   11       12.386907
   12       13.758650
 
 -0.2222222E+00  0.1666667E+00  0.0000000E+00  0.1543210E-02
    1      -14.065327
    2      -13.799655
    3       -2.710405
    4       -1.432662
    5       -1.367075
    6       -0.903113
    7       -0.026093
    8        0.014017
    9       10.005900
   10       12.978070
   11       13.094257
   12       13.297429
 
 -0.1666667E+00  0.1666667E+00  0.0000000E+00  0.7716049E-03
    1      -14.356980
    2      -14.086387
    3       -3.061538
    4       -1.228603
    5       -0.715541
    6       -0.655415
    7        0.475780
    8        0.513029
    9        9.647216
   10       12.904396
   11       13.076629
   12       13.781441
 
  0.2222222E+00  0.2222222E+00  0.0000000E+00  0.7716049E-03
    1      -11.563833
    2      -11.341021
    3       -5.062449
    4       -4.998861
    5       -3.518254
    6       -3.470516
    7        0.235652
    8        1.757169
    9        8.286653
   10        8.819109
   11       13.108636
   12       15.824952
 
  0.2777778E+00  0.2222222E+00  0.0000000E+00  0.1543210E-02
    1      -10.672642
    2      -10.465965
    3       -6.079417
    4       -5.982909
    5       -4.189895
    6       -4.117842
    7        1.241620
    8        2.610268
    9        7.098079
   10        7.687746
   11       14.202006
   12       15.875936
 
  0.3333333E+00  0.2222222E+00  0.0000000E+00  0.1543210E-02
    1       -9.694101
    2       -9.511131
    3       -7.205632
    4       -7.079308
    5       -4.542731
    6       -4.450300
    7        2.275534
    8        3.357849
    9        6.078799
   10        6.635478
   11       15.368828
   12       15.752850
 
  0.3888889E+00  0.2222222E+00  0.0000000E+00  0.1543210E-02
    1       -8.933759
    2       -8.835536
    3       -7.948501
    4       -7.892276
    5       -4.651240
    6       -4.553463
    7        2.925585
    8        3.561151
    9        5.874181
   10        5.886844
   11       15.666513
   12       16.393800
 
  0.4444444E+00  0.2222222E+00  0.0000000E+00  0.1543210E-02
    1       -9.700613
    2       -9.517564
    3       -7.198113
    4       -7.071250
    5       -4.544351
    6       -4.451792
    7        2.271082
    8        3.355398
    9        6.075592
   10        6.643633
   11       15.359359
   12       15.753108
 
  0.5000000E+00  0.2222222E+00  0.0000000E+00  0.1543210E-02
    1      -10.678653
    2      -10.471974
    3       -6.072380
    4       -5.975258
    5       -4.191789
    6       -4.119482
    7        1.236760
    8        2.605897
    9        7.094950
   10        7.695679
   11       14.193534
   12       15.879438
 
 -0.4444444E+00  0.2222222E+00  0.0000000E+00  0.1543210E-02
    1      -11.569020
    2      -11.346206
    3       -5.060189
    4       -4.995092
    5       -3.517091
    6       -3.468383
    7        0.231044
    8        1.752647
    9        8.281379
   10        8.825885
   11       13.101628
   12       15.845669
 
 -0.3888889E+00  0.2222222E+00  0.0000000E+00  0.1543210E-02
    1      -12.340824
    2      -12.104449
    3       -4.271452
    4       -4.191997
    5       -2.548420
    6       -2.491610
    7       -0.664658
    8        0.960010
    9        9.430352
   10        9.972779
   11       12.144599
   12       14.746843
 
 -0.3333333E+00  0.2222222E+00  0.0000000E+00  0.1543210E-02
    1      -12.981781
    2      -12.734518
    3       -3.560964
    4       -3.470982
    5       -1.501825
    6       -1.446409
    7       -1.419333
    8        0.279324
    9       10.501306
   10       11.074443
   11       11.344838
   12       13.633746
 
 -0.2777778E+00  0.2222222E+00  0.0000000E+00  0.1543210E-02
    1      -13.485334
    2      -13.229471
    3       -2.836325
    4       -2.747125
    5       -2.017296
    6       -0.629577
    7       -0.582250
    8       -0.265895
    9       10.716460
   10       11.486061
   11       12.061634
   12       12.891303
 
 -0.2222222E+00  0.2222222E+00  0.0000000E+00  0.7716049E-03
    1      -13.847308
    2      -13.585382
    3       -2.449422
    4       -2.101739
    5       -2.020075
    6       -0.662547
    7       -0.120449
    8       -0.077859
    9       10.269896
   10       12.344411
   11       12.702320
   12       12.942172
 
  0.2777778E+00  0.2777778E+00  0.0000000E+00  0.7716049E-03
    1       -9.750158
    2       -9.563259
    3       -6.701371
    4       -6.625049
    5       -5.057319
    6       -5.004042
    7        2.264521
    8        3.452799
    9        6.091319
   10        6.688516
   11       15.301271
   12       16.127257
 
  0.3333333E+00  0.2777778E+00  0.0000000E+00  0.1543210E-02
    1       -8.798556
    2       -8.648783
    3       -7.520763
    4       -7.428862
    5       -5.499086
    6       -5.425645
    7        3.252890
    8        4.087861
    9        5.291103
   10        5.803871
   11       15.894066
   12       16.007845
 
  0.3888889E+00  0.2777778E+00  0.0000000E+00  0.1543210E-02
    1       -8.806251
    2       -8.656067
    3       -7.514057
    4       -7.420320
    5       -5.499279
    6       -5.425642
    7        3.248639
    8        4.087059
    9        5.285411
   10        5.812867
   11       15.911957
   12       15.975237
 
  0.4444444E+00  0.2777778E+00  0.0000000E+00  0.1543210E-02
    1       -9.758191
    2       -9.571348
    3       -6.696088
    4       -6.617983
    5       -5.055854
    6       -5.001460
    7        2.258908
    8        3.447125
    9        6.087551
   10        6.698101
   11       15.289532
   12       16.142213
 
  0.5000000E+00  0.2777778E+00  0.0000000E+00  0.1543210E-02
    1      -10.679704
    2      -10.473063
    3       -6.079490
    4       -5.981617
    5       -4.183598
    6       -4.110610
    7        1.235961
    8        2.604085
    9        7.092992
   10        7.695062
   11       14.192472
   12       15.913967
 
 -0.4444444E+00  0.2777778E+00  0.0000000E+00  0.1543210E-02
    1      -11.500283
    2      -11.278570
    3       -5.543529
    4       -5.429961
    5       -3.088322
    6       -3.012721
    7        0.301107
    8        1.800093
    9        8.058252
   10        8.719553
   11       13.181261
   12       14.599302
 
 -0.3888889E+00  0.2777778E+00  0.0000000E+00  0.1543210E-02
    1      -12.199504
    2      -11.965673
    3       -4.959005
    4       -4.842891
    5       -2.014568
    6       -1.950558
    7       -0.507908
    8        1.089060
    9        8.987301
   10        9.715810
   11       12.303119
   12       13.431918
 
 -0.3333333E+00  0.2777778E+00  0.0000000E+00  0.1543210E-02
    1      -12.767177
    2      -12.523539
    3       -4.297390
    4       -4.185293
    5       -1.171200
    6       -1.155771
    7       -1.103943
    8        0.497728
    9        9.892766
   10       10.641110
   11       11.587940
   12       12.657832
 
 -0.2777778E+00  0.2777778E+00  0.0000000E+00  0.7716049E-03
    1      -13.197020
    2      -12.946080
    3       -3.573035
    4       -3.469558
    5       -1.676850
    6       -0.674909
    7       -0.628977
    8        0.042662
    9       10.751120
   10       11.060215
   11       11.448323
   12       12.456952
 
  0.3333333E+00  0.3333333E+00  0.0000000E+00  0.7716049E-03
    1       -8.041425
    2       -7.951331
    3       -7.949272
    4       -7.862885
    5       -5.903199
    6       -5.902320
    7        4.004077
    8        4.586471
    9        4.594916
   10        5.289976
   11       15.711242
   12       15.734815
 
  0.3888889E+00  0.3333333E+00  0.0000000E+00  0.1543210E-02
    1       -8.808812
    2       -8.659724
    3       -7.516259
    4       -7.423089
    5       -5.493621
    6       -5.419117
    7        3.248716
    8        4.078058
    9        5.289830
   10        5.813674
   11       15.907786
   12       15.981797
 
  0.4444444E+00  0.3333333E+00  0.0000000E+00  0.1543210E-02
    1       -9.703414
    2       -9.520711
    3       -7.205552
    4       -7.078651
    5       -4.532937
    6       -4.440100
    7        2.269910
    8        3.348653
    9        6.075707
   10        6.642562
   11       15.358501
   12       15.788693
 
  0.5000000E+00  0.3333333E+00  0.0000000E+00  0.1543210E-02
    1      -10.548101
    2      -10.345048
    3       -6.829744
    4       -6.692095
    5       -3.428673
    6       -3.344243
    7        1.340921
    8        2.617876
    9        6.806766
   10        7.520769
   11       14.290925
   12       14.493719
 
 -0.4444444E+00  0.3333333E+00  0.0000000E+00  0.1543210E-02
    1      -11.293138
    2      -11.075417
    3       -6.343269
    4       -6.205080
    5       -2.385850
    6       -2.317190
    7        0.509241
    8        1.936895
    9        7.549334
   10        8.384962
   11       13.184388
   12       13.407070
 
 -0.3888889E+00  0.3333333E+00  0.0000000E+00  0.1543210E-02
    1      -11.917983
    2      -11.689017
    3       -5.745629
    4       -5.612322
    5       -1.571557
    6       -1.516851
    7       -0.197502
    8        1.340850
    9        8.328112
   10        9.216307
   11       12.369819
   12       12.584265
 
 -0.3333333E+00  0.3333333E+00  0.0000000E+00  0.7716049E-03
    1      -12.411381
    2      -12.173753
    3       -5.052423
    4       -4.927458
    5       -1.140363
    6       -1.092150
    7       -0.761582
    8        0.855287
    9        9.128593
   10        9.988699
   11       11.945091
   12       12.253446
 
  0.3888889E+00  0.3888889E+00  0.0000000E+00  0.7716049E-03
    1       -8.943032
    2       -8.847011
    3       -7.947833
    4       -7.892927
    5       -4.639787
    6       -4.541858
    7        2.925116
    8        3.546093
    9        5.880858
   10        5.884951
   11       15.702530
   12       16.422371
 
  0.4444444E+00  0.3888889E+00  0.0000000E+00  0.1543210E-02
    1       -9.559651
    2       -9.398919
    3       -7.971426
    4       -7.841085
    5       -3.594567
    6       -3.506516
    7        2.270468
    8        3.082863
    9        6.079794
   10        6.541725
   11       14.340016
   12       14.850791
 
  0.5000000E+00  0.3888889E+00  0.0000000E+00  0.1543210E-02
    1      -10.291957
    2      -10.098317
    3       -7.637734
    4       -7.487050
    5       -2.610961
    6       -2.539693
    7        1.531071
    8        2.615820
    9        6.447948
   10        7.209976
   11       13.106121
   12       13.510716
 
 -0.4444444E+00  0.3888889E+00  0.0000000E+00  0.1543210E-02
    1      -10.952650
    2      -10.742220
    3       -7.125457
    4       -6.974487
    5       -1.857563
    6       -1.801133
    7        0.842984
    8        2.138450
    9        6.975602
   10        7.893092
   11       12.264001
   12       12.621383
 
 -0.3888889E+00  0.3888889E+00  0.0000000E+00  0.7716049E-03
    1      -11.499901
    2      -11.278493
    3       -6.484356
    4       -6.339779
    5       -1.488838
    6       -1.438913
    7        0.257915
    8        1.699661
    9        7.623355
   10        8.578089
   11       12.005259
   12       12.332747
 
  0.4444444E+00  0.4444444E+00  0.0000000E+00  0.7716049E-03
    1       -9.509068
    2       -9.407594
    3       -8.438358
    4       -8.363776
    5       -2.686369
    6       -2.614383
    7        2.133860
    8        2.774931
    9        6.103869
   10        6.594754
   11       13.065757
   12       13.483545
 
  0.5000000E+00  0.4444444E+00  0.0000000E+00  0.1543210E-02
    1       -9.945443
    2       -9.778162
    3       -8.318328
    4       -8.178169
    5       -2.003025
    6       -1.945777
    7        1.750832
    8        2.563765
    9        6.199998
   10        6.900254
   11       12.185024
   12       12.563690
 
 -0.4444444E+00  0.4444444E+00  0.0000000E+00  0.7716049E-03
    1      -10.490847
    2      -10.293566
    3       -7.807516
    4       -7.651982
    5       -1.703658
    6       -1.652620
    7        1.275693
    8        2.362085
    9        6.492928
   10        7.364227
   11       11.891147
   12       12.254701
 
  0.5000000E+00  0.5000000E+00  0.0000000E+00  0.3858025E-03
    1       -9.697964
    2       -9.594769
    3       -8.622449
    4       -8.544555
    5       -1.775995
    6       -1.724578
    7        1.866850
    8        2.513516
    9        6.123154
   10        6.764721
   11       11.850869
   12       12.223079
 