mesh: [     9,     9,     4 ]
nqpoint: 50     
reciprocal_lattice:
- [   0.40553429,   0.23434576,   0.00000000 ] # a*
- [   0.00018224,   0.46837588,   0.00000000 ] # b*
- [   0.00000000,   0.00000000,   0.14783308 ] # c*
natom:   4      
lattice:
- [     2.466437248995937,    -0.000959642981403,     0.000000000000000 ] # a
- [    -1.234049699648306,     2.135517492938035,     0.000000000000000 ] # b
- [     0.000000000000000,     0.000000000000000,     6.764385742708610 ] # c
points:
- symbol: C  # 1
  coordinates: [  0.999346608899160,  0.000653437440448,  0.250000000000000 ]
  mass: 12.010700
- symbol: C  # 2
  coordinates: [  0.000653437440448,  0.999346608899160,  0.750000000000000 ]
  mass: 12.010700
- symbol: C  # 3
  coordinates: [  0.332584924946424,  0.667415057713967,  0.250000000000000 ]
  mass: 12.010700
- symbol: C  # 4
  coordinates: [  0.667415057713967,  0.332584924946424,  0.750000000000000 ]
  mass: 12.010700
phonon:
- q-position: [    0.0000000,    0.0000000,    0.1250000 ]
  weight: 2    
  band:
  - # 1
    frequency:    -1.3242070638
  - # 2
    frequency:    -0.6171450417
  - # 3
    frequency:    -0.3869089818
  - # 4
    frequency:     0.7375271548
  - # 5
    frequency:     1.1563273524
  - # 6
    frequency:     3.2607793719
  - # 7
    frequency:    24.7398868855
  - # 8
    frequency:    26.1213525246
  - # 9
    frequency:    44.8524478966
  - # 10
    frequency:    44.9902218140
  - # 11
    frequency:    45.0868822560
  - # 12
    frequency:    45.0947101456

- q-position: [    0.1111111,    0.0000000,    0.1250000 ]
  weight: 8    
  band:
  - # 1
    frequency:     3.9835946832
  - # 2
    frequency:     5.2654409516
  - # 3
    frequency:     5.8932018344
  - # 4
    frequency:     6.1518052315
  - # 5
    frequency:    11.4591961035
  - # 6
    frequency:    11.5132241620
  - # 7
    frequency:    24.2486617980
  - # 8
    frequency:    25.5242132785
  - # 9
    frequency:    44.5981235502
  - # 10
    frequency:    44.7853832292
  - # 11
    frequency:    45.0919316831
  - # 12
    frequency:    45.2118622518

- q-position: [    0.2222222,    0.0000000,    0.1250000 ]
  weight: 8    
  band:
  - # 1
    frequency:     7.6829642001
  - # 2
    frequency:     8.5833628289
  - # 3
    frequency:    11.4148556511
  - # 4
    frequency:    11.6311901886
  - # 5
    frequency:    22.0862295010
  - # 6
    frequency:    22.1462267635
  - # 7
    frequency:    22.8866148758
  - # 8
    frequency:    23.8672160903
  - # 9
    frequency:    43.8229677276
  - # 10
    frequency:    43.9497295389
  - # 11
    frequency:    45.1762687776
  - # 12
    frequency:    45.2753959037

- q-position: [    0.3333333,    0.0000000,    0.1250000 ]
  weight: 8    
  band:
  - # 1
    frequency:    11.0150208294
  - # 2
    frequency:    11.6704988539
  - # 3
    frequency:    15.8536519955
  - # 4
    frequency:    16.0028424544
  - # 5
    frequency:    20.9727774076
  - # 6
    frequency:    21.5406274721
  - # 7
    frequency:    31.0392341784
  - # 8
    frequency:    31.1052044146
  - # 9
    frequency:    42.7915633294
  - # 10
    frequency:    42.8468594083
  - # 11
    frequency:    44.4934421454
  - # 12
    frequency:    44.5689762085

- q-position: [    0.4444444,    0.0000000,    0.1250000 ]
  weight: 8    
  band:
  - # 1
    frequency:    13.6057699091
  - # 2
    frequency:    13.9599908177
  - # 3
    frequency:    18.4521833835
  - # 4
    frequency:    18.5063344469
  - # 5
    frequency:    19.1340011752
  - # 6
    frequency:    19.3136530255
  - # 7
    frequency:    37.8042414365
  - # 8
    frequency:    37.8678365277
  - # 9
    frequency:    41.9973284586
  - # 10
    frequency:    42.0066045273
  - # 11
    frequency:    42.2420771326
  - # 12
    frequency:    42.3097044516

- q-position: [    0.1111111,    0.1111111,    0.1250000 ]
  weight: 4    
  band:
  - # 1
    frequency:     7.1163179979
  - # 2
    frequency:     7.8067742263
  - # 3
    frequency:    10.7142936867
  - # 4
    frequency:    10.7287377966
  - # 5
    frequency:    19.0283213083
  - # 6
    frequency:    19.1089010006
  - # 7
    frequency:    23.2567678815
  - # 8
    frequency:    24.3051886263
  - # 9
    frequency:    44.1346451442
  - # 10
    frequency:    44.3038353439
  - # 11
    frequency:    45.1494012171
  - # 12
    frequency:    45.2270531936

- q-position: [    0.2222222,    0.1111111,    0.1250000 ]
  weight: 8    
  band:
  - # 1
    frequency:    10.3229491586
  - # 2
    frequency:    10.8301402827
  - # 3
    frequency:    15.8934893154
  - # 4
    frequency:    15.9737674266
  - # 5
    frequency:    21.5516497976
  - # 6
    frequency:    22.2260223952
  - # 7
    frequency:    27.3128574893
  - # 8
    frequency:    27.3903958010
  - # 9
    frequency:    43.4270867394
  - # 10
    frequency:    43.5210599022
  - # 11
    frequency:    44.6857289164
  - # 12
    frequency:    44.7497494680

- q-position: [    0.3333333,    0.1111111,    0.1250000 ]
  weight: 8    
  band:
  - # 1
    frequency:    13.1107927614
  - # 2
    frequency:    13.4493825151
  - # 3
    frequency:    19.5703539865
  - # 4
    frequency:    19.7035520013
  - # 5
    frequency:    19.7536041392
  - # 6
    frequency:    19.8278851898
  - # 7
    frequency:    34.3748931651
  - # 8
    frequency:    34.4402459848
  - # 9
    frequency:    42.4509704887
  - # 10
    frequency:    42.4840194946
  - # 11
    frequency:    43.3320538793
  - # 12
    frequency:    43.3969263774

- q-position: [   -0.5555556,    0.1111111,    0.1250000 ]
  weight: 8    
  band:
  - # 1
    frequency:    14.3333623359
  - # 2
    frequency:    14.6466329990
  - # 3
    frequency:    18.5119591262
  - # 4
    frequency:    18.5828536397
  - # 5
    frequency:    21.1323266277
  - # 6
    frequency:    21.1635870564
  - # 7
    frequency:    39.4269013571
  - # 8
    frequency:    39.4521781375
  - # 9
    frequency:    39.7149877404
  - # 10
    frequency:    39.7762856465
  - # 11
    frequency:    42.6391695263
  - # 12
    frequency:    42.6528540177

- q-position: [   -0.4444444,    0.1111111,    0.1250000 ]
  weight: 8    
  band:
  - # 1
    frequency:    12.3923490884
  - # 2
    frequency:    13.0656810614
  - # 3
    frequency:    19.6985720730
  - # 4
    frequency:    19.8144572621
  - # 5
    frequency:    19.8783371430
  - # 6
    frequency:    20.2454464281
  - # 7
    frequency:    34.3981930854
  - # 8
    frequency:    34.4614580174
  - # 9
    frequency:    42.4113098710
  - # 10
    frequency:    42.4351863473
  - # 11
    frequency:    43.3405933576
  - # 12
    frequency:    43.3988618332

- q-position: [   -0.3333333,    0.1111111,    0.1250000 ]
  weight: 8    
  band:
  - # 1
    frequency:     9.3838207447
  - # 2
    frequency:    10.3848000845
  - # 3
    frequency:    15.8891009115
  - # 4
    frequency:    16.0540436263
  - # 5
    frequency:    21.8202304901
  - # 6
    frequency:    22.6029299329
  - # 7
    frequency:    27.3343422265
  - # 8
    frequency:    27.4085545822
  - # 9
    frequency:    43.4353421822
  - # 10
    frequency:    43.5052549917
  - # 11
    frequency:    44.6367204293
  - # 12
    frequency:    44.7318764247

- q-position: [   -0.2222222,    0.1111111,    0.1250000 ]
  weight: 8    
  band:
  - # 1
    frequency:     6.0523201043
  - # 2
    frequency:     7.4421872417
  - # 3
    frequency:    10.6554843205
  - # 4
    frequency:    10.7978050356
  - # 5
    frequency:    19.0422881563
  - # 6
    frequency:    19.1694872989
  - # 7
    frequency:    23.4274314005
  - # 8
    frequency:    24.5533381314
  - # 9
    frequency:    44.1983671331
  - # 10
    frequency:    44.3026383085
  - # 11
    frequency:    45.0548903323
  - # 12
    frequency:    45.2063867549

- q-position: [   -0.1111111,    0.1111111,    0.1250000 ]
  weight: 4    
  band:
  - # 1
    frequency:     3.2448546500
  - # 2
    frequency:     5.1030637009
  - # 3
    frequency:     5.8841843250
  - # 4
    frequency:     5.9924692158
  - # 5
    frequency:    11.4330660009
  - # 6
    frequency:    11.6735003089
  - # 7
    frequency:    24.3067741090
  - # 8
    frequency:    25.6104164367
  - # 9
    frequency:    44.6926316311
  - # 10
    frequency:    44.7918299997
  - # 11
    frequency:    44.9862689711
  - # 12
    frequency:    45.1976731130

- q-position: [    0.2222222,    0.2222222,    0.1250000 ]
  weight: 4    
  band:
  - # 1
    frequency:    12.9405023484
  - # 2
    frequency:    13.2604046159
  - # 3
    frequency:    19.7252511850
  - # 4
    frequency:    20.0102662639
  - # 5
    frequency:    21.6546747512
  - # 6
    frequency:    21.6773710400
  - # 7
    frequency:    32.0311030349
  - # 8
    frequency:    32.0977784026
  - # 9
    frequency:    42.9949420937
  - # 10
    frequency:    43.0296167364
  - # 11
    frequency:    43.3673818551
  - # 12
    frequency:    43.4161750332

- q-position: [    0.3333333,    0.2222222,    0.1250000 ]
  weight: 8    
  band:
  - # 1
    frequency:    15.0161069266
  - # 2
    frequency:    15.2275553420
  - # 3
    frequency:    17.9065517144
  - # 4
    frequency:    17.9640152545
  - # 5
    frequency:    25.5084351243
  - # 6
    frequency:    25.5191991938
  - # 7
    frequency:    36.1088186689
  - # 8
    frequency:    36.1415774973
  - # 9
    frequency:    40.0394007241
  - # 10
    frequency:    40.0611100841
  - # 11
    frequency:    43.4789097504
  - # 12
    frequency:    43.4953573323

- q-position: [   -0.5555556,    0.2222222,    0.1250000 ]
  weight: 8    
  band:
  - # 1
    frequency:    14.2496091159
  - # 2
    frequency:    14.7615818720
  - # 3
    frequency:    18.3830489119
  - # 4
    frequency:    18.4988143773
  - # 5
    frequency:    25.5075808330
  - # 6
    frequency:    25.5635048828
  - # 7
    frequency:    36.1340068860
  - # 8
    frequency:    36.1791046983
  - # 9
    frequency:    39.9906673936
  - # 10
    frequency:    40.0136480294
  - # 11
    frequency:    43.4782074284
  - # 12
    frequency:    43.4916757834

- q-position: [   -0.4444444,    0.2222222,    0.1250000 ]
  weight: 8    
  band:
  - # 1
    frequency:    11.8083394788
  - # 2
    frequency:    12.6063931225
  - # 3
    frequency:    20.1993411248
  - # 4
    frequency:    20.6735794242
  - # 5
    frequency:    21.6724099895
  - # 6
    frequency:    21.7444500528
  - # 7
    frequency:    32.0430854013
  - # 8
    frequency:    32.1392089764
  - # 9
    frequency:    42.9268186044
  - # 10
    frequency:    42.9818613811
  - # 11
    frequency:    43.3743018823
  - # 12
    frequency:    43.4033464593

- q-position: [   -0.3333333,    0.2222222,    0.1250000 ]
  weight: 8    
  band:
  - # 1
    frequency:     9.1176711749
  - # 2
    frequency:    10.2264000164
  - # 3
    frequency:    15.9305277251
  - # 4
    frequency:    15.9818841948
  - # 5
    frequency:    21.8907469800
  - # 6
    frequency:    22.7270586113
  - # 7
    frequency:    27.3099453045
  - # 8
    frequency:    27.4678955753
  - # 9
    frequency:    43.4572877173
  - # 10
    frequency:    43.5219306077
  - # 11
    frequency:    44.5993438792
  - # 12
    frequency:    44.7012079849

- q-position: [   -0.2222222,    0.2222222,    0.1250000 ]
  weight: 4    
  band:
  - # 1
    frequency:     6.7569562818
  - # 2
    frequency:     8.1780154663
  - # 3
    frequency:    11.4768366866
  - # 4
    frequency:    11.5208528974
  - # 5
    frequency:    22.0582271298
  - # 6
    frequency:    22.2655297393
  - # 7
    frequency:    23.0611342019
  - # 8
    frequency:    24.1354347436
  - # 9
    frequency:    43.8746673484
  - # 10
    frequency:    43.9582244927
  - # 11
    frequency:    45.0914411210
  - # 12
    frequency:    45.2416990600

- q-position: [   -0.6666667,    0.3333333,    0.1250000 ]
  weight: 4    
  band:
  - # 1
    frequency:    16.0109134020
  - # 2
    frequency:    16.2217554264
  - # 3
    frequency:    16.8182241379
  - # 4
    frequency:    16.9590715979
  - # 5
    frequency:    29.0234773264
  - # 6
    frequency:    29.0328842862
  - # 7
    frequency:    37.1328042801
  - # 8
    frequency:    37.1591459084
  - # 9
    frequency:    37.1980787540
  - # 10
    frequency:    37.1986890153
  - # 11
    frequency:    43.8251464215
  - # 12
    frequency:    43.8319257183

- q-position: [   -0.5555556,    0.3333333,    0.1250000 ]
  weight: 8    
  band:
  - # 1
    frequency:    14.2733447576
  - # 2
    frequency:    14.7068837784
  - # 3
    frequency:    18.4023524025
  - # 4
    frequency:    18.5208654595
  - # 5
    frequency:    25.5338609597
  - # 6
    frequency:    25.5512633347
  - # 7
    frequency:    36.1104972986
  - # 8
    frequency:    36.1757425988
  - # 9
    frequency:    39.9997656699
  - # 10
    frequency:    40.0077258794
  - # 11
    frequency:    43.4774852995
  - # 12
    frequency:    43.4801676727

- q-position: [   -0.4444444,    0.3333333,    0.1250000 ]
  weight: 8    
  band:
  - # 1
    frequency:    12.3260009280
  - # 2
    frequency:    12.9718495282
  - # 3
    frequency:    19.7403915570
  - # 4
    frequency:    19.7559380003
  - # 5
    frequency:    19.9095131136
  - # 6
    frequency:    20.3428867871
  - # 7
    frequency:    34.3705010653
  - # 8
    frequency:    34.4918604289
  - # 9
    frequency:    42.4203180224
  - # 10
    frequency:    42.4685376695
  - # 11
    frequency:    43.3214703742
  - # 12
    frequency:    43.3378625404

- q-position: [   -0.3333333,    0.3333333,    0.1250000 ]
  weight: 4    
  band:
  - # 1
    frequency:    10.3691892351
  - # 2
    frequency:    11.2835894077
  - # 3
    frequency:    15.9126069922
  - # 4
    frequency:    15.9308794725
  - # 5
    frequency:    21.1820065839
  - # 6
    frequency:    21.8903511607
  - # 7
    frequency:    31.0185792555
  - # 8
    frequency:    31.1790766908
  - # 9
    frequency:    42.8005592561
  - # 10
    frequency:    42.8587009603
  - # 11
    frequency:    44.4446788874
  - # 12
    frequency:    44.5142514166

- q-position: [   -0.5555556,    0.4444444,    0.1250000 ]
  weight: 4    
  band:
  - # 1
    frequency:    14.2805618290
  - # 2
    frequency:    14.5550415022
  - # 3
    frequency:    18.5905854162
  - # 4
    frequency:    18.6571330621
  - # 5
    frequency:    21.1526632111
  - # 6
    frequency:    21.1556852498
  - # 7
    frequency:    39.4384012958
  - # 8
    frequency:    39.4630534963
  - # 9
    frequency:    39.6789754001
  - # 10
    frequency:    39.7412694126
  - # 11
    frequency:    42.6343263338
  - # 12
    frequency:    42.6365661696

- q-position: [   -0.4444444,    0.4444444,    0.1250000 ]
  weight: 4    
  band:
  - # 1
    frequency:    13.4796481034
  - # 2
    frequency:    13.8638883109
  - # 3
    frequency:    18.4746531700
  - # 4
    frequency:    18.4791146332
  - # 5
    frequency:    19.1997154795
  - # 6
    frequency:    19.4497212583
  - # 7
    frequency:    37.7893406645
  - # 8
    frequency:    37.8855148056
  - # 9
    frequency:    41.9882796789
  - # 10
    frequency:    42.0142856734
  - # 11
    frequency:    42.2262658024
  - # 12
    frequency:    42.2571086639

- q-position: [    0.0000000,    0.0000000,    0.3750000 ]
  weight: 2    
  band:
  - # 1
    frequency:    -1.6237526694
  - # 2
    frequency:    -1.4509010774
  - # 3
    frequency:    -0.8965353019
  - # 4
    frequency:    -0.3550321039
  - # 5
    frequency:     2.0582262520
  - # 6
    frequency:     2.9685708729
  - # 7
    frequency:    25.6351417707
  - # 8
    frequency:    26.2042516153
  - # 9
    frequency:    44.6678089301
  - # 10
    frequency:    44.7110160923
  - # 11
    frequency:    44.7654375905
  - # 12
    frequency:    44.8621777279

- q-position: [    0.1111111,    0.0000000,    0.3750000 ]
  weight: 8    
  band:
  - # 1
    frequency:     4.4548803933
  - # 2
    frequency:     5.0035498760
  - # 3
    frequency:     5.8951703583
  - # 4
    frequency:     6.0048856913
  - # 5
    frequency:    11.4275405908
  - # 6
    frequency:    11.4484365913
  - # 7
    frequency:    25.0692318551
  - # 8
    frequency:    25.5947992696
  - # 9
    frequency:    44.4708107067
  - # 10
    frequency:    44.5402200382
  - # 11
    frequency:    44.8583182896
  - # 12
    frequency:    44.9159071931

- q-position: [    0.2222222,    0.0000000,    0.3750000 ]
  weight: 8    
  band:
  - # 1
    frequency:     7.9500167437
  - # 2
    frequency:     8.3286277300
  - # 3
    frequency:    11.4622994121
  - # 4
    frequency:    11.5525757720
  - # 5
    frequency:    22.0916487035
  - # 6
    frequency:    22.1161434898
  - # 7
    frequency:    23.5027521901
  - # 8
    frequency:    23.9069601813
  - # 9
    frequency:    43.7342780760
  - # 10
    frequency:    43.7855159948
  - # 11
    frequency:    45.0242842705
  - # 12
    frequency:    45.0665279045

- q-position: [    0.3333333,    0.0000000,    0.3750000 ]
  weight: 8    
  band:
  - # 1
    frequency:    11.1816186398
  - # 2
    frequency:    11.4533117728
  - # 3
    frequency:    15.8975929551
  - # 4
    frequency:    15.9595767663
  - # 5
    frequency:    21.3115613995
  - # 6
    frequency:    21.5459534437
  - # 7
    frequency:    31.0648725780
  - # 8
    frequency:    31.0921284571
  - # 9
    frequency:    42.7509375561
  - # 10
    frequency:    42.7736218969
  - # 11
    frequency:    44.4290220817
  - # 12
    frequency:    44.4605614587

- q-position: [    0.4444444,    0.0000000,    0.3750000 ]
  weight: 8    
  band:
  - # 1
    frequency:    13.7042420029
  - # 2
    frequency:    13.8509433673
  - # 3
    frequency:    18.4686204513
  - # 4
    frequency:    18.4910584531
  - # 5
    frequency:    19.2181270388
  - # 6
    frequency:    19.2926853967
  - # 7
    frequency:    37.8310633481
  - # 8
    frequency:    37.8573941681
  - # 9
    frequency:    41.9931782079
  - # 10
    frequency:    41.9971052514
  - # 11
    frequency:    42.2415049944
  - # 12
    frequency:    42.2696409498

- q-position: [    0.1111111,    0.1111111,    0.3750000 ]
  weight: 4    
  band:
  - # 1
    frequency:     7.3599317261
  - # 2
    frequency:     7.6581003156
  - # 3
    frequency:    10.6739891596
  - # 4
    frequency:    10.6812929491
  - # 5
    frequency:    19.0242971056
  - # 6
    frequency:    19.0574263221
  - # 7
    frequency:    23.9208038815
  - # 8
    frequency:    24.3530174187
  - # 9
    frequency:    44.0787393775
  - # 10
    frequency:    44.1487750792
  - # 11
    frequency:    44.9363163406
  - # 12
    frequency:    44.9686219895

- q-position: [    0.2222222,    0.1111111,    0.3750000 ]
  weight: 8    
  band:
  - # 1
    frequency:    10.4840004485
  - # 2
    frequency:    10.6963043498
  - # 3
    frequency:    15.8973844556
  - # 4
    frequency:    15.9307350373
  - # 5
    frequency:    21.9603241593
  - # 6
    frequency:    22.2385033323
  - # 7
    frequency:    27.3241368123
  - # 8
    frequency:    27.3562287932
  - # 9
    frequency:    43.3916303771
  - # 10
    frequency:    43.4304570237
  - # 11
    frequency:    44.5844477325
  - # 12
    frequency:    44.6114613825

- q-position: [    0.3333333,    0.1111111,    0.3750000 ]
  weight: 8    
  band:
  - # 1
    frequency:    13.2142608795
  - # 2
    frequency:    13.3542719802
  - # 3
    frequency:    19.7030308024
  - # 4
    frequency:    19.7120340525
  - # 5
    frequency:    19.7332388225
  - # 6
    frequency:    19.8098861524
  - # 7
    frequency:    34.3930709614
  - # 8
    frequency:    34.4201428277
  - # 9
    frequency:    42.4375535996
  - # 10
    frequency:    42.4511047961
  - # 11
    frequency:    43.3299236236
  - # 12
    frequency:    43.3566575269

- q-position: [   -0.5555556,    0.1111111,    0.3750000 ]
  weight: 8    
  band:
  - # 1
    frequency:    14.4171318191
  - # 2
    frequency:    14.5477296737
  - # 3
    frequency:    18.5266485008
  - # 4
    frequency:    18.5569550507
  - # 5
    frequency:    21.1491166234
  - # 6
    frequency:    21.1620534541
  - # 7
    frequency:    39.4354439429
  - # 8
    frequency:    39.4463236143
  - # 9
    frequency:    39.7421231196
  - # 10
    frequency:    39.7676560773
  - # 11
    frequency:    42.6430261693
  - # 12
    frequency:    42.6486724624

- q-position: [   -0.4444444,    0.1111111,    0.3750000 ]
  weight: 8    
  band:
  - # 1
    frequency:    12.5203184483
  - # 2
    frequency:    12.7997104560
  - # 3
    frequency:    19.7600732437
  - # 4
    frequency:    19.8081293920
  - # 5
    frequency:    20.0907266081
  - # 6
    frequency:    20.2426406669
  - # 7
    frequency:    34.4372168454
  - # 8
    frequency:    34.4633333393
  - # 9
    frequency:    42.3964667002
  - # 10
    frequency:    42.4063242187
  - # 11
    frequency:    43.3028883907
  - # 12
    frequency:    43.3270639405

- q-position: [   -0.3333333,    0.1111111,    0.3750000 ]
  weight: 8    
  band:
  - # 1
    frequency:     9.6042379564
  - # 2
    frequency:    10.0223280009
  - # 3
    frequency:    15.9739937722
  - # 4
    frequency:    16.0425324593
  - # 5
    frequency:    22.2995078744
  - # 6
    frequency:    22.6221465933
  - # 7
    frequency:    27.3614165425
  - # 8
    frequency:    27.3920002007
  - # 9
    frequency:    43.3534059330
  - # 10
    frequency:    43.3817670565
  - # 11
    frequency:    44.5529132919
  - # 12
    frequency:    44.5928497743

- q-position: [   -0.2222222,    0.1111111,    0.3750000 ]
  weight: 8    
  band:
  - # 1
    frequency:     6.4327810433
  - # 2
    frequency:     7.0182994584
  - # 3
    frequency:    10.7089594205
  - # 4
    frequency:    10.7677673070
  - # 5
    frequency:    19.0708027500
  - # 6
    frequency:    19.1237474547
  - # 7
    frequency:    24.1388639148
  - # 8
    frequency:    24.6026801192
  - # 9
    frequency:    44.0109947852
  - # 10
    frequency:    44.0523704288
  - # 11
    frequency:    44.9525168207
  - # 12
    frequency:    45.0168472145

- q-position: [   -0.1111111,    0.1111111,    0.3750000 ]
  weight: 4    
  band:
  - # 1
    frequency:     3.8909170867
  - # 2
    frequency:     4.6666053089
  - # 3
    frequency:     5.8551855660
  - # 4
    frequency:     5.8978281128
  - # 5
    frequency:    11.4785729853
  - # 6
    frequency:    11.5797177743
  - # 7
    frequency:    25.1440124248
  - # 8
    frequency:    25.6810054800
  - # 9
    frequency:    44.4032855218
  - # 10
    frequency:    44.4443220099
  - # 11
    frequency:    44.9068425042
  - # 12
    frequency:    44.9940895245

- q-position: [    0.2222222,    0.2222222,    0.3750000 ]
  weight: 4    
  band:
  - # 1
    frequency:    13.0432945042
  - # 2
    frequency:    13.1756418018
  - # 3
    frequency:    19.8757218249
  - # 4
    frequency:    19.9933375278
  - # 5
    frequency:    21.6549882278
  - # 6
    frequency:    21.6643768278
  - # 7
    frequency:    32.0442288313
  - # 8
    frequency:    32.0718570588
  - # 9
    frequency:    42.9699652861
  - # 10
    frequency:    42.9837746537
  - # 11
    frequency:    43.3663514433
  - # 12
    frequency:    43.3859984569

- q-position: [    0.3333333,    0.2222222,    0.3750000 ]
  weight: 8    
  band:
  - # 1
    frequency:    15.0824752806
  - # 2
    frequency:    15.1718518168
  - # 3
    frequency:    17.8801222444
  - # 4
    frequency:    17.9028594281
  - # 5
    frequency:    25.5190441182
  - # 6
    frequency:    25.5234910509
  - # 7
    frequency:    36.1208802696
  - # 8
    frequency:    36.1344762053
  - # 9
    frequency:    40.0688059369
  - # 10
    frequency:    40.0778472682
  - # 11
    frequency:    43.4902576340
  - # 12
    frequency:    43.4971131276

- q-position: [   -0.5555556,    0.2222222,    0.3750000 ]
  weight: 8    
  band:
  - # 1
    frequency:    14.3161282840
  - # 2
    frequency:    14.5301459569
  - # 3
    frequency:    18.4445065443
  - # 4
    frequency:    18.4929075724
  - # 5
    frequency:    25.5605234790
  - # 6
    frequency:    25.5836754652
  - # 7
    frequency:    36.1743808920
  - # 8
    frequency:    36.1928801187
  - # 9
    frequency:    39.9912263685
  - # 10
    frequency:    40.0008601074
  - # 11
    frequency:    43.4781662561
  - # 12
    frequency:    43.4836715942

- q-position: [   -0.4444444,    0.2222222,    0.3750000 ]
  weight: 8    
  band:
  - # 1
    frequency:    11.9318374551
  - # 2
    frequency:    12.2654153004
  - # 3
    frequency:    20.4772297227
  - # 4
    frequency:    20.6725781654
  - # 5
    frequency:    21.7525568973
  - # 6
    frequency:    21.7824114319
  - # 7
    frequency:    32.0807892590
  - # 8
    frequency:    32.1205345460
  - # 9
    frequency:    42.9016126494
  - # 10
    frequency:    42.9249188484
  - # 11
    frequency:    43.3287873001
  - # 12
    frequency:    43.3402597801

- q-position: [   -0.3333333,    0.2222222,    0.3750000 ]
  weight: 8    
  band:
  - # 1
    frequency:     9.3374058843
  - # 2
    frequency:     9.8041014909
  - # 3
    frequency:    15.9884274810
  - # 4
    frequency:    16.0094248278
  - # 5
    frequency:    22.3985317738
  - # 6
    frequency:    22.7428694750
  - # 7
    frequency:    27.3673289748
  - # 8
    frequency:    27.4330274507
  - # 9
    frequency:    43.3309893950
  - # 10
    frequency:    43.3577924931
  - # 11
    frequency:    44.5534335562
  - # 12
    frequency:    44.5955118964

- q-position: [   -0.2222222,    0.2222222,    0.3750000 ]
  weight: 4    
  band:
  - # 1
    frequency:     7.0976692116
  - # 2
    frequency:     7.6981505516
  - # 3
    frequency:    11.5056396809
  - # 4
    frequency:    11.5230072139
  - # 5
    frequency:    22.1304315539
  - # 6
    frequency:    22.2169074307
  - # 7
    frequency:    23.7318807126
  - # 8
    frequency:    24.1742156654
  - # 9
    frequency:    43.6741373199
  - # 10
    frequency:    43.7087345836
  - # 11
    frequency:    45.0310338462
  - # 12
    frequency:    45.0930798996

- q-position: [   -0.6666667,    0.3333333,    0.3750000 ]
  weight: 4    
  band:
  - # 1
    frequency:    15.9982209448
  - # 2
    frequency:    16.1011730219
  - # 3
    frequency:    16.8446375272
  - # 4
    frequency:    16.8885372930
  - # 5
    frequency:    29.0603582924
  - # 6
    frequency:    29.0642281483
  - # 7
    frequency:    37.1650288256
  - # 8
    frequency:    37.1682211605
  - # 9
    frequency:    37.2130995347
  - # 10
    frequency:    37.2210176226
  - # 11
    frequency:    43.8371915031
  - # 12
    frequency:    43.8399821484

- q-position: [   -0.5555556,    0.3333333,    0.3750000 ]
  weight: 8    
  band:
  - # 1
    frequency:    14.3174944843
  - # 2
    frequency:    14.4996301881
  - # 3
    frequency:    18.4640979983
  - # 4
    frequency:    18.5123055757
  - # 5
    frequency:    25.5915433842
  - # 6
    frequency:    25.5987252388
  - # 7
    frequency:    36.1392488352
  - # 8
    frequency:    36.1661243721
  - # 9
    frequency:    39.9990309699
  - # 10
    frequency:    40.0022811237
  - # 11
    frequency:    43.4767766102
  - # 12
    frequency:    43.4778486501

- q-position: [   -0.4444444,    0.3333333,    0.3750000 ]
  weight: 8    
  band:
  - # 1
    frequency:    12.4296465073
  - # 2
    frequency:    12.7009168340
  - # 3
    frequency:    19.7782894052
  - # 4
    frequency:    19.7846570894
  - # 5
    frequency:    20.1506900504
  - # 6
    frequency:    20.3285866577
  - # 7
    frequency:    34.4199636578
  - # 8
    frequency:    34.4702787058
  - # 9
    frequency:    42.3933925109
  - # 10
    frequency:    42.4133748074
  - # 11
    frequency:    43.2931108103
  - # 12
    frequency:    43.2999444889

- q-position: [   -0.3333333,    0.3333333,    0.3750000 ]
  weight: 4    
  band:
  - # 1
    frequency:    10.5352829261
  - # 2
    frequency:    10.9208310176
  - # 3
    frequency:    15.9405056390
  - # 4
    frequency:    15.9478283538
  - # 5
    frequency:    21.5987265437
  - # 6
    frequency:    21.8901433910
  - # 7
    frequency:    31.0867668705
  - # 8
    frequency:    31.1534767475
  - # 9
    frequency:    42.7128278133
  - # 10
    frequency:    42.7369142352
  - # 11
    frequency:    44.4065033077
  - # 12
    frequency:    44.4352881130

- q-position: [   -0.5555556,    0.4444444,    0.3750000 ]
  weight: 4    
  band:
  - # 1
    frequency:    14.3438768282
  - # 2
    frequency:    14.4582516474
  - # 3
    frequency:    18.6113132106
  - # 4
    frequency:    18.6393014038
  - # 5
    frequency:    21.1743995419
  - # 6
    frequency:    21.1756459161
  - # 7
    frequency:    39.4447994274
  - # 8
    frequency:    39.4552486791
  - # 9
    frequency:    39.7004864101
  - # 10
    frequency:    39.7264973786
  - # 11
    frequency:    42.6360234752
  - # 12
    frequency:    42.6369736878

- q-position: [   -0.4444444,    0.4444444,    0.3750000 ]
  weight: 4    
  band:
  - # 1
    frequency:    13.5666693380
  - # 2
    frequency:    13.7277805352
  - # 3
    frequency:    18.4799676205
  - # 4
    frequency:    18.4817975544
  - # 5
    frequency:    19.3189594144
  - # 6
    frequency:    19.4211861958
  - # 7
    frequency:    37.8284393260
  - # 8
    frequency:    37.8683144058
  - # 9
    frequency:    41.9822612033
  - # 10
    frequency:    41.9930319831
  - # 11
    frequency:    42.2182004789
  - # 12
    frequency:    42.2310212777

