# Thermal properties / unit cell (natom)

unit:
  temperature:   K
  free_energy:   kJ/mol
  entropy:       J/K/mol
  heat_capacity: J/K/mol

natom:     4
num_modes: 3888
num_integrated_modes: 3874

zero_point_energy:      66.1898600
high_T_entropy:        229.2810605

thermal_properties:
- temperature:         0.0000000
  free_energy:        66.1898600
  entropy:             0.0000000
  heat_capacity:       0.0000000
  energy:             66.1898600

- temperature:        10.0000000
  free_energy:        66.1898429
  entropy:             0.0082841
  heat_capacity:       0.0262630
  energy:             66.1899257

- temperature:        20.0000000
  free_energy:        66.1895921
  entropy:             0.0444709
  heat_capacity:       0.0862505
  energy:             66.1904815

- temperature:        30.0000000
  free_energy:        66.1889026
  entropy:             0.0970931
  heat_capacity:       0.1957971
  energy:             66.1918154

- temperature:        40.0000000
  free_energy:        66.1875448
  entropy:             0.1812094
  heat_capacity:       0.4220847
  energy:             66.1947931

- temperature:        50.0000000
  free_energy:        66.1851225
  entropy:             0.3118344
  heat_capacity:       0.7849236
  energy:             66.2007142

- temperature:        60.0000000
  free_energy:        66.1811260
  entropy:             0.4969574
  heat_capacity:       1.2834559
  energy:             66.2109435

- temperature:        70.0000000
  free_energy:        66.1749878
  entropy:             0.7406941
  heat_capacity:       1.9179457
  energy:             66.2268364

- temperature:        80.0000000
  free_energy:        66.1661080
  entropy:             1.0456473
  heat_capacity:       2.6895205
  energy:             66.2497598

- temperature:        90.0000000
  free_energy:        66.1538652
  entropy:             1.4134604
  heat_capacity:       3.5958808
  energy:             66.2810767

- temperature:       100.0000000
  free_energy:        66.1376270
  entropy:             1.8447645
  heat_capacity:       4.6299274
  energy:             66.3221035

- temperature:       110.0000000
  free_energy:        66.1167596
  entropy:             2.3391281
  heat_capacity:       5.7804304
  energy:             66.3740637

- temperature:       120.0000000
  free_energy:        66.0906389
  entropy:             2.8951215
  heat_capacity:       7.0333118
  energy:             66.4380535

- temperature:       130.0000000
  free_energy:        66.0586593
  entropy:             3.5104606
  heat_capacity:       8.3729506
  energy:             66.5150192

- temperature:       140.0000000
  free_energy:        66.0202417
  entropy:             4.1821899
  heat_capacity:       9.7833406
  energy:             66.6057483

- temperature:       150.0000000
  free_energy:        65.9748390
  entropy:             4.9068750
  heat_capacity:      11.2490363
  energy:             66.7108702

- temperature:       160.0000000
  free_energy:        65.9219401
  entropy:             5.6807861
  heat_capacity:      12.7558492
  energy:             66.8308659

- temperature:       170.0000000
  free_energy:        65.8610720
  entropy:             6.5000609
  heat_capacity:      14.2912822
  energy:             66.9660824

- temperature:       180.0000000
  free_energy:        65.7918005
  entropy:             7.3608378
  heat_capacity:      15.8447260
  energy:             67.1167513

- temperature:       190.0000000
  free_energy:        65.7137295
  entropy:             8.2593589
  heat_capacity:      17.4074602
  energy:             67.2830077

- temperature:       200.0000000
  free_energy:        65.6264995
  entropy:             9.1920430
  heat_capacity:      18.9725174
  energy:             67.4649081

- temperature:       210.0000000
  free_energy:        65.5297860
  entropy:            10.1555312
  heat_capacity:      20.5344649
  energy:             67.6624475

- temperature:       220.0000000
  free_energy:        65.4232966
  entropy:            11.1467113
  heat_capacity:      22.0891498
  energy:             67.8755731

- temperature:       230.0000000
  free_energy:        65.3067690
  entropy:            12.1627252
  heat_capacity:      23.6334420
  energy:             68.1041958

- temperature:       240.0000000
  free_energy:        65.1799680
  entropy:            13.2009640
  heat_capacity:      25.1649975
  energy:             68.3481994

- temperature:       250.0000000
  free_energy:        65.0426836
  entropy:            14.2590552
  heat_capacity:      26.6820539
  energy:             68.6074474

- temperature:       260.0000000
  free_energy:        64.8947280
  entropy:            15.3348449
  heat_capacity:      28.1832635
  energy:             68.8817876

- temperature:       270.0000000
  free_energy:        64.7359342
  entropy:            16.4263779
  heat_capacity:      29.6675626
  energy:             69.1710562

- temperature:       280.0000000
  free_energy:        64.5661539
  entropy:            17.5318775
  heat_capacity:      31.1340748
  energy:             69.4750796

- temperature:       290.0000000
  free_energy:        64.3852555
  entropy:            18.6497255
  heat_capacity:      32.5820422
  energy:             69.7936759

- temperature:       300.0000000
  free_energy:        64.1931231
  entropy:            19.7784440
  heat_capacity:      34.0107803
  energy:             70.1266563

- temperature:       310.0000000
  free_energy:        63.9896549
  entropy:            20.9166786
  heat_capacity:      35.4196495
  energy:             70.4738253

- temperature:       320.0000000
  free_energy:        63.7747620
  entropy:            22.0631845
  heat_capacity:      36.8080410
  energy:             70.8349811

- temperature:       330.0000000
  free_energy:        63.5483675
  entropy:            23.2168133
  heat_capacity:      38.1753705
  energy:             71.2099159

- temperature:       340.0000000
  free_energy:        63.3104056
  entropy:            24.3765025
  heat_capacity:      39.5210793
  energy:             71.5984164

- temperature:       350.0000000
  free_energy:        63.0608205
  entropy:            25.5412660
  heat_capacity:      40.8446379
  energy:             72.0002637

- temperature:       360.0000000
  free_energy:        62.7995664
  entropy:            26.7101869
  heat_capacity:      42.1455518
  energy:             72.4152337

- temperature:       370.0000000
  free_energy:        62.5266058
  entropy:            27.8824105
  heat_capacity:      43.4233677
  energy:             72.8430977

- temperature:       380.0000000
  free_energy:        62.2419098
  entropy:            29.0571391
  heat_capacity:      44.6776796
  energy:             73.2836227

- temperature:       390.0000000
  free_energy:        61.9454572
  entropy:            30.2336271
  heat_capacity:      45.9081339
  energy:             73.7365717

- temperature:       400.0000000
  free_energy:        61.6372337
  entropy:            31.4111777
  heat_capacity:      47.1144330
  energy:             74.2017048

- temperature:       410.0000000
  free_energy:        61.3172322
  entropy:            32.5891386
  heat_capacity:      48.2963381
  energy:             74.6787791

- temperature:       420.0000000
  free_energy:        60.9854516
  entropy:            33.7669001
  heat_capacity:      49.4536707
  energy:             75.1675497

- temperature:       430.0000000
  free_energy:        60.6418968
  entropy:            34.9438916
  heat_capacity:      50.5863126
  energy:             75.6677702

- temperature:       440.0000000
  free_energy:        60.2865782
  entropy:            36.1195801
  heat_capacity:      51.6942050
  energy:             76.1791934

- temperature:       450.0000000
  free_energy:        59.9195112
  entropy:            37.2934679
  heat_capacity:      52.7773471
  energy:             76.7015718

- temperature:       460.0000000
  free_energy:        59.5407164
  entropy:            38.4650906
  heat_capacity:      53.8357935
  energy:             77.2346580

- temperature:       470.0000000
  free_energy:        59.1502184
  entropy:            39.6340155
  heat_capacity:      54.8696512
  energy:             77.7782057

- temperature:       480.0000000
  free_energy:        58.7480464
  entropy:            40.7998401
  heat_capacity:      55.8790761
  energy:             78.3319696

- temperature:       490.0000000
  free_energy:        58.3342332
  entropy:            41.9621903
  heat_capacity:      56.8642695
  energy:             78.8957064

- temperature:       500.0000000
  free_energy:        57.9088153
  entropy:            43.1207194
  heat_capacity:      57.8254740
  energy:             79.4691750

- temperature:       510.0000000
  free_energy:        57.4718326
  entropy:            44.2751064
  heat_capacity:      58.7629699
  energy:             80.0521369

- temperature:       520.0000000
  free_energy:        57.0233280
  entropy:            45.4250547
  heat_capacity:      59.6770710
  energy:             80.6443564

- temperature:       530.0000000
  free_energy:        56.5633472
  entropy:            46.5702910
  heat_capacity:      60.5681208
  energy:             81.2456015

- temperature:       540.0000000
  free_energy:        56.0919387
  entropy:            47.7105640
  heat_capacity:      61.4364889
  energy:             81.8556433

- temperature:       550.0000000
  free_energy:        55.6091533
  entropy:            48.8456431
  heat_capacity:      62.2825672
  energy:             82.4742569

- temperature:       560.0000000
  free_energy:        55.1150439
  entropy:            49.9753175
  heat_capacity:      63.1067668
  energy:             83.1012217

- temperature:       570.0000000
  free_energy:        54.6096656
  entropy:            51.0993951
  heat_capacity:      63.9095145
  energy:             83.7363208

- temperature:       580.0000000
  free_energy:        54.0930752
  entropy:            52.2177012
  heat_capacity:      64.6912503
  energy:             84.3793419

- temperature:       590.0000000
  free_energy:        53.5653313
  entropy:            53.3300778
  heat_capacity:      65.4524241
  energy:             85.0300772

- temperature:       600.0000000
  free_energy:        53.0264939
  entropy:            54.4363825
  heat_capacity:      66.1934936
  energy:             85.6883234

- temperature:       610.0000000
  free_energy:        52.4766243
  entropy:            55.5364874
  heat_capacity:      66.9149220
  energy:             86.3538816

- temperature:       620.0000000
  free_energy:        51.9157852
  entropy:            56.6302786
  heat_capacity:      67.6171758
  energy:             87.0265579

- temperature:       630.0000000
  free_energy:        51.3440401
  entropy:            57.7176550
  heat_capacity:      68.3007227
  energy:             87.7061628

- temperature:       640.0000000
  free_energy:        50.7614538
  entropy:            58.7985278
  heat_capacity:      68.9660306
  energy:             88.3925116

- temperature:       650.0000000
  free_energy:        50.1680915
  entropy:            59.8728194
  heat_capacity:      69.6135653
  energy:             89.0854242

- temperature:       660.0000000
  free_energy:        49.5640195
  entropy:            60.9404631
  heat_capacity:      70.2437900
  energy:             89.7847252

- temperature:       670.0000000
  free_energy:        48.9493046
  entropy:            62.0014018
  heat_capacity:      70.8571633
  energy:             90.4902438

- temperature:       680.0000000
  free_energy:        48.3240140
  entropy:            63.0555879
  heat_capacity:      71.4541390
  energy:             91.2018138

- temperature:       690.0000000
  free_energy:        47.6882155
  entropy:            64.1029825
  heat_capacity:      72.0351645
  energy:             91.9192734

- temperature:       700.0000000
  free_energy:        47.0419771
  entropy:            65.1435547
  heat_capacity:      72.6006807
  energy:             92.6424654

- temperature:       710.0000000
  free_energy:        46.3853672
  entropy:            66.1772810
  heat_capacity:      73.1511208
  energy:             93.3712368

- temperature:       720.0000000
  free_energy:        45.7184544
  entropy:            67.2041453
  heat_capacity:      73.6869103
  energy:             94.1054390

- temperature:       730.0000000
  free_energy:        45.0413072
  entropy:            68.2241374
  heat_capacity:      74.2084662
  energy:             94.8449275

- temperature:       740.0000000
  free_energy:        44.3539945
  entropy:            69.2372536
  heat_capacity:      74.7161966
  energy:             95.5895622

- temperature:       750.0000000
  free_energy:        43.6565851
  entropy:            70.2434955
  heat_capacity:      75.2105007
  energy:             96.3392067

- temperature:       760.0000000
  free_energy:        42.9491475
  entropy:            71.2428700
  heat_capacity:      75.6917685
  energy:             97.0937288

- temperature:       770.0000000
  free_energy:        42.2317505
  entropy:            72.2353888
  heat_capacity:      76.1603805
  energy:             97.8529999

- temperature:       780.0000000
  free_energy:        41.5044625
  entropy:            73.2210678
  heat_capacity:      76.6167077
  energy:             98.6168954

- temperature:       790.0000000
  free_energy:        40.7673519
  entropy:            74.1999271
  heat_capacity:      77.0611118
  energy:             99.3852943

- temperature:       800.0000000
  free_energy:        40.0204867
  entropy:            75.1719905
  heat_capacity:      77.4939446
  energy:            100.1580791

- temperature:       810.0000000
  free_energy:        39.2639346
  entropy:            76.1372853
  heat_capacity:      77.9155487
  energy:            100.9351358

- temperature:       820.0000000
  free_energy:        38.4977634
  entropy:            77.0958419
  heat_capacity:      78.3262569
  energy:            101.7163537

- temperature:       830.0000000
  free_energy:        37.7220402
  entropy:            78.0476934
  heat_capacity:      78.7263930
  energy:            102.5016257

- temperature:       840.0000000
  free_energy:        36.9368318
  entropy:            78.9928758
  heat_capacity:      79.1162711
  energy:            103.2908474

- temperature:       850.0000000
  free_energy:        36.1422047
  entropy:            79.9314273
  heat_capacity:      79.4961966
  energy:            104.0839179

- temperature:       860.0000000
  free_energy:        35.3382252
  entropy:            80.8633883
  heat_capacity:      79.8664656
  energy:            104.8807391

- temperature:       870.0000000
  free_energy:        34.5249588
  entropy:            81.7888014
  heat_capacity:      80.2273655
  energy:            105.6812160

- temperature:       880.0000000
  free_energy:        33.7024708
  entropy:            82.7077106
  heat_capacity:      80.5791750
  energy:            106.4852562

- temperature:       890.0000000
  free_energy:        32.8708261
  entropy:            83.6201618
  heat_capacity:      80.9221643
  energy:            107.2927701

- temperature:       900.0000000
  free_energy:        32.0300890
  entropy:            84.5262022
  heat_capacity:      81.2565953
  energy:            108.1036709

- temperature:       910.0000000
  free_energy:        31.1803233
  entropy:            85.4258803
  heat_capacity:      81.5827219
  energy:            108.9178743

- temperature:       920.0000000
  free_energy:        30.3215924
  entropy:            86.3192457
  heat_capacity:      81.9007900
  energy:            109.7352985

- temperature:       930.0000000
  free_energy:        29.4539592
  entropy:            87.2063493
  heat_capacity:      82.2110377
  energy:            110.5558641

- temperature:       940.0000000
  free_energy:        28.5774861
  entropy:            88.0872424
  heat_capacity:      82.5136959
  energy:            111.3794940

- temperature:       950.0000000
  free_energy:        27.6922349
  entropy:            88.9619774
  heat_capacity:      82.8089880
  energy:            112.2061134

- temperature:       960.0000000
  free_energy:        26.7982669
  entropy:            89.8306072
  heat_capacity:      83.0971303
  energy:            113.0356499

- temperature:       970.0000000
  free_energy:        25.8956430
  entropy:            90.6931855
  heat_capacity:      83.3783323
  energy:            113.8680329

- temperature:       980.0000000
  free_energy:        24.9844232
  entropy:            91.5497662
  heat_capacity:      83.6527967
  energy:            114.7031941

- temperature:       990.0000000
  free_energy:        24.0646674
  entropy:            92.4004036
  heat_capacity:      83.9207199
  energy:            115.5410670

- temperature:      1000.0000000
  free_energy:        23.1364348
  entropy:            93.2451525
  heat_capacity:      84.1822919
  energy:            116.3815873
