    4    4  200    1
  0.4431505E+01  0.2467155E-09  0.2467155E-09  0.3362871E-09  0.5000000E-15
  1.000000000000000E-004
  CAR 
 graphite                                
     16    455     12
 
  0.0000000E+00  0.0000000E+00  0.0000000E+00  0.3858025E-03
    1      -11.327968
    2       -0.800854
    3       -0.723166
    4        8.290986
    5        8.296100
    6       10.795755
    7       10.799020
    8       19.481437
    9       19.881386
   10       20.266214
   11       20.267581
   12       20.707786
 
  0.5555556E-01  0.0000000E+00  0.0000000E+00  0.1543210E-02
    1      -11.249103
    2       -0.712955
    3       -0.663956
    4        7.795004
    5        8.003421
    6       10.736851
    7       10.875806
    8       19.418613
    9       19.615664
   10       19.955953
   11       20.411403
   12       20.947540
 
  0.1111111E+00  0.0000000E+00  0.0000000E+00  0.1543210E-02
    1      -11.012427
    2       -0.486940
    3       -0.450337
    4        6.562582
    5        7.339077
    6       10.434899
    7       10.933121
    8       18.798926
    9       19.150327
   10       19.284122
   11       20.951408
   12       21.751001
 
  0.1666667E+00  0.0000000E+00  0.0000000E+00  0.1543210E-02
    1      -10.618915
    2       -0.194357
    3       -0.016544
    4        4.969583
    5        6.563309
    6        9.834976
    7       10.800067
    8       17.574167
    9       18.233233
   10       19.037856
   11       21.990033
   12       22.891359
 
  0.2222222E+00  0.0000000E+00  0.0000000E+00  0.1543210E-02
    1      -10.070179
    2        0.207102
    3        0.581772
    4        3.238433
    5        5.812266
    6        9.008914
    7       10.504464
    8       16.042467
    9       17.374978
   10       18.740773
   11       23.474754
   12       24.196530
 
  0.2777778E+00  0.0000000E+00  0.0000000E+00  0.1543210E-02
    1       -9.368812
    2        0.655037
    3        1.331309
    4        1.548155
    5        5.151246
    6        8.041799
    7       10.143287
    8       14.354992
    9       16.644439
   10       18.430183
   11       25.279171
   12       25.441663
 
  0.3333333E+00  0.0000000E+00  0.0000000E+00  0.1543210E-02
    1       -8.520043
    2       -0.331163
    3        1.444929
    4        2.205048
    5        4.614301
    6        7.002794
    7        9.798353
    8       12.652439
    9       16.069159
   10       18.145567
   11       26.092535
   12       27.262168
 
  0.3888889E+00  0.0000000E+00  0.0000000E+00  0.1543210E-02
    1       -7.534387
    2       -1.935226
    3        2.154365
    4        3.143313
    5        4.220170
    6        5.945619
    7        9.522485
    8       11.074893
    9       15.658040
   10       17.919559
   11       26.372610
   12       27.704224
 
  0.4444444E+00  0.0000000E+00  0.0000000E+00  0.1543210E-02
    1       -6.451980
    2       -3.405759
    3        2.976274
    4        3.980479
    5        3.990034
    6        4.914002
    7        9.346283
    8        9.827550
    9       15.412211
   10       17.775141
   11       26.510951
   12       27.725808
 
  0.5000000E+00 -0.5551115E-16  0.0000000E+00  0.7716049E-03
    1       -5.672829
    2       -4.315111
    3        3.741208
    4        3.899987
    5        4.077698
    6        4.376039
    7        9.286126
    8        9.305268
    9       15.330450
   10       17.725561
   11       26.553740
   12       27.737907
 
  0.5555556E-01  0.5555556E-01  0.0000000E+00  0.7716049E-03
    1      -11.091315
    2       -0.545827
    3       -0.537733
    4        7.018898
    5        7.438243
    6       10.630524
    7       10.865818
    8       19.103299
    9       19.289388
   10       19.777997
   11       20.086743
   12       21.794722
 
  0.1111111E+00  0.5555556E-01  0.0000000E+00  0.1543210E-02
    1      -10.776233
    2       -0.310906
    3       -0.189347
    4        5.711731
    5        6.615317
    6       10.242863
    7       10.751771
    8       18.135142
    9       19.034278
   10       19.037529
   11       20.511398
   12       23.108969
 
  0.1666667E+00  0.5555556E-01  0.0000000E+00  0.1543210E-02
    1      -10.305064
    2        0.036976
    3        0.326895
    4        4.095044
    5        5.809296
    6        9.537599
    7       10.508127
    8       16.790670
    9       18.170906
   10       18.699941
   11       21.588804
   12       24.586966
 
  0.2222222E+00  0.5555556E-01  0.0000000E+00  0.1543210E-02
    1       -9.679896
    2        0.482188
    3        1.001642
    4        2.384030
    5        5.087747
    6        8.634091
    7       10.164676
    8       15.203937
    9       17.393920
   10       18.332920
   11       23.067179
   12       25.799595
 
  0.2777778E+00  0.5555556E-01  0.0000000E+00  0.1543210E-02
    1       -8.904379
    2        0.476089
    3        1.232149
    4        1.816159
    5        4.484888
    6        7.621098
    7        9.803452
    8       13.520331
    9       16.755444
   10       17.981746
   11       24.786782
   12       26.300600
 
  0.3333333E+00  0.5555556E-01  0.0000000E+00  0.1543210E-02
    1       -7.986007
    2       -1.097680
    3        1.811940
    4        2.730651
    5        4.023037
    6        6.564881
    7        9.489058
    8       11.879963
    9       16.272897
   10       17.686367
   11       26.392229
   12       26.844566
 
  0.3888889E+00  0.5555556E-01  0.0000000E+00  0.1543210E-02
    1       -6.943601
    2       -2.645616
    3        2.560799
    4        3.649093
    5        3.725717
    6        5.515914
    7        9.261408
    8       10.445877
    9       15.951246
   10       17.475054
   11       26.697195
   12       27.703189
 
  0.4444444E+00  0.5555556E-01  0.0000000E+00  0.1543210E-02
    1       -5.887122
    2       -3.960723
    3        3.228230
    4        3.748001
    5        4.321056
    6        4.522715
    7        9.142678
    8        9.507219
    9       15.790773
   10       17.365280
   11       26.785126
   12       27.747203
 
  0.5000000E+00  0.5555556E-01  0.0000000E+00  0.1543210E-02
    1       -5.887276
    2       -3.960550
    3        3.228299
    4        3.747315
    5        4.321023
    6        4.523321
    7        9.142641
    8        9.507239
    9       15.790847
   10       17.365247
   11       26.785219
   12       27.747154
 
 -0.4444444E+00  0.5555556E-01  0.0000000E+00  0.1543210E-02
    1       -6.943789
    2       -2.645375
    3        2.560651
    4        3.649019
    5        3.725202
    6        5.516552
    7        9.261298
    8       10.445905
    9       15.951463
   10       17.474960
   11       26.697616
   12       27.703055
 
 -0.3888889E+00  0.5555556E-01  0.0000000E+00  0.1543210E-02
    1       -7.986178
    2       -1.097432
    3        1.811762
    4        2.730566
    5        4.022466
    6        6.565613
    7        9.488884
    8       11.879959
    9       16.273241
   10       17.686228
   11       26.396374
   12       26.846950
 
 -0.3333333E+00  0.5555556E-01  0.0000000E+00  0.1543210E-02
    1       -8.904527
    2        0.476283
    3        1.232015
    4        1.816076
    5        4.484220
    6        7.621965
    7        9.803230
    8       13.520258
    9       16.755887
   10       17.981589
   11       24.793358
   12       26.300027
 
 -0.2777778E+00  0.5555556E-01  0.0000000E+00  0.1543210E-02
    1       -9.680018
    2        0.482082
    3        1.001568
    4        2.384140
    5        5.087025
    6        8.635113
    7       10.164445
    8       15.203762
    9       17.394418
   10       18.332776
   11       23.072885
   12       25.797854
 
 -0.2222222E+00  0.5555556E-01  0.0000000E+00  0.1543210E-02
    1      -10.305159
    2        0.036884
    3        0.326835
    4        4.094935
    5        5.808696
    6        9.538729
    7       10.507972
    8       16.790372
    9       18.171392
   10       18.699842
   11       21.593615
   12       24.582042
 
 -0.1666667E+00  0.5555556E-01  0.0000000E+00  0.1543210E-02
    1      -10.776302
    2       -0.310973
    3       -0.189391
    4        5.710902
    5        6.615433
    6       10.243743
    7       10.751984
    8       18.134742
    9       19.034251
   10       19.037921
   11       20.515349
   12       23.104695
 
 -0.1111111E+00  0.5555556E-01  0.0000000E+00  0.1543210E-02
    1      -11.091356
    2       -0.545867
    3       -0.537760
    4        7.016008
    5        7.440667
    6       10.629560
    7       10.867648
    8       19.102820
    9       19.289517
   10       19.779325
   11       20.088842
   12       21.791130
 
 -0.5555556E-01  0.5555556E-01  0.0000000E+00  0.7716049E-03
    1      -11.249117
    2       -0.712964
    3       -0.663969
    4        7.791312
    5        8.007054
    6       10.734437
    7       10.878462
    8       19.418545
    9       19.615594
   10       19.958541
   11       20.410133
   12       20.946082
 
  0.1111111E+00  0.1111111E+00  0.0000000E+00  0.7716049E-03
    1      -10.383424
    2       -0.020392
    3        0.241307
    4        4.623791
    5        5.520952
    6        9.937476
    7       10.322060
    8       17.158978
    9       18.555089
   10       19.431072
   11       19.887723
   12       24.906730
 
  0.1666667E+00  0.1111111E+00  0.0000000E+00  0.1543210E-02
    1       -9.835872
    2        0.377600
    3        0.835171
    4        3.191750
    5        4.576749
    6        9.246405
    7        9.911636
    8       15.871744
    9       17.987014
   10       18.844237
   11       20.848925
   12       26.226938
 
  0.2222222E+00  0.1111111E+00  0.0000000E+00  0.1543210E-02
    1       -9.136318
    2        0.822301
    3        1.577954
    4        1.621940
    5        3.861222
    6        8.307854
    7        9.531872
    8       14.359276
    9       17.447445
   10       18.183989
   11       22.391552
   12       26.758512
 
  0.2777778E+00  0.1111111E+00  0.0000000E+00  0.1543210E-02
    1       -8.290159
    2       -0.172858
    3        1.561568
    4        2.442011
    5        3.332155
    6        7.272070
    7        9.186242
    8       12.768699
    9       16.995400
   10       17.653422
   11       24.195841
   12       27.105556
 
  0.3333333E+00  0.1111111E+00  0.0000000E+00  0.1543210E-02
    1       -7.309015
    2       -1.747582
    3        2.159029
    4        3.049261
    5        3.365583
    6        6.212495
    7        8.913377
    8       11.263414
    9       16.658625
   10       17.270491
   11       26.140345
   12       27.318173
 
  0.3888889E+00  0.1111111E+00  0.0000000E+00  0.1543210E-02
    1       -6.233957
    2       -3.197300
    3        2.407807
    4        3.381238
    5        4.192346
    6        5.177779
    7        8.740033
    8       10.064850
    9       16.451623
   10       17.040022
   11       27.431327
   12       27.756111
 
  0.4444444E+00  0.1111111E+00  0.0000000E+00  0.1543210E-02
    1       -5.466935
    2       -4.091215
    3        2.394970
    4        4.199935
    5        4.218555
    6        4.565653
    7        8.680718
    8        9.564143
    9       16.381821
   10       16.963243
   11       27.466907
   12       27.798406
 
  0.5000000E+00  0.1111111E+00  0.0000000E+00  0.1543210E-02
    1       -6.234315
    2       -3.196854
    3        2.407878
    4        3.380516
    5        4.192239
    6        5.178725
    7        8.739898
    8       10.064880
    9       16.451568
   10       17.040283
   11       27.431486
   12       27.758175
 
 -0.4444444E+00  0.1111111E+00  0.0000000E+00  0.1543210E-02
    1       -7.309375
    2       -1.747106
    3        2.158701
    4        3.048564
    5        3.365429
    6        6.213543
    7        8.913118
    8       11.263370
    9       16.658541
   10       17.270999
   11       26.147185
   12       27.319212
 
 -0.3888889E+00  0.1111111E+00  0.0000000E+00  0.1543210E-02
    1       -8.290477
    2       -0.172420
    3        1.561205
    4        2.441848
    5        3.331397
    6        7.273298
    7        9.185890
    8       12.768492
    9       16.995345
   10       17.654148
   11       24.202321
   12       27.106100
 
 -0.3333333E+00  0.1111111E+00  0.0000000E+00  0.1543210E-02
    1       -9.136586
    2        0.822172
    3        1.577801
    4        1.621995
    5        3.860469
    6        8.309260
    7        9.531504
    8       14.358796
    9       17.447512
   10       18.184885
   11       22.397441
   12       26.759634
 
 -0.2777778E+00  0.1111111E+00  0.0000000E+00  0.1543210E-02
    1       -9.836089
    2        0.377396
    3        0.835041
    4        3.191317
    5        4.576440
    6        9.247783
    7        9.911531
    8       15.870880
    9       17.987309
   10       18.845261
   11       20.854023
   12       26.229049
 
 -0.2222222E+00  0.1111111E+00  0.0000000E+00  0.1543210E-02
    1      -10.383587
    2       -0.020553
    3        0.241205
    4        4.621781
    5        5.522169
    6        9.937579
    7       10.323445
    8       17.157734
    9       18.555645
   10       19.433767
   11       19.890250
   12       24.901988
 
 -0.1666667E+00  0.1111111E+00  0.0000000E+00  0.1543210E-02
    1      -10.776342
    2       -0.311013
    3       -0.189417
    4        5.708476
    5        6.618008
    6       10.241484
    7       10.754518
    8       18.133775
    9       19.034973
   10       19.041053
   11       20.511988
   12       23.104999
 
 -0.1111111E+00  0.1111111E+00  0.0000000E+00  0.7716049E-03
    1      -11.012481
    2       -0.486994
    3       -0.450373
    4        6.559141
    5        7.342457
    6       10.432583
    7       10.936091
    8       18.797780
    9       19.153388
   10       19.284839
   11       20.949692
   12       21.749583
 
  0.1666667E+00  0.1666667E+00  0.0000000E+00  0.7716049E-03
    1       -9.213817
    2        0.809962
    3        1.497780
    4        2.154099
    5        3.349736
    6        8.790973
    7        9.189540
    8       14.789531
    9       17.095917
   10       19.926098
   11       20.340151
   12       27.203232
 
  0.2222222E+00  0.1666667E+00  0.0000000E+00  0.1543210E-02
    1       -8.443130
    2        0.729989
    3        1.341727
    4        2.294101
    5        2.576865
    6        7.950169
    7        8.701136
    8       13.511055
    9       16.290800
   10       19.548232
   11       21.796733
   12       27.501540
 
  0.2777778E+00  0.1666667E+00  0.0000000E+00  0.1543210E-02
    1       -7.531987
    2       -0.771793
    3        1.530997
    4        2.497847
    5        3.181488
    6        6.932967
    7        8.373029
    8       12.129311
    9       15.696204
   10       19.120317
   11       23.683740
   12       27.613292
 
  0.3333333E+00  0.1666667E+00  0.0000000E+00  0.1543210E-02
    1       -6.501460
    2       -2.256654
    3        1.355766
    4        3.110160
    5        4.060513
    6        5.893717
    7        8.146362
    8       10.854367
    9       15.314759
   10       18.828820
   11       25.703098
   12       27.756845
 
  0.3888889E+00  0.1666667E+00  0.0000000E+00  0.1543210E-02
    1       -5.467851
    2       -3.527565
    3        1.222416
    4        3.946187
    5        4.689772
    6        4.886278
    7        8.029605
    8       10.008802
    9       15.128610
   10       18.682124
   11       27.644524
   12       27.850691
 
  0.4444444E+00  0.1666667E+00  0.0000000E+00  0.1543210E-02
    1       -5.468293
    2       -3.527084
    3        1.222297
    4        3.945286
    5        4.689695
    6        4.887329
    7        8.029517
    8       10.008768
    9       15.128648
   10       18.682293
   11       27.648987
   12       27.850685
 
  0.5000000E+00  0.1666667E+00  0.0000000E+00  0.1543210E-02
    1       -6.502014
    2       -2.256006
    3        1.355430
    4        3.109392
    5        4.060331
    6        5.894937
    7        8.146107
    8       10.854178
    9       15.314910
   10       18.829322
   11       25.709478
   12       27.756012
 
 -0.4444444E+00  0.1666667E+00  0.0000000E+00  0.1543210E-02
    1       -7.532488
    2       -0.770988
    3        1.530547
    4        2.497239
    5        3.181270
    6        6.934360
    7        8.372700
    8       12.128785
    9       15.696583
   10       19.121141
   11       23.690080
   12       27.613058
 
 -0.3888889E+00  0.1666667E+00  0.0000000E+00  0.1543210E-02
    1       -8.443568
    2        0.730222
    3        1.341072
    4        2.293878
    5        2.576628
    6        7.951604
    7        8.700838
    8       13.509978
    9       16.291571
   10       19.549393
   11       21.802592
   12       27.501973
 
 -0.3333333E+00  0.1666667E+00  0.0000000E+00  0.1543210E-02
    1       -9.214180
    2        0.809642
    3        1.497579
    4        2.152773
    5        3.350621
    6        8.791233
    7        9.190613
    8       14.787834
    9       17.097123
   10       19.930013
   11       20.342833
   12       27.207768
 
 -0.2777778E+00  0.1666667E+00  0.0000000E+00  0.1543210E-02
    1       -9.836156
    2        0.377321
    3        0.835004
    4        3.189315
    5        4.578687
    6        9.245523
    7        9.914066
    8       15.869696
    9       17.988390
   10       18.848986
   11       20.850074
   12       26.231077
 
 -0.2222222E+00  0.1666667E+00  0.0000000E+00  0.1543210E-02
    1      -10.305268
    2        0.036773
    3        0.326770
    4        4.092152
    5        5.811852
    6        9.536211
    7       10.511032
    8       16.788620
    9       18.174861
   10       18.701230
   11       21.589701
   12       24.583173
 
 -0.1666667E+00  0.1666667E+00  0.0000000E+00  0.7716049E-03
    1      -10.619037
    2       -0.194479
    3       -0.016620
    4        4.966460
    5        6.566525
    6        9.832800
    7       10.803188
    8       17.572381
    9       18.236612
   10       19.039014
   11       21.987941
   12       22.890509
 
  0.2222222E+00  0.2222222E+00  0.0000000E+00  0.7716049E-03
    1       -7.606670
    2       -0.065238
    3        0.886714
    4        2.353138
    5        3.118002
    6        7.505881
    7        7.854618
    8       12.603686
    9       15.174340
   10       21.207012
   11       21.402722
   12       27.597445
 
  0.2777778E+00  0.2222222E+00  0.0000000E+00  0.1543210E-02
    1       -6.641229
    2       -1.284462
    3        0.294366
    4        2.977194
    5        3.981194
    6        6.632382
    7        7.452812
    8       11.610329
    9       14.356372
   10       20.956060
   11       23.284609
   12       27.752727
 
  0.3333333E+00  0.2222222E+00  0.0000000E+00  0.1543210E-02
    1       -5.595052
    2       -2.600690
    3        0.002206
    4        3.776043
    5        4.727643
    6        5.638817
    7        7.270176
    8       10.718186
    9       13.901652
   10       20.745283
   11       25.373729
   12       27.884429
 
  0.3888889E+00  0.2222222E+00  0.0000000E+00  0.1543210E-02
    1       -4.875231
    2       -3.422336
    3       -0.088642
    4        4.641077
    5        4.706544
    6        5.050998
    7        7.210324
    8       10.332273
    9       13.759385
   10       20.674534
   11       27.117405
   12       27.823001
 
  0.4444444E+00  0.2222222E+00  0.0000000E+00  0.1543210E-02
    1       -5.595753
    2       -2.599993
    3        0.002088
    4        3.775028
    5        4.727504
    6        5.640182
    7        7.269990
    8       10.717687
    9       13.902169
   10       20.745656
   11       25.379882
   12       27.884350
 
  0.5000000E+00  0.2222222E+00  0.0000000E+00  0.1543210E-02
    1       -6.641930
    2       -1.284028
    3        0.294368
    4        2.976356
    5        3.980968
    6        6.633860
    7        7.452536
    8       11.609134
    9       14.357545
   10       20.956820
   11       23.290825
   12       27.752586
 
 -0.4444444E+00  0.2222222E+00  0.0000000E+00  0.1543210E-02
    1       -7.607295
    2       -0.066016
    3        0.887545
    4        2.352638
    5        3.117743
    6        7.506250
    7        7.855527
    8       12.601737
    9       15.176165
   10       21.211394
   11       21.405354
   12       27.597287
 
 -0.3888889E+00  0.2222222E+00  0.0000000E+00  0.1543210E-02
    1       -8.443660
    2        0.728334
    3        1.341494
    4        2.293845
    5        2.578249
    6        7.949419
    7        8.703305
    8       13.508680
    9       16.292898
   10       19.553819
   11       21.797961
   12       27.506780
 
 -0.3333333E+00  0.2222222E+00  0.0000000E+00  0.1543210E-02
    1       -9.136747
    2        0.821761
    3        1.577727
    4        1.619900
    5        3.863300
    6        8.306855
    7        9.534455
    8       14.356790
    9       17.449473
   10       18.188939
   11       22.392980
   12       26.762517
 
 -0.2777778E+00  0.2222222E+00  0.0000000E+00  0.1543210E-02
    1       -9.680220
    2        0.481847
    3        1.001460
    4        2.381540
    5        5.090277
    6        8.632733
    7       10.167604
    8       15.201486
    9       17.398183
   10       18.334767
   11       23.068536
   12       25.801249
 
 -0.2222222E+00  0.2222222E+00  0.0000000E+00  0.7716049E-03
    1      -10.070395
    2        0.206879
    3        0.581646
    4        3.235655
    5        5.815400
    6        9.006882
    7       10.507617
    8       16.040186
    9       17.378682
   10       18.742461
   11       23.472349
   12       24.196568
 
  0.2777778E+00  0.2777778E+00  0.0000000E+00  0.7716049E-03
    1       -5.648996
    2       -1.857360
    3       -0.836027
    4        3.718230
    5        4.732778
    6        6.321874
    7        6.579867
    8       11.205586
    9       13.239003
   10       22.941008
   11       23.090045
   12       27.895844
 
  0.3333333E+00  0.2777778E+00  0.0000000E+00  0.1543210E-02
    1       -4.699828
    2       -2.711999
    3       -1.301979
    4        4.559816
    5        5.230220
    6        5.476891
    7        6.354661
    8       10.939744
    9       12.605257
   10       22.868699
   11       25.176431
   12       27.398900
 
  0.3888889E+00  0.2777778E+00  0.0000000E+00  0.1543210E-02
    1       -4.700430
    2       -2.711636
    3       -1.301772
    4        4.558510
    5        5.230174
    6        5.478373
    7        6.354584
    8       10.938760
    9       12.606246
   10       22.868858
   11       25.182345
   12       27.395157
 
  0.4444444E+00  0.2777778E+00  0.0000000E+00  0.1543210E-02
    1       -5.649851
    2       -1.857812
    3       -0.834824
    4        3.717113
    5        4.732634
    6        6.322451
    7        6.580718
    8       11.203296
    9       13.241311
   10       22.943365
   11       23.094364
   12       27.895759
 
  0.5000000E+00  0.2777778E+00  0.0000000E+00  0.1543210E-02
    1       -6.642041
    2       -1.285666
    3        0.296160
    4        2.976312
    5        3.980971
    6        6.631860
    7        7.454813
    8       11.607681
    9       14.359024
   10       20.961933
   11       23.285552
   12       27.752606
 
 -0.4444444E+00  0.2777778E+00  0.0000000E+00  0.1543210E-02
    1       -7.532694
    2       -0.773066
    3        1.532229
    4        2.497902
    5        3.181231
    6        6.932220
    7        8.375401
    8       12.126639
    9       15.698812
   10       19.125838
   11       23.685007
   12       27.613162
 
 -0.3888889E+00  0.2777778E+00  0.0000000E+00  0.1543210E-02
    1       -8.290754
    2       -0.174636
    3        1.560995
    4        2.441754
    5        3.334263
    6        7.271120
    7        9.188882
    8       12.766044
    9       16.997865
   10       17.658457
   11       24.197460
   12       27.109277
 
 -0.3333333E+00  0.2777778E+00  0.0000000E+00  0.1543210E-02
    1       -8.904846
    2        0.474300
    3        1.231317
    4        1.815934
    5        4.487453
    6        7.619818
    7        9.806386
    8       13.517700
    9       16.759922
   10       17.984054
   11       24.788807
   12       26.303249
 
 -0.2777778E+00  0.2777778E+00  0.0000000E+00  0.7716049E-03
    1       -9.369148
    2        0.654505
    3        1.331136
    4        1.545904
    5        5.154347
    6        8.039925
    7       10.146428
    8       14.352437
    9       16.648434
   10       18.432364
   11       25.276476
   12       25.443955
 
  0.3333333E+00  0.3333333E+00  0.0000000E+00  0.7716049E-03
    1       -4.242480
    2       -2.326404
    3       -2.324556
    4        5.274500
    5        5.419926
    6        5.507127
    7        5.508232
    8       11.577217
    9       11.580767
   10       24.649218
   11       25.390177
   12       25.395137
 
  0.3888889E+00  0.3333333E+00  0.0000000E+00  0.1543210E-02
    1       -4.700567
    2       -2.713150
    3       -1.300094
    4        4.558398
    5        5.230214
    6        5.476686
    7        6.356532
    8       10.936697
    9       12.608270
   10       22.874427
   11       25.176984
   12       27.393523
 
  0.4444444E+00  0.3333333E+00  0.0000000E+00  0.1543210E-02
    1       -5.595980
    2       -2.601800
    3        0.004212
    4        3.774855
    5        4.727568
    6        5.638386
    7        7.272322
    8       10.715253
    9       13.904577
   10       20.750976
   11       25.374444
   12       27.884415
 
  0.5000000E+00  0.3333333E+00  0.0000000E+00  0.1543210E-02
    1       -6.502344
    2       -2.257946
    3        1.357739
    4        3.109335
    5        4.060350
    6        5.893084
    7        8.148784
    8       10.851551
    9       15.317598
   10       18.834239
   11       25.704128
   12       27.755527
 
 -0.4444444E+00  0.3333333E+00  0.0000000E+00  0.1543210E-02
    1       -7.309783
    2       -1.749125
    3        2.158903
    4        3.050879
    5        3.365369
    6        6.211665
    7        8.916076
    8       11.260668
    9       16.661375
   10       17.275530
   11       26.142027
   12       27.322089
 
 -0.3888889E+00  0.3333333E+00  0.0000000E+00  0.1543210E-02
    1       -7.986635
    2       -1.099493
    3        1.811297
    4        2.730428
    5        4.025636
    6        6.563734
    7        9.492008
    8       11.877246
    9       16.277501
   10       17.689023
   11       26.397325
   12       26.844424
 
 -0.3333333E+00  0.3333333E+00  0.0000000E+00  0.7716049E-03
    1       -8.520520
    2       -0.333219
    3        1.444380
    4        2.204853
    5        4.617393
    6        7.001100
    7        9.801476
    8       12.649753
    9       16.073381
   10       18.148144
   11       26.096341
   12       27.262883
 
  0.3888889E+00  0.3888889E+00  0.0000000E+00  0.7716049E-03
    1       -4.875751
    2       -3.423861
    3       -0.086530
    4        4.640049
    5        4.705777
    6        5.051081
    7        7.212577
    8       10.329365
    9       13.762213
   10       20.680047
   11       27.115358
   12       27.794364
 
  0.4444444E+00  0.3888889E+00  0.0000000E+00  0.1543210E-02
    1       -5.468738
    2       -3.528898
    3        1.224630
    4        3.944964
    5        4.689751
    6        4.885789
    7        8.032121
    8       10.005804
    9       15.131530
   10       18.687391
   11       27.644373
   12       27.850710
 
  0.5000000E+00  0.3888889E+00  0.0000000E+00  0.1543210E-02
    1       -6.234845
    2       -3.198661
    3        2.409845
    4        3.380811
    5        4.192298
    6        5.177171
    7        8.742798
    8       10.061955
    9       16.454546
   10       17.045002
   11       27.434975
   12       27.759406
 
 -0.4444444E+00  0.3888889E+00  0.0000000E+00  0.1543210E-02
    1       -6.944389
    2       -2.647197
    3        2.560119
    4        3.648969
    5        3.728217
    6        5.514960
    7        9.264384
    8       10.443041
    9       15.955898
   10       17.477949
   11       26.701210
   12       27.703176
 
 -0.3888889E+00  0.3888889E+00  0.0000000E+00  0.7716049E-03
    1       -7.535018
    2       -1.937052
    3        2.153706
    4        3.143161
    5        4.223265
    6        5.944123
    7        9.525594
    8       11.072106
    9       15.662418
   10       17.922418
   11       26.376383
   12       27.704336
 
  0.4444444E+00  0.4444444E+00  0.0000000E+00  0.7716049E-03
    1       -5.467605
    2       -4.092826
    3        2.397261
    4        4.199561
    5        4.217366
    6        4.565786
    7        8.683552
    8        9.561090
    9       16.384821
   10       16.968113
   11       27.470437
   12       27.798375
 
  0.5000000E+00  0.4444444E+00  0.0000000E+00  0.1543210E-02
    1       -5.887956
    2       -3.962226
    3        3.229046
    4        3.748724
    5        4.321137
    6        4.522079
    7        9.145688
    8        9.504184
    9       15.795407
   10       17.368311
   11       26.788896
   12       27.747158
 
 -0.4444444E+00  0.4444444E+00  0.0000000E+00  0.7716049E-03
    1       -6.452741
    2       -3.407382
    3        2.975448
    4        3.983578
    5        3.990037
    6        4.912706
    7        9.349384
    8        9.824592
    9       15.416678
   10       17.778167
   11       26.514677
   12       27.725816
 
  0.5000000E+00  0.5000000E+00  0.0000000E+00  0.3858025E-03
    1       -5.673548
    2       -4.316751
    3        3.740329
    4        3.903089
    5        4.076466
    6        4.376182
    7        9.289225
    8        9.302167
    9       15.334946
   10       17.728642
   11       26.557451
   12       27.737878
 