mesh: [     9,     9,     4 ]
nqpoint: 50     
reciprocal_lattice:
- [   0.40533564,   0.23404500,   0.00000000 ] # a*
- [   0.00002110,   0.46805346,   0.00000000 ] # b*
- [   0.00000000,   0.00000000,   0.29736495 ] # c*
natom:   4      
lattice:
- [     2.467155442383188,    -0.000111200019553,     0.000000000000000 ] # a
- [    -1.233674023183305,     2.136563688137034,     0.000000000000000 ] # b
- [     0.000000000000000,     0.000000000000000,     3.362871155000000 ] # c
points:
- symbol: C  # 1
  coordinates: [  0.999999697166835,  0.000000349172772,  0.250000000000000 ]
  mass: 12.010700
- symbol: C  # 2
  coordinates: [  0.000000349172772,  0.999999697166835,  0.750000000000000 ]
  mass: 12.010700
- symbol: C  # 3
  coordinates: [  0.333298929956719,  0.666701052703672,  0.250000000000000 ]
  mass: 12.010700
- symbol: C  # 4
  coordinates: [  0.666701052703672,  0.333298929956719,  0.750000000000000 ]
  mass: 12.010700
phonon:
- q-position: [    0.0000000,    0.0000000,    0.1250000 ]
  weight: 2    
  band:
  - # 1
    frequency:   -48.3575094379
  - # 2
    frequency:   -12.5745269065
  - # 3
    frequency:    -9.3975578733
  - # 4
    frequency:    -5.7915047186
  - # 5
    frequency:    -5.6991096742
  - # 6
    frequency:     2.2768722903
  - # 7
    frequency:    21.0150035700
  - # 8
    frequency:    31.2048718500
  - # 9
    frequency:    43.7310983793
  - # 10
    frequency:    43.9400298519
  - # 11
    frequency:    44.9533831262
  - # 12
    frequency:    45.0449535623

- q-position: [    0.1111111,    0.0000000,    0.1250000 ]
  weight: 8    
  band:
  - # 1
    frequency:   -47.4091883047
  - # 2
    frequency:   -14.2779245611
  - # 3
    frequency:   -12.8609516461
  - # 4
    frequency:    -2.2604211316
  - # 5
    frequency:     9.1877245758
  - # 6
    frequency:     9.9498981739
  - # 7
    frequency:    20.8013660096
  - # 8
    frequency:    30.7419486688
  - # 9
    frequency:    41.8147144067
  - # 10
    frequency:    42.1754628274
  - # 11
    frequency:    44.5455128471
  - # 12
    frequency:    45.5351234188

- q-position: [    0.2222222,    0.0000000,    0.1250000 ]
  weight: 8    
  band:
  - # 1
    frequency:   -44.7868332116
  - # 2
    frequency:   -15.9158468225
  - # 3
    frequency:   -13.6299224379
  - # 4
    frequency:     8.0058305991
  - # 5
    frequency:    14.6119113865
  - # 6
    frequency:    17.3977028620
  - # 7
    frequency:    20.2308365159
  - # 8
    frequency:    29.3144548203
  - # 9
    frequency:    35.9981870873
  - # 10
    frequency:    39.8037123466
  - # 11
    frequency:    43.1838185895
  - # 12
    frequency:    44.9946504117

- q-position: [    0.3333333,    0.0000000,    0.1250000 ]
  weight: 8    
  band:
  - # 1
    frequency:   -41.2754019405
  - # 2
    frequency:   -16.3908922645
  - # 3
    frequency:    -9.6237901029
  - # 4
    frequency:    11.7126273300
  - # 5
    frequency:    16.4651820427
  - # 6
    frequency:    19.5829188302
  - # 7
    frequency:    23.5402931236
  - # 8
    frequency:    26.3303285982
  - # 9
    frequency:    28.6773283145
  - # 10
    frequency:    38.1525329651
  - # 11
    frequency:    40.7446859632
  - # 12
    frequency:    43.1552711218

- q-position: [    0.4444444,    0.0000000,    0.1250000 ]
  weight: 8    
  band:
  - # 1
    frequency:   -38.5162682553
  - # 2
    frequency:   -13.2420272231
  - # 3
    frequency:     6.4956206386
  - # 4
    frequency:     9.7175505014
  - # 5
    frequency:    15.7643018328
  - # 6
    frequency:    18.3420628487
  - # 7
    frequency:    20.4823341239
  - # 8
    frequency:    22.7590867475
  - # 9
    frequency:    32.0550321868
  - # 10
    frequency:    37.0296545770
  - # 11
    frequency:    37.8808916325
  - # 12
    frequency:    40.9954714887

- q-position: [    0.1111111,    0.1111111,    0.1250000 ]
  weight: 4    
  band:
  - # 1
    frequency:   -45.7298234651
  - # 2
    frequency:   -15.2721823694
  - # 3
    frequency:   -14.7887046505
  - # 4
    frequency:     5.9572354189
  - # 5
    frequency:    14.4658123400
  - # 6
    frequency:    16.1340928711
  - # 7
    frequency:    20.3268713836
  - # 8
    frequency:    29.9158999655
  - # 9
    frequency:    37.7402190726
  - # 10
    frequency:    40.6843754098
  - # 11
    frequency:    44.3694043020
  - # 12
    frequency:    44.4113131058

- q-position: [    0.2222222,    0.1111111,    0.1250000 ]
  weight: 8    
  band:
  - # 1
    frequency:   -42.6576101226
  - # 2
    frequency:   -16.0610149428
  - # 3
    frequency:   -13.7447592817
  - # 4
    frequency:     9.5180365361
  - # 5
    frequency:    18.5799075860
  - # 6
    frequency:    19.5715806388
  - # 7
    frequency:    21.9061452535
  - # 8
    frequency:    28.1125453713
  - # 9
    frequency:    31.0015593499
  - # 10
    frequency:    38.2658525015
  - # 11
    frequency:    42.3764998504
  - # 12
    frequency:    43.2983651757

- q-position: [    0.3333333,    0.1111111,    0.1250000 ]
  weight: 8    
  band:
  - # 1
    frequency:   -39.2822424013
  - # 2
    frequency:   -14.8591341178
  - # 3
    frequency:    -9.1130433642
  - # 4
    frequency:    10.5925639038
  - # 5
    frequency:    19.0199684155
  - # 6
    frequency:    19.6942838361
  - # 7
    frequency:    22.6732852833
  - # 8
    frequency:    24.2238544905
  - # 9
    frequency:    29.3407405137
  - # 10
    frequency:    36.8557523428
  - # 11
    frequency:    39.2972799837
  - # 12
    frequency:    41.2608324446

- q-position: [   -0.5555556,    0.1111111,    0.1250000 ]
  weight: 8    
  band:
  - # 1
    frequency:   -37.5603746856
  - # 2
    frequency:    -9.2783756111
  - # 3
    frequency:    -6.9077304364
  - # 4
    frequency:     6.1565354675
  - # 5
    frequency:    18.2799667722
  - # 6
    frequency:    19.5259791692
  - # 7
    frequency:    20.7240047696
  - # 8
    frequency:    21.6323548439
  - # 9
    frequency:    33.7929641820
  - # 10
    frequency:    34.5321348477
  - # 11
    frequency:    37.5150213448
  - # 12
    frequency:    39.8763939285

- q-position: [   -0.4444444,    0.1111111,    0.1250000 ]
  weight: 8    
  band:
  - # 1
    frequency:   -38.9154627742
  - # 2
    frequency:   -14.2305106290
  - # 3
    frequency:    -6.2861674018
  - # 4
    frequency:    11.3648586809
  - # 5
    frequency:    17.7451097306
  - # 6
    frequency:    19.8833932907
  - # 7
    frequency:    22.5898225230
  - # 8
    frequency:    23.2243813764
  - # 9
    frequency:    29.0288064587
  - # 10
    frequency:    36.7786141853
  - # 11
    frequency:    38.7528483101
  - # 12
    frequency:    41.5332919809

- q-position: [   -0.3333333,    0.1111111,    0.1250000 ]
  weight: 8    
  band:
  - # 1
    frequency:   -42.1935978407
  - # 2
    frequency:   -15.0173116360
  - # 3
    frequency:   -13.1457309737
  - # 4
    frequency:    10.7686573864
  - # 5
    frequency:    17.2613697493
  - # 6
    frequency:    19.5619312634
  - # 7
    frequency:    20.0119811795
  - # 8
    frequency:    27.6145131525
  - # 9
    frequency:    31.4482011482
  - # 10
    frequency:    38.0243926282
  - # 11
    frequency:    41.5341810231
  - # 12
    frequency:    44.0018742646

- q-position: [   -0.2222222,    0.1111111,    0.1250000 ]
  weight: 8    
  band:
  - # 1
    frequency:   -45.3803914044
  - # 2
    frequency:   -15.6903861996
  - # 3
    frequency:   -13.3249195490
  - # 4
    frequency:     6.5380070593
  - # 5
    frequency:    12.1413140431
  - # 6
    frequency:    15.1444100680
  - # 7
    frequency:    20.5550015569
  - # 8
    frequency:    29.5761568280
  - # 9
    frequency:    37.3757067213
  - # 10
    frequency:    40.8071866399
  - # 11
    frequency:    43.5019582769
  - # 12
    frequency:    45.4537211136

- q-position: [   -0.1111111,    0.1111111,    0.1250000 ]
  weight: 4    
  band:
  - # 1
    frequency:   -47.2817505685
  - # 2
    frequency:   -14.3485694722
  - # 3
    frequency:   -12.5170006141
  - # 4
    frequency:     2.4700928000
  - # 5
    frequency:     4.1510110424
  - # 6
    frequency:    11.2280391296
  - # 7
    frequency:    20.8736391586
  - # 8
    frequency:    30.6232475673
  - # 9
    frequency:    40.6613557112
  - # 10
    frequency:    43.0621555202
  - # 11
    frequency:    44.6681364883
  - # 12
    frequency:    45.6301913130

- q-position: [    0.2222222,    0.2222222,    0.1250000 ]
  weight: 4    
  band:
  - # 1
    frequency:   -39.5686166648
  - # 2
    frequency:   -14.4140139232
  - # 3
    frequency:   -12.6892326823
  - # 4
    frequency:    10.1509203057
  - # 5
    frequency:    18.8499937542
  - # 6
    frequency:    22.0130553824
  - # 7
    frequency:    23.9587579620
  - # 8
    frequency:    26.4109074270
  - # 9
    frequency:    27.0177818984
  - # 10
    frequency:    35.9593567049
  - # 11
    frequency:    40.5537394470
  - # 12
    frequency:    40.7501725453

- q-position: [    0.3333333,    0.2222222,    0.1250000 ]
  weight: 8    
  band:
  - # 1
    frequency:   -36.8755879039
  - # 2
    frequency:   -12.4761417990
  - # 3
    frequency:    -8.6066416062
  - # 4
    frequency:     7.4526150816
  - # 5
    frequency:    19.1660966859
  - # 6
    frequency:    20.7280609491
  - # 7
    frequency:    22.0061877559
  - # 8
    frequency:    25.2952098743
  - # 9
    frequency:    30.5227085226
  - # 10
    frequency:    34.4790642390
  - # 11
    frequency:    37.3446889250
  - # 12
    frequency:    38.5494510624

- q-position: [   -0.5555556,    0.2222222,    0.1250000 ]
  weight: 8    
  band:
  - # 1
    frequency:   -36.4907017302
  - # 2
    frequency:   -11.9246551432
  - # 3
    frequency:    -4.2364269839
  - # 4
    frequency:     6.1994955985
  - # 5
    frequency:    19.7839666265
  - # 6
    frequency:    20.3388594120
  - # 7
    frequency:    20.8716272678
  - # 8
    frequency:    24.9938960820
  - # 9
    frequency:    30.6509946802
  - # 10
    frequency:    33.7803317637
  - # 11
    frequency:    37.0426935083
  - # 12
    frequency:    38.6836384284

- q-position: [   -0.4444444,    0.2222222,    0.1250000 ]
  weight: 8    
  band:
  - # 1
    frequency:   -38.7400540084
  - # 2
    frequency:   -13.4215757006
  - # 3
    frequency:   -11.2595392007
  - # 4
    frequency:    11.8742595063
  - # 5
    frequency:    19.8096997968
  - # 6
    frequency:    20.5687912799
  - # 7
    frequency:    20.9034284451
  - # 8
    frequency:    25.7469238795
  - # 9
    frequency:    27.6044745037
  - # 10
    frequency:    35.7855963530
  - # 11
    frequency:    39.3587724566
  - # 12
    frequency:    41.2266575210

- q-position: [   -0.3333333,    0.2222222,    0.1250000 ]
  weight: 8    
  band:
  - # 1
    frequency:   -41.8675839230
  - # 2
    frequency:   -17.1399106594
  - # 3
    frequency:   -10.9173303367
  - # 4
    frequency:    10.9561893270
  - # 5
    frequency:    15.0387898354
  - # 6
    frequency:    20.1701444833
  - # 7
    frequency:    20.6552150675
  - # 8
    frequency:    27.4266012834
  - # 9
    frequency:    30.8100728959
  - # 10
    frequency:    38.8561901197
  - # 11
    frequency:    41.6174570979
  - # 12
    frequency:    43.4012851880

- q-position: [   -0.2222222,    0.2222222,    0.1250000 ]
  weight: 4    
  band:
  - # 1
    frequency:   -44.3265765844
  - # 2
    frequency:   -17.6723525424
  - # 3
    frequency:   -11.0349100787
  - # 4
    frequency:     9.0971549368
  - # 5
    frequency:     9.6601450905
  - # 6
    frequency:    18.2200207902
  - # 7
    frequency:    20.5422990717
  - # 8
    frequency:    28.9488879767
  - # 9
    frequency:    34.6591388801
  - # 10
    frequency:    41.1855102917
  - # 11
    frequency:    43.3258841319
  - # 12
    frequency:    44.4869705720

- q-position: [   -0.6666667,    0.3333333,    0.1250000 ]
  weight: 4    
  band:
  - # 1
    frequency:   -35.4010241171
  - # 2
    frequency:   -12.3505903842
  - # 3
    frequency:    -5.4650252540
  - # 4
    frequency:     6.6464457005
  - # 5
    frequency:    19.3902346925
  - # 6
    frequency:    20.5326884244
  - # 7
    frequency:    21.1859784146
  - # 8
    frequency:    29.0762339393
  - # 9
    frequency:    30.5704901469
  - # 10
    frequency:    31.4024189468
  - # 11
    frequency:    36.2511619217
  - # 12
    frequency:    36.7380258771

- q-position: [   -0.5555556,    0.3333333,    0.1250000 ]
  weight: 8    
  band:
  - # 1
    frequency:   -36.0189168014
  - # 2
    frequency:   -11.8714020428
  - # 3
    frequency:    -4.7711697628
  - # 4
    frequency:     6.4934254698
  - # 5
    frequency:    19.4809940456
  - # 6
    frequency:    20.2281885393
  - # 7
    frequency:    20.9535856853
  - # 8
    frequency:    25.7112098328
  - # 9
    frequency:    30.0383575619
  - # 10
    frequency:    33.5364178994
  - # 11
    frequency:    37.2718290758
  - # 12
    frequency:    37.8668574485

- q-position: [   -0.4444444,    0.3333333,    0.1250000 ]
  weight: 8    
  band:
  - # 1
    frequency:   -38.1522274825
  - # 2
    frequency:   -16.0869909659
  - # 3
    frequency:    -3.7085684263
  - # 4
    frequency:    11.5295454665
  - # 5
    frequency:    16.9905828630
  - # 6
    frequency:    20.1417706797
  - # 7
    frequency:    21.8866944309
  - # 8
    frequency:    23.2407587972
  - # 9
    frequency:    29.3293052017
  - # 10
    frequency:    36.9370481039
  - # 11
    frequency:    39.2938936160
  - # 12
    frequency:    39.8782605691

- q-position: [   -0.3333333,    0.3333333,    0.1250000 ]
  weight: 4    
  band:
  - # 1
    frequency:   -40.3963123673
  - # 2
    frequency:   -18.3278321907
  - # 3
    frequency:    -5.7282063077
  - # 4
    frequency:    12.1078484525
  - # 5
    frequency:    13.5942740708
  - # 6
    frequency:    20.2135274762
  - # 7
    frequency:    22.8704320731
  - # 8
    frequency:    25.4129714899
  - # 9
    frequency:    28.8520429284
  - # 10
    frequency:    39.1722113694
  - # 11
    frequency:    41.0274155896
  - # 12
    frequency:    41.5259393580

- q-position: [   -0.5555556,    0.4444444,    0.1250000 ]
  weight: 4    
  band:
  - # 1
    frequency:   -36.4261898633
  - # 2
    frequency:   -12.4919863725
  - # 3
    frequency:     3.1467698199
  - # 4
    frequency:     6.9250726816
  - # 5
    frequency:    17.5870087361
  - # 6
    frequency:    19.6661978685
  - # 7
    frequency:    21.0447944476
  - # 8
    frequency:    21.2573694024
  - # 9
    frequency:    33.4350184243
  - # 10
    frequency:    34.4731557412
  - # 11
    frequency:    37.6800009595
  - # 12
    frequency:    37.9699158320

- q-position: [   -0.4444444,    0.4444444,    0.1250000 ]
  weight: 4    
  band:
  - # 1
    frequency:   -37.3015923825
  - # 2
    frequency:   -15.5062681304
  - # 3
    frequency:     8.3659012446
  - # 4
    frequency:    10.7052209525
  - # 5
    frequency:    15.3150983467
  - # 6
    frequency:    17.4412712042
  - # 7
    frequency:    20.8443423309
  - # 8
    frequency:    22.3354572632
  - # 9
    frequency:    32.1421587863
  - # 10
    frequency:    37.2407205130
  - # 11
    frequency:    38.0354235834
  - # 12
    frequency:    38.7827164724

- q-position: [    0.0000000,    0.0000000,    0.3750000 ]
  weight: 2    
  band:
  - # 1
    frequency:   -30.9709258274
  - # 2
    frequency:   -15.9394388417
  - # 3
    frequency:   -14.4859999763
  - # 4
    frequency:   -14.2729652613
  - # 5
    frequency:   -13.7627058326
  - # 6
    frequency:     8.7867564575
  - # 7
    frequency:    13.3278231260
  - # 8
    frequency:    21.5320405151
  - # 9
    frequency:    44.2277680120
  - # 10
    frequency:    44.3056046300
  - # 11
    frequency:    44.7106893855
  - # 12
    frequency:    44.7399383255

- q-position: [    0.1111111,    0.0000000,    0.3750000 ]
  weight: 8    
  band:
  - # 1
    frequency:   -30.4116973753
  - # 2
    frequency:   -15.2400932512
  - # 3
    frequency:   -14.8228448872
  - # 4
    frequency:   -11.5954915284
  - # 5
    frequency:   -10.6722059553
  - # 6
    frequency:    12.9257388671
  - # 7
    frequency:    13.5082817172
  - # 8
    frequency:    22.2365798354
  - # 9
    frequency:    43.2709288488
  - # 10
    frequency:    43.4167359755
  - # 11
    frequency:    44.4677248810
  - # 12
    frequency:    44.6653773799

- q-position: [    0.2222222,    0.0000000,    0.3750000 ]
  weight: 8    
  band:
  - # 1
    frequency:   -28.9152889361
  - # 2
    frequency:   -13.6609795441
  - # 3
    frequency:   -12.6682268420
  - # 4
    frequency:     2.4458508431
  - # 5
    frequency:     6.9411316312
  - # 6
    frequency:    14.1970223641
  - # 7
    frequency:    19.7085755586
  - # 8
    frequency:    24.4509162905
  - # 9
    frequency:    40.9504082548
  - # 10
    frequency:    41.5345187759
  - # 11
    frequency:    43.5624358958
  - # 12
    frequency:    43.7092145339

- q-position: [    0.3333333,    0.0000000,    0.3750000 ]
  weight: 8    
  band:
  - # 1
    frequency:   -27.0393681339
  - # 2
    frequency:   -12.3502931123
  - # 3
    frequency:    -5.7519827154
  - # 4
    frequency:    10.8807299399
  - # 5
    frequency:    15.4570656242
  - # 6
    frequency:    15.6848329333
  - # 7
    frequency:    24.4440921633
  - # 8
    frequency:    29.1192243115
  - # 9
    frequency:    37.5109618807
  - # 10
    frequency:    39.7926933601
  - # 11
    frequency:    41.7500099801
  - # 12
    frequency:    42.0453189258

- q-position: [    0.4444444,    0.0000000,    0.3750000 ]
  weight: 8    
  band:
  - # 1
    frequency:   -25.6885469016
  - # 2
    frequency:   -11.6449399051
  - # 3
    frequency:     9.3975035170
  - # 4
    frequency:    13.1839745393
  - # 5
    frequency:    17.0492048354
  - # 6
    frequency:    18.3567725626
  - # 7
    frequency:    27.8522334259
  - # 8
    frequency:    34.0203327084
  - # 9
    frequency:    34.3202049324
  - # 10
    frequency:    38.8490475643
  - # 11
    frequency:    39.2778498780
  - # 12
    frequency:    40.1746256542

- q-position: [    0.1111111,    0.1111111,    0.3750000 ]
  weight: 4    
  band:
  - # 1
    frequency:   -29.4533350809
  - # 2
    frequency:   -14.9901950012
  - # 3
    frequency:   -11.4261909902
  - # 4
    frequency:    -6.6319799587
  - # 5
    frequency:     0.5004773625
  - # 6
    frequency:    13.9308312783
  - # 7
    frequency:    18.2662667422
  - # 8
    frequency:    23.5451581227
  - # 9
    frequency:    41.7460060720
  - # 10
    frequency:    42.1889656329
  - # 11
    frequency:    43.6338793162
  - # 12
    frequency:    44.2477974640

- q-position: [    0.2222222,    0.1111111,    0.3750000 ]
  weight: 8    
  band:
  - # 1
    frequency:   -27.8063516454
  - # 2
    frequency:   -13.7424714576
  - # 3
    frequency:    -3.9454393549
  - # 4
    frequency:     9.8137856113
  - # 5
    frequency:    12.7744443482
  - # 6
    frequency:    15.1149025560
  - # 7
    frequency:    23.7912861804
  - # 8
    frequency:    26.4122508142
  - # 9
    frequency:    38.9197161127
  - # 10
    frequency:    40.3753279268
  - # 11
    frequency:    42.2183754201
  - # 12
    frequency:    42.9826647327

- q-position: [    0.3333333,    0.1111111,    0.3750000 ]
  weight: 8    
  band:
  - # 1
    frequency:   -26.1555911863
  - # 2
    frequency:   -12.2036403360
  - # 3
    frequency:     9.4146388872
  - # 4
    frequency:    14.2802621688
  - # 5
    frequency:    16.9674051973
  - # 6
    frequency:    17.5942354961
  - # 7
    frequency:    26.5748296225
  - # 8
    frequency:    31.4466627479
  - # 9
    frequency:    35.4683283893
  - # 10
    frequency:    38.9521026171
  - # 11
    frequency:    40.5220989264
  - # 12
    frequency:    40.7710663073

- q-position: [   -0.5555556,    0.1111111,    0.3750000 ]
  weight: 8    
  band:
  - # 1
    frequency:   -25.3769358522
  - # 2
    frequency:   -11.6533822948
  - # 3
    frequency:    12.1601296106
  - # 4
    frequency:    14.8687981332
  - # 5
    frequency:    18.3452923423
  - # 6
    frequency:    18.6201994054
  - # 7
    frequency:    28.4925878203
  - # 8
    frequency:    33.0025818919
  - # 9
    frequency:    35.1003643094
  - # 10
    frequency:    37.2521254582
  - # 11
    frequency:    39.2656674781
  - # 12
    frequency:    39.7661215913

- q-position: [   -0.4444444,    0.1111111,    0.3750000 ]
  weight: 8    
  band:
  - # 1
    frequency:   -25.9652861196
  - # 2
    frequency:   -12.3854130693
  - # 3
    frequency:     9.4567250120
  - # 4
    frequency:    13.4136528346
  - # 5
    frequency:    16.9971382443
  - # 6
    frequency:    17.5047807320
  - # 7
    frequency:    26.7331880610
  - # 8
    frequency:    31.2973366102
  - # 9
    frequency:    35.1240730134
  - # 10
    frequency:    38.8255943765
  - # 11
    frequency:    40.2950297301
  - # 12
    frequency:    40.8291945789

- q-position: [   -0.3333333,    0.1111111,    0.3750000 ]
  weight: 8    
  band:
  - # 1
    frequency:   -27.5442336965
  - # 2
    frequency:   -14.0279840338
  - # 3
    frequency:    -6.3133799795
  - # 4
    frequency:     9.4312790768
  - # 5
    frequency:    12.5785360491
  - # 6
    frequency:    15.0920774461
  - # 7
    frequency:    23.2685042945
  - # 8
    frequency:    26.3759044058
  - # 9
    frequency:    38.6450060037
  - # 10
    frequency:    40.3267685142
  - # 11
    frequency:    42.0951391103
  - # 12
    frequency:    42.8407890323

- q-position: [   -0.2222222,    0.1111111,    0.3750000 ]
  weight: 8    
  band:
  - # 1
    frequency:   -29.2452927951
  - # 2
    frequency:   -15.4258470045
  - # 3
    frequency:   -12.3461047601
  - # 4
    frequency:    -7.9977082039
  - # 5
    frequency:     0.6159937931
  - # 6
    frequency:    13.9016886462
  - # 7
    frequency:    17.8898603169
  - # 8
    frequency:    23.5904054223
  - # 9
    frequency:    41.4347489491
  - # 10
    frequency:    42.1606405506
  - # 11
    frequency:    43.3632528277
  - # 12
    frequency:    44.4112935062

- q-position: [   -0.1111111,    0.1111111,    0.3750000 ]
  weight: 4    
  band:
  - # 1
    frequency:   -30.3341927920
  - # 2
    frequency:   -15.2546240308
  - # 3
    frequency:   -15.2067518400
  - # 4
    frequency:   -12.7857837657
  - # 5
    frequency:   -10.1320759869
  - # 6
    frequency:    13.0110961600
  - # 7
    frequency:    13.5327055504
  - # 8
    frequency:    22.2371737601
  - # 9
    frequency:    42.9767002422
  - # 10
    frequency:    43.5325801611
  - # 11
    frequency:    44.1763734822
  - # 12
    frequency:    44.9643366220

- q-position: [    0.2222222,    0.2222222,    0.3750000 ]
  weight: 4    
  band:
  - # 1
    frequency:   -26.3833240035
  - # 2
    frequency:   -12.8062458942
  - # 3
    frequency:    13.2476033660
  - # 4
    frequency:    13.3952963262
  - # 5
    frequency:    16.4589763025
  - # 6
    frequency:    17.1328483813
  - # 7
    frequency:    27.9853719775
  - # 8
    frequency:    28.1876980414
  - # 9
    frequency:    36.0282094856
  - # 10
    frequency:    39.0064188095
  - # 11
    frequency:    40.8669386717
  - # 12
    frequency:    41.1020330690

- q-position: [    0.3333333,    0.2222222,    0.3750000 ]
  weight: 8    
  band:
  - # 1
    frequency:   -25.2833634820
  - # 2
    frequency:   -11.6689905450
  - # 3
    frequency:    15.0085989380
  - # 4
    frequency:    16.9965279222
  - # 5
    frequency:    18.3964354012
  - # 6
    frequency:    19.9050321665
  - # 7
    frequency:    28.7700193448
  - # 8
    frequency:    32.0423922761
  - # 9
    frequency:    33.2424640532
  - # 10
    frequency:    37.0210189459
  - # 11
    frequency:    39.3976179381
  - # 12
    frequency:    39.8763696768

- q-position: [   -0.5555556,    0.2222222,    0.3750000 ]
  weight: 8    
  band:
  - # 1
    frequency:   -25.1017539907
  - # 2
    frequency:   -11.7734745869
  - # 3
    frequency:    14.7460026023
  - # 4
    frequency:    16.3518890047
  - # 5
    frequency:    18.2788146519
  - # 6
    frequency:    20.4767928961
  - # 7
    frequency:    28.8277574625
  - # 8
    frequency:    32.2533774221
  - # 9
    frequency:    32.9366968173
  - # 10
    frequency:    36.2701966504
  - # 11
    frequency:    39.4326504409
  - # 12
    frequency:    39.7618974948

- q-position: [   -0.4444444,    0.2222222,    0.3750000 ]
  weight: 8    
  band:
  - # 1
    frequency:   -25.9450586561
  - # 2
    frequency:   -13.0721952975
  - # 3
    frequency:     9.9352451334
  - # 4
    frequency:    14.7479852891
  - # 5
    frequency:    15.9000688672
  - # 6
    frequency:    17.5750773878
  - # 7
    frequency:    27.1741035738
  - # 8
    frequency:    28.4979185960
  - # 9
    frequency:    35.5348888040
  - # 10
    frequency:    38.7115768279
  - # 11
    frequency:    39.9589075897
  - # 12
    frequency:    41.2304569066

- q-position: [   -0.3333333,    0.2222222,    0.3750000 ]
  weight: 8    
  band:
  - # 1
    frequency:   -27.3397737566
  - # 2
    frequency:   -14.2694891068
  - # 3
    frequency:    -7.0789949763
  - # 4
    frequency:     7.7461309105
  - # 5
    frequency:    12.8944668605
  - # 6
    frequency:    15.0390680109
  - # 7
    frequency:    23.0500635309
  - # 8
    frequency:    26.5316324734
  - # 9
    frequency:    38.5400723761
  - # 10
    frequency:    40.2083448067
  - # 11
    frequency:    41.2240671623
  - # 12
    frequency:    43.1672645414

- q-position: [   -0.2222222,    0.2222222,    0.3750000 ]
  weight: 4    
  band:
  - # 1
    frequency:   -28.6287087380
  - # 2
    frequency:   -14.6013444666
  - # 3
    frequency:   -12.5322064343
  - # 4
    frequency:    -8.0334899037
  - # 5
    frequency:     8.2502627419
  - # 6
    frequency:    14.1273773737
  - # 7
    frequency:    19.5104683801
  - # 8
    frequency:    24.5430032053
  - # 9
    frequency:    40.5541344424
  - # 10
    frequency:    41.6124010156
  - # 11
    frequency:    42.4765146441
  - # 12
    frequency:    44.3104228893

- q-position: [   -0.6666667,    0.3333333,    0.3750000 ]
  weight: 4    
  band:
  - # 1
    frequency:   -24.7700608256
  - # 2
    frequency:   -11.3417752745
  - # 3
    frequency:    16.4937892866
  - # 4
    frequency:    17.5090645971
  - # 5
    frequency:    19.9610702331
  - # 6
    frequency:    20.8311975514
  - # 7
    frequency:    31.4902793889
  - # 8
    frequency:    31.5426438646
  - # 9
    frequency:    32.0242989562
  - # 10
    frequency:    33.9305341623
  - # 11
    frequency:    39.2367772536
  - # 12
    frequency:    39.3756459168

- q-position: [   -0.5555556,    0.3333333,    0.3750000 ]
  weight: 8    
  band:
  - # 1
    frequency:   -24.8495554417
  - # 2
    frequency:   -11.9128331208
  - # 3
    frequency:    14.9686726845
  - # 4
    frequency:    16.0604557328
  - # 5
    frequency:    18.0668567652
  - # 6
    frequency:    20.4268205824
  - # 7
    frequency:    29.2273050234
  - # 8
    frequency:    31.9653301248
  - # 9
    frequency:    32.6457237983
  - # 10
    frequency:    35.9972503961
  - # 11
    frequency:    38.8051477719
  - # 12
    frequency:    39.5278263490

- q-position: [   -0.4444444,    0.3333333,    0.3750000 ]
  weight: 8    
  band:
  - # 1
    frequency:   -25.5051826809
  - # 2
    frequency:   -12.6736389689
  - # 3
    frequency:     8.7509251893
  - # 4
    frequency:    12.7232081382
  - # 5
    frequency:    16.9166666183
  - # 6
    frequency:    17.4398241932
  - # 7
    frequency:    26.5442636816
  - # 8
    frequency:    31.3093606912
  - # 9
    frequency:    35.0278622298
  - # 10
    frequency:    38.1848011628
  - # 11
    frequency:    38.8263974767
  - # 12
    frequency:    40.8735980188

- q-position: [   -0.3333333,    0.3333333,    0.3750000 ]
  weight: 4    
  band:
  - # 1
    frequency:   -26.4920475089
  - # 2
    frequency:   -13.1048657360
  - # 3
    frequency:    -5.9096189970
  - # 4
    frequency:     7.5634815091
  - # 5
    frequency:    15.3281290475
  - # 6
    frequency:    15.6983041734
  - # 7
    frequency:    24.1631844624
  - # 8
    frequency:    29.1598485171
  - # 9
    frequency:    37.3062400895
  - # 10
    frequency:    39.2260360743
  - # 11
    frequency:    39.9800237805
  - # 12
    frequency:    42.5020815651

- q-position: [   -0.5555556,    0.4444444,    0.3750000 ]
  weight: 4    
  band:
  - # 1
    frequency:   -24.7258382786
  - # 2
    frequency:   -11.9732949787
  - # 3
    frequency:    12.1283590289
  - # 4
    frequency:    14.0497820987
  - # 5
    frequency:    18.2958987259
  - # 6
    frequency:    18.3561701225
  - # 7
    frequency:    28.8809232360
  - # 8
    frequency:    32.4753262245
  - # 9
    frequency:    35.0047041347
  - # 10
    frequency:    36.4743749848
  - # 11
    frequency:    37.8036397639
  - # 12
    frequency:    38.9268062472

- q-position: [   -0.4444444,    0.4444444,    0.3750000 ]
  weight: 4    
  band:
  - # 1
    frequency:   -24.9496118419
  - # 2
    frequency:   -12.0316607494
  - # 3
    frequency:     8.7976216178
  - # 4
    frequency:    12.0794960780
  - # 5
    frequency:    16.9728156718
  - # 6
    frequency:    18.1223049571
  - # 7
    frequency:    27.9065713965
  - # 8
    frequency:    33.7427208443
  - # 9
    frequency:    34.2882039957
  - # 10
    frequency:    37.4966755133
  - # 11
    frequency:    37.8015744986
  - # 12
    frequency:    39.6012716966

