   4   4   0   0
  0.8381369E+01  0.2466437E-09  0.2466437E-09  0.6366481E-09  0.5000000E-15
  1.000000000000000E-004
  CAR 
 graphite                                
     18.94648964    -16.54503610  301      5.13446234      1.00000000
    -16.545  0.0000E+00  0.0000E+00
    -16.427  0.0000E+00  0.0000E+00
    -16.308  0.0000E+00  0.0000E+00
    -16.190  0.0000E+00  0.0000E+00
    -16.072  0.0000E+00  0.0000E+00
    -15.954  0.0000E+00  0.0000E+00
    -15.835  0.0000E+00  0.0000E+00
    -15.717  0.0000E+00  0.0000E+00
    -15.599  0.0000E+00  0.0000E+00
    -15.480  0.0000E+00  0.0000E+00
    -15.362  0.0000E+00  0.0000E+00
    -15.244  0.0000E+00  0.0000E+00
    -15.125  0.0000E+00  0.0000E+00
    -15.007  0.0000E+00  0.0000E+00
    -14.889  0.0000E+00  0.0000E+00
    -14.770  0.0000E+00  0.0000E+00
    -14.652  0.0000E+00  0.0000E+00
    -14.534  0.1522E-04  0.5676E-07
    -14.416  0.9384E-03  0.4723E-04
    -14.297  0.1462E-02  0.1996E-03
    -14.179  0.2002E-02  0.4026E-03
    -14.061  0.2904E-02  0.6871E-03
    -13.942  0.3061E-02  0.1063E-02
    -13.824  0.3036E-02  0.1419E-02
    -13.706  0.3099E-02  0.1782E-02
    -13.587  0.3084E-02  0.2149E-02
    -13.469  0.3069E-02  0.2512E-02
    -13.351  0.3124E-02  0.2880E-02
    -13.232  0.3135E-02  0.3250E-02
    -13.114  0.3133E-02  0.3621E-02
    -12.996  0.3098E-02  0.3990E-02
    -12.878  0.3074E-02  0.4354E-02
    -12.759  0.3099E-02  0.4719E-02
    -12.641  0.3142E-02  0.5087E-02
    -12.523  0.3188E-02  0.5462E-02
    -12.404  0.3181E-02  0.5840E-02
    -12.286  0.3173E-02  0.6215E-02
    -12.168  0.3153E-02  0.6590E-02
    -12.049  0.3125E-02  0.6961E-02
    -11.931  0.3137E-02  0.7331E-02
    -11.813  0.3158E-02  0.7703E-02
    -11.695  0.3185E-02  0.8079E-02
    -11.576  0.3216E-02  0.8457E-02
    -11.458  0.3254E-02  0.8840E-02
    -11.340  0.3254E-02  0.9225E-02
    -11.221  0.3253E-02  0.9610E-02
    -11.103  0.3239E-02  0.9994E-02
    -10.985  0.3231E-02  0.1038E-01
    -10.866  0.3243E-02  0.1076E-01
    -10.748  0.3265E-02  0.1114E-01
    -10.630  0.3294E-02  0.1153E-01
    -10.511  0.3324E-02  0.1192E-01
    -10.393  0.3362E-02  0.1232E-01
    -10.275  0.3409E-02  0.1272E-01
    -10.157  0.3467E-02  0.1313E-01
    -10.038  0.3524E-02  0.1354E-01
     -9.920  0.3605E-02  0.1396E-01
     -9.802  0.3707E-02  0.1439E-01
     -9.683  0.3850E-02  0.1484E-01
     -9.565  0.4739E-02  0.1533E-01
     -9.447  0.5183E-02  0.1592E-01
     -9.328  0.5707E-02  0.1656E-01
     -9.210  0.4496E-02  0.1717E-01
     -9.092  0.3294E-02  0.1762E-01
     -8.974  0.2678E-02  0.1797E-01
     -8.855  0.2393E-02  0.1827E-01
     -8.737  0.4126E-02  0.1860E-01
     -8.619  0.2747E-02  0.1897E-01
     -8.500  0.2350E-02  0.1930E-01
     -8.382  0.1149E-02  0.1946E-01
     -8.264  0.1005E-02  0.1959E-01
     -8.145  0.8599E-03  0.1970E-01
     -8.027  0.7992E-03  0.1979E-01
     -7.909  0.1024E-02  0.1990E-01
     -7.790  0.1313E-02  0.2004E-01
     -7.672  0.1611E-02  0.2021E-01
     -7.554  0.3725E-02  0.2051E-01
     -7.436  0.4346E-02  0.2104E-01
     -7.317  0.4323E-02  0.2155E-01
     -7.199  0.3935E-02  0.2203E-01
     -7.081  0.4704E-02  0.2254E-01
     -6.962  0.5472E-02  0.2314E-01
     -6.844  0.6228E-02  0.2383E-01
     -6.726  0.4772E-02  0.2446E-01
     -6.607  0.3536E-02  0.2494E-01
     -6.489  0.3435E-02  0.2535E-01
     -6.371  0.3345E-02  0.2575E-01
     -6.252  0.3259E-02  0.2614E-01
     -6.134  0.3175E-02  0.2652E-01
     -6.016  0.3083E-02  0.2689E-01
     -5.898  0.2988E-02  0.2725E-01
     -5.779  0.2893E-02  0.2760E-01
     -5.661  0.2798E-02  0.2793E-01
     -5.543  0.2703E-02  0.2826E-01
     -5.424  0.2607E-02  0.2857E-01
     -5.306  0.2621E-02  0.2888E-01
     -5.188  0.2847E-02  0.2920E-01
     -5.069  0.3079E-02  0.2955E-01
     -4.951  0.3310E-02  0.2993E-01
     -4.833  0.3542E-02  0.3034E-01
     -4.715  0.3774E-02  0.3077E-01
     -4.596  0.4006E-02  0.3123E-01
     -4.478  0.4099E-02  0.3171E-01
     -4.360  0.4094E-02  0.3220E-01
     -4.241  0.3911E-02  0.3267E-01
     -4.123  0.3823E-02  0.3313E-01
     -4.005  0.3821E-02  0.3358E-01
     -3.886  0.3820E-02  0.3403E-01
     -3.768  0.3821E-02  0.3448E-01
     -3.650  0.3882E-02  0.3494E-01
     -3.531  0.4017E-02  0.3540E-01
     -3.413  0.4444E-02  0.3590E-01
     -3.295  0.4649E-02  0.3644E-01
     -3.177  0.4888E-02  0.3701E-01
     -3.058  0.5099E-02  0.3760E-01
     -2.940  0.5419E-02  0.3822E-01
     -2.822  0.5705E-02  0.3888E-01
     -2.703  0.5885E-02  0.3956E-01
     -2.585  0.6125E-02  0.4027E-01
     -2.467  0.6448E-02  0.4102E-01
     -2.348  0.6875E-02  0.4180E-01
     -2.230  0.7054E-02  0.4264E-01
     -2.112  0.6462E-02  0.4345E-01
     -1.994  0.6205E-02  0.4419E-01
     -1.875  0.6050E-02  0.4492E-01
     -1.757  0.6023E-02  0.4563E-01
     -1.639  0.7442E-02  0.4642E-01
     -1.520  0.8396E-02  0.4736E-01
     -1.402  0.9361E-02  0.4841E-01
     -1.284  0.1086E-01  0.4959E-01
     -1.165  0.1321E-01  0.5114E-01
     -1.047  0.1020E-01  0.5252E-01
     -0.929  0.8994E-02  0.5364E-01
     -0.810  0.8072E-02  0.5465E-01
     -0.692  0.7414E-02  0.5556E-01
     -0.574  0.5573E-02  0.5632E-01
     -0.456  0.5236E-02  0.5696E-01
     -0.337  0.5107E-02  0.5757E-01
     -0.219  0.5358E-02  0.5819E-01
     -0.101  0.5915E-02  0.5885E-01
      0.018  0.7155E-02  0.5961E-01
      0.136  0.7476E-02  0.6054E-01
      0.254  0.7987E-02  0.6146E-01
      0.373  0.7295E-02  0.6236E-01
      0.491  0.6803E-02  0.6320E-01
      0.609  0.6528E-02  0.6399E-01
      0.728  0.6269E-02  0.6474E-01
      0.846  0.6044E-02  0.6547E-01
      0.964  0.5850E-02  0.6617E-01
      1.082  0.5822E-02  0.6686E-01
      1.201  0.5986E-02  0.6756E-01
      1.319  0.5861E-02  0.6826E-01
      1.437  0.5746E-02  0.6895E-01
      1.556  0.6076E-02  0.6964E-01
      1.674  0.5760E-02  0.7034E-01
      1.792  0.5471E-02  0.7100E-01
      1.911  0.5954E-02  0.7170E-01
      2.029  0.5411E-02  0.7236E-01
      2.147  0.4600E-02  0.7296E-01
      2.265  0.4121E-02  0.7347E-01
      2.384  0.4040E-02  0.7395E-01
      2.502  0.4023E-02  0.7443E-01
      2.620  0.4011E-02  0.7490E-01
      2.739  0.4023E-02  0.7538E-01
      2.857  0.4041E-02  0.7585E-01
      2.975  0.4343E-02  0.7635E-01
      3.094  0.4539E-02  0.7687E-01
      3.212  0.4002E-02  0.7738E-01
      3.330  0.3242E-02  0.7780E-01
      3.449  0.2865E-02  0.7816E-01
      3.567  0.2343E-02  0.7847E-01
      3.685  0.1904E-02  0.7872E-01
      3.803  0.1710E-02  0.7893E-01
      3.922  0.1536E-02  0.7913E-01
      4.040  0.1356E-02  0.7930E-01
      4.158  0.1182E-02  0.7945E-01
      4.277  0.1011E-02  0.7958E-01
      4.395  0.8857E-03  0.7969E-01
      4.513  0.7321E-03  0.7978E-01
      4.632  0.5778E-03  0.7986E-01
      4.750  0.4303E-03  0.7992E-01
      4.868  0.2890E-03  0.7996E-01
      4.986  0.1526E-03  0.7999E-01
      5.105  0.2120E-04  0.8000E-01
      5.223  0.5706E-04  0.8000E-01
      5.341  0.1427E-03  0.8001E-01
      5.460  0.2344E-03  0.8004E-01
      5.578  0.3329E-03  0.8007E-01
      5.696  0.4398E-03  0.8012E-01
      5.815  0.5554E-03  0.8017E-01
      5.933  0.6838E-03  0.8025E-01
      6.051  0.8294E-03  0.8034E-01
      6.170  0.1014E-02  0.8045E-01
      6.288  0.1547E-02  0.8060E-01
      6.406  0.1942E-02  0.8081E-01
      6.524  0.2194E-02  0.8106E-01
      6.643  0.2622E-02  0.8133E-01
      6.761  0.5537E-02  0.8178E-01
      6.879  0.5475E-02  0.8250E-01
      6.998  0.4425E-02  0.8308E-01
      7.116  0.4241E-02  0.8359E-01
      7.234  0.4079E-02  0.8408E-01
      7.353  0.3949E-02  0.8455E-01
      7.471  0.3890E-02  0.8502E-01
      7.589  0.3930E-02  0.8548E-01
      7.708  0.3795E-02  0.8594E-01
      7.826  0.3192E-02  0.8634E-01
      7.944  0.3034E-02  0.8671E-01
      8.062  0.2892E-02  0.8706E-01
      8.181  0.2764E-02  0.8740E-01
      8.299  0.2651E-02  0.8772E-01
      8.417  0.2570E-02  0.8803E-01
      8.536  0.2507E-02  0.8833E-01
      8.654  0.2450E-02  0.8862E-01
      8.772  0.2399E-02  0.8891E-01
      8.891  0.2349E-02  0.8919E-01
      9.009  0.2299E-02  0.8946E-01
      9.127  0.2249E-02  0.8973E-01
      9.245  0.2181E-02  0.8999E-01
      9.364  0.2126E-02  0.9025E-01
      9.482  0.2077E-02  0.9050E-01
      9.600  0.2031E-02  0.9074E-01
      9.719  0.1989E-02  0.9098E-01
      9.837  0.1950E-02  0.9121E-01
      9.955  0.1914E-02  0.9144E-01
     10.074  0.1970E-02  0.9167E-01
     10.192  0.2143E-02  0.9191E-01
     10.310  0.2212E-02  0.9217E-01
     10.429  0.2234E-02  0.9243E-01
     10.547  0.2297E-02  0.9270E-01
     10.665  0.2353E-02  0.9297E-01
     10.783  0.2460E-02  0.9326E-01
     10.902  0.2588E-02  0.9356E-01
     11.020  0.2715E-02  0.9387E-01
     11.138  0.2849E-02  0.9420E-01
     11.257  0.3044E-02  0.9455E-01
     11.375  0.3028E-02  0.9491E-01
     11.493  0.2733E-02  0.9525E-01
     11.612  0.2517E-02  0.9556E-01
     11.730  0.2348E-02  0.9585E-01
     11.848  0.2221E-02  0.9612E-01
     11.966  0.2083E-02  0.9637E-01
     12.085  0.1922E-02  0.9661E-01
     12.203  0.1824E-02  0.9683E-01
     12.321  0.1912E-02  0.9705E-01
     12.440  0.2663E-02  0.9732E-01
     12.558  0.3771E-02  0.9769E-01
     12.676  0.6164E-02  0.9825E-01
     12.795  0.6576E-02  0.9901E-01
     12.913  0.7743E-02  0.9985E-01
     13.031  0.9070E-02  0.1008E+00
     13.150  0.9686E-02  0.1020E+00
     13.268  0.1037E-01  0.1032E+00
     13.386  0.1048E-01  0.1044E+00
     13.504  0.1364E-01  0.1057E+00
     13.623  0.1332E-01  0.1073E+00
     13.741  0.1016E-01  0.1087E+00
     13.859  0.7319E-02  0.1097E+00
     13.978  0.6046E-02  0.1105E+00
     14.096  0.5625E-02  0.1112E+00
     14.214  0.5601E-02  0.1119E+00
     14.333  0.5711E-02  0.1125E+00
     14.451  0.5162E-02  0.1132E+00
     14.569  0.4521E-02  0.1138E+00
     14.688  0.3919E-02  0.1143E+00
     14.806  0.3377E-02  0.1147E+00
     14.924  0.3200E-02  0.1151E+00
     15.042  0.3352E-02  0.1155E+00
     15.161  0.4442E-02  0.1160E+00
     15.279  0.3566E-02  0.1164E+00
     15.397  0.3711E-02  0.1169E+00
     15.516  0.4070E-02  0.1173E+00
     15.634  0.4724E-02  0.1178E+00
     15.752  0.3501E-02  0.1183E+00
     15.871  0.2526E-02  0.1187E+00
     15.989  0.2060E-02  0.1189E+00
     16.107  0.1732E-02  0.1192E+00
     16.225  0.1488E-02  0.1194E+00
     16.344  0.1371E-02  0.1195E+00
     16.462  0.1223E-02  0.1197E+00
     16.580  0.1069E-02  0.1198E+00
     16.699  0.6401E-03  0.1199E+00
     16.817  0.3897E-03  0.1200E+00
     16.935  0.5409E-05  0.1200E+00
     17.054  0.0000E+00  0.1200E+00
     17.172  0.0000E+00  0.1200E+00
     17.290  0.0000E+00  0.1200E+00
     17.409  0.0000E+00  0.1200E+00
     17.527  0.0000E+00  0.1200E+00
     17.645  0.0000E+00  0.1200E+00
     17.763  0.0000E+00  0.1200E+00
     17.882  0.0000E+00  0.1200E+00
     18.000  0.0000E+00  0.1200E+00
     18.118  0.0000E+00  0.1200E+00
     18.237  0.0000E+00  0.1200E+00
     18.355  0.0000E+00  0.1200E+00
     18.473  0.0000E+00  0.1200E+00
     18.592  0.0000E+00  0.1200E+00
     18.710  0.0000E+00  0.1200E+00
     18.828  0.0000E+00  0.1200E+00
     18.946  0.0000E+00  0.1200E+00
