    4    4  200    1
  0.8381369E+01  0.2466437E-09  0.2466437E-09  0.6366481E-09  0.5000000E-15
  1.000000000000000E-004
  CAR 
 graphite                                
     16    215     12
 
  0.0000000E+00  0.0000000E+00  0.0000000E+00  0.8680556E-03
    1      -14.545036
    2      -14.099862
    3       -3.590796
    4       -1.045711
    5        2.150898
    6        2.167378
    7        2.182920
    8        2.198393
    9        9.954499
   10       13.477410
   11       13.482436
   12       13.560044
 
  0.8333333E-01 -0.1387779E-16  0.0000000E+00  0.3472222E-02
    1      -14.378674
    2      -13.937660
    3       -3.388793
    4       -0.860098
    5        1.498697
    6        1.554298
    7        1.808155
    8        1.855793
    9       10.148789
   10       13.524009
   11       13.648710
   12       14.179742
 
  0.1666667E+00 -0.1387779E-16  0.0000000E+00  0.3472222E-02
    1      -13.881404
    2      -13.452900
    3       -2.787118
    4       -0.310077
    5       -0.166115
    6       -0.062941
    7        1.004776
    8        1.071922
    9       10.733559
   10       13.398032
   11       13.663081
   12       14.242068
 
  0.2500000E+00  0.0000000E+00  0.0000000E+00  0.3472222E-02
    1      -13.059277
    2      -12.651218
    3       -2.294639
    4       -2.138631
    5       -1.800707
    6        0.118136
    7        0.197687
    8        0.577828
    9       11.696688
   10       11.986790
   11       12.850844
   12       13.043932
 
  0.3333333E+00 -0.5551115E-16  0.0000000E+00  0.3472222E-02
    1      -11.924499
    2      -11.544785
    3       -4.526917
    4       -4.319355
    5       -0.618848
    6       -0.532560
    7       -0.466675
    8        1.729391
    9        9.531436
   10       10.721447
   11       12.597239
   12       12.929357
 
  0.4166667E+00  0.0000000E+00  0.0000000E+00  0.3472222E-02
    1      -10.507535
    2      -10.167163
    3       -6.650751
    4       -6.401394
    5       -1.093689
    6       -1.003635
    7        1.101932
    8        2.866583
    9        7.425047
   10        8.694492
   11       12.362208
   12       12.909040
 
  0.5000000E+00  0.0000000E+00  0.0000000E+00  0.1736111E-02
    1       -9.175119
    2       -9.005245
    3       -8.078924
    4       -7.953049
    5       -1.256284
    6       -1.165238
    7        2.234652
    8        3.132364
    9        6.711478
   10        7.506948
   11       12.268103
   12       12.841931
 
  0.8333333E-01  0.8333333E-01  0.0000000E+00  0.1736111E-02
    1      -14.046605
    2      -13.613957
    3       -2.986745
    4       -0.491834
    5        0.463663
    6        0.515844
    7        1.134583
    8        1.174199
    9       10.540672
   10       13.799376
   11       13.960244
   12       14.786543
 
  0.1666667E+00  0.8333333E-01  0.0000000E+00  0.3472222E-02
    1      -13.386666
    2      -12.970486
    3       -2.191602
    4       -1.278719
    5       -1.170151
    6        0.120226
    7        0.192439
    8        0.229365
    9       11.324763
   10       12.937016
   11       13.558772
   12       13.858568
 
  0.2500000E+00  0.8333333E-01  0.0000000E+00  0.3472222E-02
    1      -12.407746
    2      -12.015981
    3       -3.386849
    4       -3.214854
    5       -1.026955
    6       -0.778890
    7       -0.682851
    8        1.260736
    9       10.646139
   10       11.575678
   11       12.476911
   12       13.542831
 
  0.3333333E+00  0.8333333E-01  0.0000000E+00  0.3472222E-02
    1      -11.129017
    2      -10.770145
    3       -5.539046
    4       -5.314170
    5       -1.420081
    6       -1.313424
    7        0.446356
    8        2.470314
    9        8.344924
   10        9.534661
   11       13.176208
   12       13.656862
 
  0.4166667E+00  0.8333333E-01  0.0000000E+00  0.3472222E-02
    1       -9.619868
    2       -9.320862
    3       -7.490426
    4       -7.245616
    5       -1.751737
    6       -1.640596
    7        1.991638
    8        3.287107
    9        6.826418
   10        7.779868
   11       13.000705
   12       13.588346
 
  0.5000000E+00  0.8333333E-01  0.0000000E+00  0.3472222E-02
    1       -9.622268
    2       -9.323092
    3       -7.487730
    4       -7.242656
    5       -1.752502
    6       -1.641428
    7        1.990075
    8        3.287004
    9        6.825558
   10        7.782375
   11       13.001704
   12       13.589350
 
 -0.4166667E+00  0.8333333E-01  0.0000000E+00  0.3472222E-02
    1      -11.131192
    2      -10.772316
    3       -5.535494
    4       -5.310542
    5       -1.422609
    6       -1.315740
    7        0.444456
    8        2.468881
    9        8.344703
   10        9.537836
   11       13.179074
   12       13.658394
 
 -0.3333333E+00  0.8333333E-01  0.0000000E+00  0.3472222E-02
    1      -12.409449
    2      -12.017675
    3       -3.383613
    4       -3.211378
    5       -1.028593
    6       -0.782124
    7       -0.686006
    8        1.259213
    9       10.644560
   10       11.578684
   11       12.474653
   12       13.547322
 
 -0.2500000E+00  0.8333333E-01  0.0000000E+00  0.3472222E-02
    1      -13.387878
    2      -12.971691
    3       -2.192830
    4       -1.277749
    5       -1.169103
    6        0.119068
    7        0.191043
    8        0.228169
    9       11.323036
   10       12.932968
   11       13.561368
   12       13.864364
 
 -0.1666667E+00  0.8333333E-01  0.0000000E+00  0.3472222E-02
    1      -14.047331
    2      -13.614677
    3       -2.987502
    4       -0.492581
    5        0.455584
    6        0.509003
    7        1.141956
    8        1.181531
    9       10.539581
   10       13.806222
   11       13.968924
   12       14.783960
 
 -0.8333333E-01  0.8333333E-01  0.0000000E+00  0.1736111E-02
    1      -14.378916
    2      -13.937899
    3       -3.389048
    4       -0.860351
    5        1.485887
    6        1.542069
    7        1.821011
    8        1.868237
    9       10.148408
   10       13.528166
   11       13.653272
   12       14.176835
 
  0.1666667E+00  0.1666667E+00  0.0000000E+00  0.1736111E-02
    1      -12.569916
    2      -12.174163
    3       -2.603894
    4       -2.518352
    5       -1.235448
    6       -1.215807
    7       -1.172894
    8        1.100747
    9       11.193629
   10       11.850077
   11       12.308382
   12       15.032984
 
  0.2500000E+00  0.1666667E+00  0.0000000E+00  0.3472222E-02
    1      -11.445605
    2      -11.078339
    3       -4.371352
    4       -4.209824
    5       -2.319943
    6       -2.206148
    7        0.104575
    8        2.238733
    9        9.164511
   10       10.000642
   11       13.649520
   12       15.118570
 
  0.3333333E+00  0.1666667E+00  0.0000000E+00  0.3472222E-02
    1      -10.048133
    2       -9.720356
    3       -6.315471
    4       -6.089464
    5       -2.913501
    6       -2.770328
    7        1.667077
    8        3.407163
    9        7.249094
   10        8.210395
   11       14.828436
   12       15.277057
 
  0.4166667E+00  0.1666667E+00  0.0000000E+00  0.3472222E-02
    1       -8.748926
    2       -8.585212
    3       -7.674578
    4       -7.563791
    5       -3.103414
    6       -2.953557
    7        2.830837
    8        3.708230
    9        6.668410
   10        6.978192
   11       14.744236
   12       15.469302
 
  0.5000000E+00  0.1666667E+00  0.0000000E+00  0.3472222E-02
    1      -10.052890
    2       -9.725086
    3       -6.309145
    4       -6.082752
    5       -2.916046
    6       -2.772713
    7        1.663371
    8        3.404968
    9        7.246614
   10        8.217650
   11       14.831143
   12       15.269763
 
 -0.4166667E+00  0.1666667E+00  0.0000000E+00  0.3472222E-02
    1      -11.449492
    2      -11.082221
    3       -4.365642
    4       -4.203607
    5       -2.323325
    6       -2.209333
    7        0.101059
    8        2.235460
    9        9.160304
   10       10.008025
   11       13.644165
   12       15.124647
 
 -0.3333333E+00  0.1666667E+00  0.0000000E+00  0.3472222E-02
    1      -12.572802
    2      -12.177021
    3       -2.605578
    4       -2.518072
    5       -1.233610
    6       -1.218546
    7       -1.169888
    8        1.097918
    9       11.185547
   10       11.856152
   11       12.304398
   12       15.052669
 
 -0.2500000E+00  0.1666667E+00  0.0000000E+00  0.3472222E-02
    1      -13.388601
    2      -12.972408
    3       -2.193572
    4       -1.288893
    5       -1.179106
    6        0.130929
    7        0.203497
    8        0.227370
    9       11.322092
   10       12.927885
   11       13.560827
   12       13.884168
 
 -0.1666667E+00  0.1666667E+00  0.0000000E+00  0.1736111E-02
    1      -13.882367
    2      -13.453860
    3       -2.788124
    4       -0.311099
    5       -0.179575
    6       -0.075882
    7        1.019337
    8        1.086248
    9       10.732190
   10       13.416624
   11       13.680630
   12       14.235254
 
  0.2500000E+00  0.2500000E+00  0.0000000E+00  0.1736111E-02
    1      -10.198524
    2       -9.864568
    3       -5.392587
    4       -5.275558
    5       -3.786639
    6       -3.700454
    7        1.540741
    8        3.423621
    9        7.556433
   10        8.365444
   11       15.121072
   12       16.927631
 
  0.3333333E+00  0.2500000E+00  0.0000000E+00  0.3472222E-02
    1       -8.746260
    2       -8.471802
    3       -6.845446
    4       -6.659936
    5       -4.529435
    6       -4.382212
    7        3.105772
    8        4.408841
    9        6.174184
   10        6.890814
   11       16.652948
   12       16.870104
 
  0.4166667E+00  0.2500000E+00  0.0000000E+00  0.3472222E-02
    1       -8.753538
    2       -8.478832
    3       -6.838198
    4       -6.651074
    5       -4.530496
    6       -4.382915
    7        3.101278
    8        4.408260
    9        6.165944
   10        6.902454
   11       16.645748
   12       16.862270
 
  0.5000000E+00  0.2500000E+00  0.0000000E+00  0.3472222E-02
    1      -10.204960
    2       -9.871175
    3       -5.389082
    4       -5.269293
    5       -3.785895
    6       -3.698030
    7        1.535537
    8        3.418294
    9        7.549618
   10        8.376880
   11       15.111808
   12       16.946490
 
 -0.4166667E+00  0.2500000E+00  0.0000000E+00  0.3472222E-02
    1      -11.450717
    2      -11.083463
    3       -4.375755
    4       -4.212645
    5       -2.311604
    6       -2.196901
    7        0.099975
    8        2.233689
    9        9.155830
   10       10.007379
   11       13.642825
   12       15.155789
 
 -0.3333333E+00  0.2500000E+00  0.0000000E+00  0.3472222E-02
    1      -12.411382
    2      -12.019608
    3       -3.396235
    4       -3.223587
    5       -1.030473
    6       -0.765510
    7       -0.669391
    8        1.256897
    9       10.636563
   10       11.576265
   11       12.472685
   12       13.575992
 
 -0.2500000E+00  0.2500000E+00  0.0000000E+00  0.1736111E-02
    1      -13.061449
    2      -12.653379
    3       -2.307374
    4       -2.150945
    5       -1.802896
    6        0.134395
    7        0.213771
    8        0.575458
    9       11.694104
   10       11.977367
   11       12.848727
   12       13.071446
 
  0.3333333E+00  0.3333333E+00  0.0000000E+00  0.1736111E-02
    1       -7.545534
    2       -7.399236
    3       -7.396629
    4       -7.251968
    5       -5.343820
    6       -5.342457
    7        4.303390
    8        5.101424
    9        5.113209
   10        6.124127
   11       16.528804
   12       16.557322
 
  0.4166667E+00  0.3333333E+00  0.0000000E+00  0.3472222E-02
    1       -8.756138
    2       -8.482351
    3       -6.843350
    4       -6.656447
    5       -4.521866
    6       -4.373510
    7        3.101437
    8        4.397592
    9        6.170450
   10        6.902866
   11       16.652563
   12       16.890577
 
  0.5000000E+00  0.3333333E+00  0.0000000E+00  0.3472222E-02
    1      -10.056061
    2       -9.728505
    3       -6.318778
    4       -6.092207
    5       -2.901120
    6       -2.757733
    7        1.661544
    8        3.397923
    9        7.244205
   10        8.215439
   11       14.863128
   12       15.277523
 
 -0.4166667E+00  0.3333333E+00  0.0000000E+00  0.3472222E-02
    1      -11.134895
    2      -10.776097
    3       -5.546496
    4       -5.321249
    5       -1.404602
    6       -1.297974
    7        0.441382
    8        2.463369
    9        8.338155
   10        9.533253
   11       13.209805
   12       13.684395
 
 -0.3333333E+00  0.3333333E+00  0.0000000E+00  0.1736111E-02
    1      -11.928385
    2      -11.548688
    3       -4.537790
    4       -4.329904
    5       -0.601252
    6       -0.515122
    7       -0.470287
    8        1.724760
    9        9.522784
   10       10.717244
   11       12.623259
   12       12.946165
 
  0.4166667E+00  0.4166667E+00  0.0000000E+00  0.1736111E-02
    1       -8.758262
    2       -8.598228
    3       -7.674479
    4       -7.566108
    5       -3.088950
    6       -2.939086
    7        2.831804
    8        3.688466
    9        6.676314
   10        6.973520
   11       14.781164
   12       15.507117
 
  0.5000000E+00  0.4166667E+00  0.0000000E+00  0.3472222E-02
    1       -9.628988
    2       -9.330900
    3       -7.494230
    4       -7.249780
    5       -1.734728
    6       -1.623686
    7        1.988081
    8        3.272078
    9        6.828202
   10        7.774676
   11       13.036170
   12       13.623933
 
 -0.4166667E+00  0.4166667E+00  0.0000000E+00  0.1736111E-02
    1      -10.513824
    2      -10.173702
    3       -6.658740
    4       -6.409293
    5       -1.075265
    6       -0.985355
    7        1.097584
    8        2.856816
    9        7.421650
   10        8.688207
   11       12.395550
   12       12.942216
 
  0.5000000E+00  0.5000000E+00  0.0000000E+00  0.8680556E-03
    1       -9.185185
    2       -9.019123
    3       -8.079883
    4       -7.956632
    5       -1.237578
    6       -1.146677
    7        2.235135
    8        3.111512
    9        6.719130
   10        7.495050
   11       12.302262
   12       12.876100
 
  0.0000000E+00  0.0000000E+00  0.1250000E+00  0.1736111E-02
    1      -14.529541
    2      -14.118436
    3       -3.510158
    4       -1.168982
    5        2.152056
    6        2.168498
    7        2.181683
    8        2.197194
    9       10.185014
   10       13.479511
   11       13.485187
   12       13.556037
 
  0.8333333E-01 -0.1387779E-16  0.1250000E+00  0.6944444E-02
    1      -14.363287
    2      -13.956069
    3       -3.308730
    4       -0.982382
    5        1.500846
    6        1.552260
    7        1.810005
    8        1.853996
    9       10.377099
   10       13.526805
   11       13.644317
   12       14.187865
 
  0.1666667E+00 -0.1387779E-16  0.1250000E+00  0.6944444E-02
    1      -13.866460
    2      -13.470713
    3       -2.708516
    4       -0.429554
    5       -0.162043
    6       -0.066927
    7        1.007321
    8        1.069441
    9       10.954344
   10       13.401052
   11       13.650727
   12       14.268445
 
  0.2500000E+00  0.0000000E+00  0.1250000E+00  0.6944444E-02
    1      -13.044958
    2      -12.668102
    3       -2.288860
    4       -2.144911
    5       -1.724487
    6        0.121173
    7        0.194655
    8        0.464594
    9       11.837568
   10       12.078826
   11       12.801597
   12       13.061884
 
  0.3333333E+00 -0.5551115E-16  0.1250000E+00  0.6944444E-02
    1      -11.911149
    2      -11.560383
    3       -4.519425
    4       -4.327750
    5       -0.615545
    6       -0.535907
    7       -0.395172
    8        1.627822
    9        9.561998
   10       10.664012
   11       12.630686
   12       12.979078
 
  0.4166667E+00  0.0000000E+00  0.1250000E+00  0.6944444E-02
    1      -10.495331
    2      -10.181002
    3       -6.641804
    4       -6.411374
    5       -1.090160
    6       -1.007049
    7        1.164601
    8        2.796146
    9        7.446225
   10        8.624360
   11       12.382767
   12       12.888289
 
  0.5000000E+00  0.0000000E+00  0.1250000E+00  0.3472222E-02
    1       -9.167153
    2       -9.009636
    3       -8.077684
    4       -7.960738
    5       -1.253026
    6       -1.168744
    7        2.281594
    8        3.120432
    9        6.690446
   10        7.435378
   11       12.288699
   12       12.819367
 
  0.8333333E-01  0.8333333E-01  0.1250000E+00  0.3472222E-02
    1      -14.031522
    2      -13.631961
    3       -2.907520
    4       -0.612165
    5        0.465871
    6        0.514082
    7        1.135843
    8        1.172439
    9       10.764533
   10       13.798511
   11       13.953503
   12       14.831680
 
  0.1666667E+00  0.8333333E-01  0.1250000E+00  0.6944444E-02
    1      -13.372111
    2      -12.987749
    3       -2.114605
    4       -1.274586
    5       -1.174173
    6        0.113250
    7        0.123062
    8        0.189527
    9       11.536991
   10       12.955758
   11       13.521367
   12       13.875261
 
  0.2500000E+00  0.8333333E-01  0.1250000E+00  0.6944444E-02
    1      -12.393954
    2      -12.032134
    3       -3.380573
    4       -3.221578
    5       -0.953296
    6       -0.775421
    7       -0.686674
    8        1.153182
    9       10.671397
   10       11.533446
   11       12.676523
   12       13.560656
 
  0.3333333E+00  0.8333333E-01  0.1250000E+00  0.6944444E-02
    1      -11.116235
    2      -10.784816
    3       -5.530892
    4       -5.323035
    5       -1.416167
    6       -1.317614
    7        0.513953
    8        2.380410
    9        8.375327
   10        9.477714
   11       13.199668
   12       13.655360
 
  0.4166667E+00  0.8333333E-01  0.1250000E+00  0.6944444E-02
    1       -9.608913
    2       -9.332785
    3       -7.481968
    4       -7.255825
    5       -1.747617
    6       -1.644918
    7        2.045809
    8        3.250687
    9        6.823125
   10        7.715002
   11       13.021368
   12       13.564616
 
  0.5000000E+00  0.8333333E-01  0.1250000E+00  0.6944444E-02
    1       -9.611317
    2       -9.335055
    3       -7.479253
    4       -7.252873
    5       -1.748483
    6       -1.645746
    7        2.044268
    8        3.250481
    9        6.822450
   10        7.717406
   11       13.022350
   12       13.565610
 
 -0.4166667E+00  0.8333333E-01  0.1250000E+00  0.6944444E-02
    1      -11.118412
    2      -10.786987
    3       -5.527401
    4       -5.319431
    5       -1.418605
    6       -1.319953
    7        0.512059
    8        2.378908
    9        8.375267
   10        9.480743
   11       13.202523
   12       13.657325
 
 -0.3333333E+00  0.8333333E-01  0.1250000E+00  0.6944444E-02
    1      -12.395656
    2      -12.033828
    3       -3.377239
    4       -3.218108
    5       -0.954937
    6       -0.778633
    7       -0.689807
    8        1.151649
    9       10.670055
   10       11.536259
   11       12.674184
   12       13.565097
 
 -0.2500000E+00  0.8333333E-01  0.1250000E+00  0.6944444E-02
    1      -13.373323
    2      -12.988954
    3       -2.115832
    4       -1.273614
    5       -1.173126
    6        0.112152
    7        0.121792
    8        0.188139
    9       11.535302
   10       12.951987
   11       13.523844
   12       13.880988
 
 -0.1666667E+00  0.8333333E-01  0.1250000E+00  0.6944444E-02
    1      -14.032248
    2      -13.632680
    3       -2.908276
    4       -0.612912
    5        0.457830
    6        0.507186
    7        1.143222
    8        1.179777
    9       10.763439
   10       13.805369
   11       13.962131
   12       14.832485
 
 -0.8333333E-01  0.8333333E-01  0.1250000E+00  0.3472222E-02
    1      -14.363529
    2      -13.956308
    3       -3.308985
    4       -0.982635
    5        1.488056
    6        1.540008
    7        1.822844
    8        1.866458
    9       10.376715
   10       13.530967
   11       13.648875
   12       14.179916
 
  0.1666667E+00  0.1666667E+00  0.1250000E+00  0.3472222E-02
    1      -12.556018
    2      -12.190480
    3       -2.600411
    4       -2.521481
    5       -1.233596
    6       -1.175651
    7       -1.141317
    8        0.991242
    9       11.217647
   10       11.818774
   11       12.513243
   12       15.042667
 
  0.2500000E+00  0.1666667E+00  0.1250000E+00  0.6944444E-02
    1      -11.432628
    2      -11.093394
    3       -4.365273
    4       -4.215986
    5       -2.316058
    6       -2.210898
    7        0.174411
    8        2.140674
    9        9.193996
   10        9.966661
   11       13.820998
   12       15.134481
 
  0.3333333E+00  0.1666667E+00  0.1250000E+00  0.6944444E-02
    1      -10.036281
    2       -9.733747
    3       -6.307167
    4       -6.098502
    5       -2.908357
    6       -2.776103
    7        1.728420
    8        3.336782
    9        7.271767
   10        8.164814
   11       14.854639
   12       15.313669
 
  0.4166667E+00  0.1666667E+00  0.1250000E+00  0.6944444E-02
    1       -8.741343
    2       -8.589494
    3       -7.673628
    4       -7.570653
    5       -3.097995
    6       -2.959405
    7        2.877936
    8        3.698763
    9        6.637520
   10        6.939028
   11       14.763417
   12       15.430475
 
  0.5000000E+00  0.1666667E+00  0.1250000E+00  0.6944444E-02
    1      -10.041115
    2       -9.738480
    3       -6.300827
    4       -6.091806
    5       -2.910901
    6       -2.778459
    7        1.724732
    8        3.334445
    9        7.269743
   10        8.171665
   11       14.857328
   12       15.308788
 
 -0.4166667E+00  0.1666667E+00  0.1250000E+00  0.6944444E-02
    1      -11.436515
    2      -11.097276
    3       -4.359543
    4       -4.209789
    5       -2.319432
    6       -2.214093
    7        0.170900
    8        2.137379
    9        9.190212
   10        9.973520
   11       13.815446
   12       15.140471
 
 -0.3333333E+00  0.1666667E+00  0.1250000E+00  0.6944444E-02
    1      -12.558930
    2      -12.193381
    3       -2.602016
    4       -2.521209
    5       -1.231802
    6       -1.172871
    7       -1.144141
    8        0.988412
    9       11.210040
   10       11.824224
   11       12.509246
   12       15.062135
 
 -0.2500000E+00  0.1666667E+00  0.1250000E+00  0.6944444E-02
    1      -13.374044
    2      -12.989671
    3       -2.116567
    4       -1.284703
    5       -1.183171
    6        0.111420
    7        0.133675
    8        0.200577
    9       11.534273
   10       12.947393
   11       13.523504
   12       13.900300
 
 -0.1666667E+00  0.1666667E+00  0.1250000E+00  0.3472222E-02
    1      -13.867424
    2      -13.471672
    3       -2.709521
    4       -0.430573
    5       -0.175491
    6       -0.079885
    7        1.021874
    8        1.083776
    9       10.952963
   10       13.419501
   11       13.668241
   12       14.261861
 
  0.2500000E+00  0.2500000E+00  0.1250000E+00  0.3472222E-02
    1      -10.186543
    2       -9.878173
    3       -5.387786
    4       -5.279649
    5       -3.784528
    6       -3.704832
    7        1.604291
    8        3.341299
    9        7.587893
   10        8.333210
   11       15.208160
   12       16.794451
 
  0.3333333E+00  0.2500000E+00  0.1250000E+00  0.6944444E-02
    1       -8.736150
    2       -8.482586
    3       -6.838793
    4       -6.667340
    5       -4.524597
    6       -4.388425
    7        3.159193
    8        4.371668
    9        6.186857
   10        6.848668
   11       16.329186
   12       16.551182
 
  0.4166667E+00  0.2500000E+00  0.1250000E+00  0.6944444E-02
    1       -8.743456
    2       -8.489644
    3       -6.831478
    4       -6.658537
    5       -4.525647
    6       -4.389267
    7        3.154704
    8        4.370666
    9        6.179495
   10        6.859747
   11       16.315906
   12       16.557409
 
  0.5000000E+00  0.2500000E+00  0.1250000E+00  0.6944444E-02
    1      -10.193039
    2       -9.884756
    3       -5.384178
    4       -5.273496
    5       -3.783622
    6       -3.702430
    7        1.599079
    8        3.335940
    9        7.581633
   10        8.343838
   11       15.198458
   12       16.810005
 
 -0.4166667E+00  0.2500000E+00  0.1250000E+00  0.6944444E-02
    1      -11.437741
    2      -11.098517
    3       -4.369623
    4       -4.218877
    5       -2.307674
    6       -2.201681
    7        0.169804
    8        2.135665
    9        9.185711
   10        9.972629
   11       13.814446
   12       15.171436
 
 -0.3333333E+00  0.2500000E+00  0.1250000E+00  0.6944444E-02
    1      -12.397590
    2      -12.035768
    3       -3.389971
    4       -3.230337
    5       -0.956822
    6       -0.761967
    7       -0.673217
    8        1.149368
    9       10.661998
   10       11.533514
   11       12.672886
   12       13.593638
 
 -0.2500000E+00  0.2500000E+00  0.1250000E+00  0.3472222E-02
    1      -13.047130
    2      -12.670264
    3       -2.301611
    4       -2.157226
    5       -1.726686
    6        0.137445
    7        0.210746
    8        0.462239
    9       11.831910
   10       12.073163
   11       12.799676
   12       13.089079
 
  0.3333333E+00  0.3333333E+00  0.1250000E+00  0.3472222E-02
    1       -7.534887
    2       -7.398320
    3       -7.395834
    4       -7.263754
    5       -5.345209
    6       -5.343948
    7        4.363398
    8        5.110622
    9        5.121535
   10        6.041694
   11       16.209225
   12       16.232164
 
  0.4166667E+00  0.3333333E+00  0.1250000E+00  0.6944444E-02
    1       -8.746025
    2       -8.493104
    3       -6.836665
    4       -6.663919
    5       -4.516975
    6       -4.379814
    7        3.154716
    8        4.360854
    9        6.183286
   10        6.859940
   11       16.313964
   12       16.578218
 
  0.5000000E+00  0.3333333E+00  0.1250000E+00  0.6944444E-02
    1      -10.044280
    2       -9.741884
    3       -6.310464
    4       -6.101295
    5       -2.895965
    6       -2.763442
    7        1.722825
    8        3.327827
    9        7.266924
   10        8.169155
   11       14.890614
   12       15.322198
 
 -0.4166667E+00  0.3333333E+00  0.1250000E+00  0.6944444E-02
    1      -11.122116
    2      -10.790764
    3       -5.538330
    4       -5.330132
    5       -1.400687
    6       -1.302165
    7        0.508948
    8        2.373624
    9        8.368483
   10        9.475861
   11       13.233744
   12       13.685835
 
 -0.3333333E+00  0.3333333E+00  0.1250000E+00  0.3472222E-02
    1      -11.915033
    2      -11.564428
    3       -4.530323
    4       -4.338324
    5       -0.597958
    6       -0.518463
    7       -0.398802
    8        1.623272
    9        9.553263
   10       10.659489
   11       12.659052
   12       13.001025
 
  0.4166667E+00  0.4166667E+00  0.1250000E+00  0.3472222E-02
    1       -8.750788
    2       -8.602336
    3       -7.673619
    4       -7.572883
    5       -3.083511
    6       -2.944926
    7        2.878496
    8        3.680021
    9        6.644509
   10        6.934226
   11       14.800368
   12       15.467685
 
  0.5000000E+00  0.4166667E+00  0.1250000E+00  0.6944444E-02
    1       -9.618058
    2       -9.342779
    3       -7.485798
    4       -7.259988
    5       -1.730612
    6       -1.628004
    7        2.042049
    8        3.236390
    9        6.824159
   10        7.709627
   11       13.056839
   12       13.600124
 
 -0.4166667E+00  0.4166667E+00  0.1250000E+00  0.3472222E-02
    1      -10.501627
    2      -10.187529
    3       -6.649793
    4       -6.419281
    5       -1.071741
    6       -0.988763
    7        1.160165
    8        2.786802
    9        7.442309
   10        8.617895
   11       12.416135
   12       12.921456
 
  0.5000000E+00  0.5000000E+00  0.1250000E+00  0.1736111E-02
    1       -9.177337
    2       -9.023364
    3       -8.078744
    4       -7.964256
    5       -1.234326
    6       -1.150176
    7        2.281641
    8        3.100660
    9        6.696907
   10        7.423665
   11       12.322856
   12       12.853490
 
  0.0000000E+00  0.0000000E+00  0.2500000E+00  0.1736111E-02
    1      -14.484823
    2      -14.170605
    3       -3.276322
    4       -1.502185
    5        2.155487
    6        2.171823
    7        2.178132
    8        2.193750
    9       10.838142
   10       13.488676
   11       13.505748
   12       13.546452
 
  0.8333333E-01 -0.1387779E-16  0.2500000E+00  0.6944444E-02
    1      -14.318941
    2      -14.007668
    3       -3.076228
    4       -1.313136
    5        1.506852
    6        1.546211
    7        1.815135
    8        1.848852
    9       11.023516
   10       13.533951
   11       13.632590
   12       14.186193
 
  0.1666667E+00 -0.1387779E-16  0.2500000E+00  0.6944444E-02
    1      -13.823302
    2      -13.520772
    3       -2.480361
    4       -0.752638
    5       -0.150884
    6       -0.078189
    7        1.014577
    8        1.062109
    9       11.577086
   10       13.410666
   11       13.620603
   12       14.340262
 
  0.2500000E+00  0.0000000E+00  0.2500000E+00  0.6944444E-02
    1      -13.003621
    2      -12.715560
    3       -2.272492
    4       -2.162347
    5       -1.503673
    6        0.129718
    7        0.157136
    8        0.185889
    9       12.008910
   10       12.542090
   11       12.681153
   12       13.110803
 
  0.3333333E+00 -0.5551115E-16  0.2500000E+00  0.6944444E-02
    1      -11.872529
    2      -11.604405
    3       -4.497770
    4       -4.351064
    5       -0.606266
    6       -0.545354
    7       -0.187873
    8        1.349937
    9        9.658835
   10       10.506268
   11       12.699374
   12       13.002765
 