# Thermal properties / unit cell (natom)

unit:
  temperature:   K
  free_energy:   kJ/mol
  entropy:       J/K/mol
  heat_capacity: J/K/mol

natom:     4
num_modes: 3888
num_integrated_modes: 3876

zero_point_energy:      66.5169289
high_T_entropy:        228.8440576

thermal_properties:
- temperature:         0.0000000
  free_energy:        66.5169289
  entropy:             0.0000000
  heat_capacity:       0.0000000
  energy:             66.5169289

- temperature:        10.0000000
  free_energy:        66.5169128
  entropy:             0.0081820
  heat_capacity:       0.0277462
  energy:             66.5169946

- temperature:        20.0000000
  free_energy:        66.5166478
  entropy:             0.0476638
  heat_capacity:       0.0924475
  energy:             66.5176011

- temperature:        30.0000000
  free_energy:        66.5159205
  entropy:             0.1003251
  heat_capacity:       0.1848413
  energy:             66.5189303

- temperature:        40.0000000
  free_energy:        66.5145615
  entropy:             0.1770001
  heat_capacity:       0.3783741
  energy:             66.5216415

- temperature:        50.0000000
  free_energy:        66.5122453
  entropy:             0.2940043
  heat_capacity:       0.7053396
  energy:             66.5269455

- temperature:        60.0000000
  free_energy:        66.5085123
  entropy:             0.4615972
  heat_capacity:       1.1702748
  energy:             66.5362081

- temperature:        70.0000000
  free_energy:        66.5028251
  entropy:             0.6855921
  heat_capacity:       1.7748969
  energy:             66.5508165

- temperature:        80.0000000
  free_energy:        66.4945998
  entropy:             0.9697236
  heat_capacity:       2.5208961
  energy:             66.5721777

- temperature:        90.0000000
  free_energy:        66.4832219
  entropy:             1.3164266
  heat_capacity:       3.4064780
  energy:             66.6017003

- temperature:       100.0000000
  free_energy:        66.4680585
  entropy:             1.7269217
  heat_capacity:       4.4249349
  energy:             66.6407507

- temperature:       110.0000000
  free_energy:        66.4484707
  entropy:             2.2012232
  heat_capacity:       5.5651466
  energy:             66.6906052

- temperature:       120.0000000
  free_energy:        66.4238249
  entropy:             2.7382254
  heat_capacity:       6.8128097
  energy:             66.7524120

- temperature:       130.0000000
  free_energy:        66.3935040
  entropy:             3.3358609
  heat_capacity:       8.1517949
  energy:             66.8271659

- temperature:       140.0000000
  free_energy:        66.3569150
  entropy:             3.9912970
  heat_capacity:       9.5654024
  energy:             66.9156966

- temperature:       150.0000000
  free_energy:        66.3134966
  entropy:             4.7011455
  heat_capacity:      11.0374059
  energy:             67.0186684

- temperature:       160.0000000
  free_energy:        66.2627232
  entropy:             5.4616629
  heat_capacity:      12.5528289
  energy:             67.1365892

- temperature:       170.0000000
  free_energy:        66.2041075
  entropy:             6.2689287
  heat_capacity:      14.0984337
  energy:             67.2698254

- temperature:       180.0000000
  free_energy:        66.1372019
  entropy:             7.1189932
  heat_capacity:      15.6629507
  energy:             67.4186207

- temperature:       190.0000000
  free_energy:        66.0615979
  entropy:             8.0079916
  heat_capacity:      17.2370966
  energy:             67.5831163

- temperature:       200.0000000
  free_energy:        65.9769247
  entropy:             8.9322256
  heat_capacity:      18.8134433
  energy:             67.7633698

- temperature:       210.0000000
  free_energy:        65.8828476
  entropy:             9.8882166
  heat_capacity:      20.3861975
  energy:             67.9593730

- temperature:       220.0000000
  free_energy:        65.7790653
  entropy:            10.8727347
  heat_capacity:      21.9509376
  energy:             68.1710669

- temperature:       230.0000000
  free_energy:        65.6653077
  entropy:            11.8828097
  heat_capacity:      23.5043471
  energy:             68.3983539

- temperature:       240.0000000
  free_energy:        65.5413330
  entropy:            12.9157285
  heat_capacity:      25.0439661
  energy:             68.6411078

- temperature:       250.0000000
  free_energy:        65.4069252
  entropy:            13.9690237
  heat_capacity:      26.5679753
  energy:             68.8991812

- temperature:       260.0000000
  free_energy:        65.2618921
  entropy:            15.0404564
  heat_capacity:      28.0750175
  energy:             69.1724107

- temperature:       270.0000000
  free_energy:        65.1060624
  entropy:            16.1279965
  heat_capacity:      29.5640566
  energy:             69.4606215

- temperature:       280.0000000
  free_energy:        64.9392846
  entropy:            17.2298018
  heat_capacity:      31.0342715
  energy:             69.7636291

- temperature:       290.0000000
  free_energy:        64.7614244
  entropy:            18.3441980
  heat_capacity:      32.4849797
  energy:             70.0812419

- temperature:       300.0000000
  free_energy:        64.5723638
  entropy:            19.4696597
  heat_capacity:      33.9155843
  energy:             70.4132617

- temperature:       310.0000000
  free_energy:        64.3719990
  entropy:            20.6047926
  heat_capacity:      35.3255411
  energy:             70.7594847

- temperature:       320.0000000
  free_energy:        64.1602400
  entropy:            21.7483188
  heat_capacity:      36.7143391
  energy:             71.1197020

- temperature:       330.0000000
  free_energy:        63.9370086
  entropy:            22.8990629
  heat_capacity:      38.0814915
  energy:             71.4936994

- temperature:       340.0000000
  free_energy:        63.7022383
  entropy:            24.0559407
  heat_capacity:      39.4265335
  energy:             71.8812581

- temperature:       350.0000000
  free_energy:        63.4558727
  entropy:            25.2179490
  heat_capacity:      40.7490243
  energy:             72.2821549

- temperature:       360.0000000
  free_energy:        63.1978653
  entropy:            26.3841576
  heat_capacity:      42.0485520
  energy:             72.6961620

- temperature:       370.0000000
  free_energy:        62.9281784
  entropy:            27.5537018
  heat_capacity:      43.3247384
  energy:             73.1230481

- temperature:       380.0000000
  free_energy:        62.6467828
  entropy:            28.7257764
  heat_capacity:      44.5772453
  energy:             73.5625779

- temperature:       390.0000000
  free_energy:        62.3536570
  entropy:            29.8996310
  heat_capacity:      45.8057791
  energy:             74.0145131

- temperature:       400.0000000
  free_energy:        62.0487866
  entropy:            31.0745653
  heat_capacity:      47.0100946
  energy:             74.4786127

- temperature:       410.0000000
  free_energy:        61.7321643
  entropy:            32.2499252
  heat_capacity:      48.1899987
  energy:             74.9546336

- temperature:       420.0000000
  free_energy:        61.4037887
  entropy:            33.4251003
  heat_capacity:      49.3453515
  energy:             75.4423309

- temperature:       430.0000000
  free_energy:        61.0636648
  entropy:            34.5995203
  heat_capacity:      50.4760674
  energy:             75.9414585

- temperature:       440.0000000
  free_energy:        60.7118026
  entropy:            35.7726531
  heat_capacity:      51.5821147
  energy:             76.4517700

- temperature:       450.0000000
  free_energy:        60.3482177
  entropy:            36.9440021
  heat_capacity:      52.6635142
  energy:             76.9730186

- temperature:       460.0000000
  free_energy:        59.9729301
  entropy:            38.1131049
  heat_capacity:      53.7203378
  energy:             77.5049583

- temperature:       470.0000000
  free_energy:        59.5859645
  entropy:            39.2795306
  heat_capacity:      54.7527056
  energy:             78.0473439

- temperature:       480.0000000
  free_energy:        59.1873497
  entropy:            40.4428786
  heat_capacity:      55.7607834
  energy:             78.5999315

- temperature:       490.0000000
  free_energy:        58.7771184
  entropy:            41.6027772
  heat_capacity:      56.7447790
  energy:             79.1624792

- temperature:       500.0000000
  free_energy:        58.3553068
  entropy:            42.7588815
  heat_capacity:      57.7049392
  energy:             79.7347476

- temperature:       510.0000000
  free_energy:        57.9219545
  entropy:            43.9108726
  heat_capacity:      58.6415460
  energy:             80.3164995

- temperature:       520.0000000
  free_energy:        57.4771041
  entropy:            45.0584557
  heat_capacity:      59.5549130
  energy:             80.9075010

- temperature:       530.0000000
  free_energy:        57.0208010
  entropy:            46.2013594
  heat_capacity:      60.4453822
  energy:             81.5075214

- temperature:       540.0000000
  free_energy:        56.5530933
  entropy:            47.3393338
  heat_capacity:      61.3133201
  energy:             82.1163336

- temperature:       550.0000000
  free_energy:        56.0740315
  entropy:            48.4721501
  heat_capacity:      62.1591148
  energy:             82.7337140

- temperature:       560.0000000
  free_energy:        55.5836682
  entropy:            49.5995986
  heat_capacity:      62.9831724
  energy:             83.3594434

- temperature:       570.0000000
  free_energy:        55.0820581
  entropy:            50.7214884
  heat_capacity:      63.7859145
  energy:             83.9933064

- temperature:       580.0000000
  free_energy:        54.5692576
  entropy:            51.8376458
  heat_capacity:      64.5677749
  energy:             84.6350921

- temperature:       590.0000000
  free_energy:        54.0453248
  entropy:            52.9479136
  heat_capacity:      65.3291974
  energy:             85.2845938

- temperature:       600.0000000
  free_energy:        53.5103194
  entropy:            54.0521501
  heat_capacity:      66.0706333
  energy:             85.9416094

- temperature:       610.0000000
  free_energy:        52.9643023
  entropy:            55.1502280
  heat_capacity:      66.7925391
  energy:             86.6059414

- temperature:       620.0000000
  free_energy:        52.4073357
  entropy:            56.2420337
  heat_capacity:      67.4953746
  energy:             87.2773966

- temperature:       630.0000000
  free_energy:        51.8394829
  entropy:            57.3274666
  heat_capacity:      68.1796010
  energy:             87.9557868

- temperature:       640.0000000
  free_energy:        51.2608079
  entropy:            58.4064378
  heat_capacity:      68.8456795
  energy:             88.6409282

- temperature:       650.0000000
  free_energy:        50.6713759
  entropy:            59.4788701
  heat_capacity:      69.4940698
  energy:             89.3326415

- temperature:       660.0000000
  free_energy:        50.0712526
  entropy:            60.5446963
  heat_capacity:      70.1252286
  energy:             90.0307521

- temperature:       670.0000000
  free_energy:        49.4605042
  entropy:            61.6038595
  heat_capacity:      70.7396086
  energy:             90.7350901

- temperature:       680.0000000
  free_energy:        48.8391977
  entropy:            62.6563119
  heat_capacity:      71.3376576
  energy:             91.4454899

- temperature:       690.0000000
  free_energy:        48.2074005
  entropy:            63.7020142
  heat_capacity:      71.9198177
  energy:             92.1617903

- temperature:       700.0000000
  free_energy:        47.5651801
  entropy:            64.7409352
  heat_capacity:      72.4865242
  energy:             92.8838347

- temperature:       710.0000000
  free_energy:        46.9126045
  entropy:            65.7730510
  heat_capacity:      73.0382054
  energy:             93.6114707

- temperature:       720.0000000
  free_energy:        46.2497418
  entropy:            66.7983449
  heat_capacity:      73.5752817
  energy:             94.3445501

- temperature:       730.0000000
  free_energy:        45.5766603
  entropy:            67.8168064
  heat_capacity:      74.0981657
  energy:             95.0829290

- temperature:       740.0000000
  free_energy:        44.8934284
  entropy:            68.8284311
  heat_capacity:      74.6072610
  energy:             95.8264675

- temperature:       750.0000000
  free_energy:        44.2001145
  entropy:            69.8332201
  heat_capacity:      75.1029629
  energy:             96.5750296

- temperature:       760.0000000
  free_energy:        43.4967868
  entropy:            70.8311797
  heat_capacity:      75.5856574
  energy:             97.3284834

- temperature:       770.0000000
  free_energy:        42.7835136
  entropy:            71.8223208
  heat_capacity:      76.0557213
  energy:             98.0867006

- temperature:       780.0000000
  free_energy:        42.0603631
  entropy:            72.8066588
  heat_capacity:      76.5135224
  energy:             98.8495569

- temperature:       790.0000000
  free_energy:        41.3274031
  entropy:            73.7842131
  heat_capacity:      76.9594190
  energy:             99.6169314

- temperature:       800.0000000
  free_energy:        40.5847013
  entropy:            74.7550068
  heat_capacity:      77.3937601
  energy:            100.3887068

- temperature:       810.0000000
  free_energy:        39.8323254
  entropy:            75.7190665
  heat_capacity:      77.8168853
  energy:            101.1647692

- temperature:       820.0000000
  free_energy:        39.0703424
  entropy:            76.6764218
  heat_capacity:      78.2291249
  energy:            101.9450082

- temperature:       830.0000000
  free_energy:        38.2988192
  entropy:            77.6271052
  heat_capacity:      78.6308003
  energy:            102.7293165

- temperature:       840.0000000
  free_energy:        37.5178224
  entropy:            78.5711520
  heat_capacity:      79.0222236
  energy:            103.5175900

- temperature:       850.0000000
  free_energy:        36.7274181
  entropy:            79.5085996
  heat_capacity:      79.4036977
  energy:            104.3097278

- temperature:       860.0000000
  free_energy:        35.9276723
  entropy:            80.4394879
  heat_capacity:      79.7755170
  energy:            105.1056318

- temperature:       870.0000000
  free_energy:        35.1186501
  entropy:            81.3638584
  heat_capacity:      80.1379672
  energy:            105.9052069

- temperature:       880.0000000
  free_energy:        34.3004167
  entropy:            82.2817548
  heat_capacity:      80.4913252
  energy:            106.7083609

- temperature:       890.0000000
  free_energy:        33.4730364
  entropy:            83.1932220
  heat_capacity:      80.8358598
  energy:            107.5150040

- temperature:       900.0000000
  free_energy:        32.6365735
  entropy:            84.0983067
  heat_capacity:      81.1718315
  energy:            108.3250495

- temperature:       910.0000000
  free_energy:        31.7910914
  entropy:            84.9970566
  heat_capacity:      81.4994928
  energy:            109.1384130

- temperature:       920.0000000
  free_energy:        30.9366533
  entropy:            85.8895208
  heat_capacity:      81.8190887
  energy:            109.9550125

- temperature:       930.0000000
  free_energy:        30.0733218
  entropy:            86.7757493
  heat_capacity:      82.1308561
  energy:            110.7747686

- temperature:       940.0000000
  free_energy:        29.2011589
  entropy:            87.6557929
  heat_capacity:      82.4350249
  energy:            111.5976043

- temperature:       950.0000000
  free_energy:        28.3202264
  entropy:            88.5297033
  heat_capacity:      82.7318176
  energy:            112.4234445

- temperature:       960.0000000
  free_energy:        27.4305852
  entropy:            89.3975329
  heat_capacity:      83.0214499
  energy:            113.2522168

- temperature:       970.0000000
  free_energy:        26.5322958
  entropy:            90.2593346
  heat_capacity:      83.3041303
  energy:            114.0838504

- temperature:       980.0000000
  free_energy:        25.6254184
  entropy:            91.1151617
  heat_capacity:      83.5800611
  energy:            114.9182769

- temperature:       990.0000000
  free_energy:        24.7100123
  entropy:            91.9650681
  heat_capacity:      83.8494380
  energy:            115.7554297

- temperature:      1000.0000000
  free_energy:        23.7861366
  entropy:            92.8091078
  heat_capacity:      84.1124505
  energy:            116.5952444
