<?xml version="1.0" encoding="ISO-8859-1"?>
<modeling>
 <generator>
  <i name="program" type="string">vasp </i>
  <i name="version" type="string">5.3.5  </i>
  <i name="subversion" type="string">31Mar14 (build Nov 02 2014 15:17:37) complex                          parallel </i>
  <i name="platform" type="string">ion-Intel-MKL </i>
  <i name="date" type="string">2016 10 14 </i>
  <i name="time" type="string">06:56:47 </i>
 </generator>
 <incar>
  <i type="string" name="SYSTEM">graphite</i>
  <i type="string" name="PREC">accurate</i>
  <i type="int" name="NELM">   200</i>
  <i type="int" name="IBRION">     2</i>
  <i name="EDIFF">      0.00000001</i>
  <i name="EDIFFG">      0.00100000</i>
  <i type="int" name="NSW">   200</i>
  <i type="int" name="ISIF">     2</i>
  <i name="ENCUT">    600.00000000</i>
  <i type="int" name="ISMEAR">    -5</i>
  <i type="logical" name="LWAVE"> F  </i>
  <i type="logical" name="LCHARG"> F  </i>
  <i type="int" name="NELM">   200</i>
  <i type="string" name="GGA">PE</i>
 </incar>
 <kpoints>
  <generation param="Gamma">
   <v type="int" name="divisions">      12       12        8 </v>
   <v name="usershift">      0.00000000       0.00000000       0.00000000 </v>
   <v name="genvec1">      0.08333333      -0.00000000       0.00000000 </v>
   <v name="genvec2">      0.00000000       0.08333333       0.00000000 </v>
   <v name="genvec3">      0.00000000       0.00000000       0.12500000 </v>
   <v name="shift">      0.00000000       0.00000000       0.00000000 </v>
  </generation>
  <varray name="kpointlist" >
   <v>       0.00000000       0.00000000       0.00000000 </v>
   <v>       0.08333333      -0.00000000       0.00000000 </v>
   <v>       0.16666667      -0.00000000       0.00000000 </v>
   <v>       0.25000000       0.00000000       0.00000000 </v>
   <v>       0.33333333      -0.00000000       0.00000000 </v>
   <v>       0.41666667       0.00000000       0.00000000 </v>
   <v>       0.50000000       0.00000000       0.00000000 </v>
   <v>       0.08333333       0.08333333       0.00000000 </v>
   <v>       0.16666667       0.08333333       0.00000000 </v>
   <v>       0.25000000       0.08333333       0.00000000 </v>
   <v>       0.33333333       0.08333333       0.00000000 </v>
   <v>       0.41666667       0.08333333       0.00000000 </v>
   <v>       0.50000000       0.08333333       0.00000000 </v>
   <v>      -0.41666667       0.08333333       0.00000000 </v>
   <v>      -0.33333333       0.08333333       0.00000000 </v>
   <v>      -0.25000000       0.08333333       0.00000000 </v>
   <v>      -0.16666667       0.08333333       0.00000000 </v>
   <v>      -0.08333333       0.08333333       0.00000000 </v>
   <v>       0.16666667       0.16666667       0.00000000 </v>
   <v>       0.25000000       0.16666667       0.00000000 </v>
   <v>       0.33333333       0.16666667       0.00000000 </v>
   <v>       0.41666667       0.16666667       0.00000000 </v>
   <v>       0.50000000       0.16666667       0.00000000 </v>
   <v>      -0.41666667       0.16666667       0.00000000 </v>
   <v>      -0.33333333       0.16666667       0.00000000 </v>
   <v>      -0.25000000       0.16666667       0.00000000 </v>
   <v>      -0.16666667       0.16666667       0.00000000 </v>
   <v>       0.25000000       0.25000000       0.00000000 </v>
   <v>       0.33333333       0.25000000       0.00000000 </v>
   <v>       0.41666667       0.25000000       0.00000000 </v>
   <v>       0.50000000       0.25000000       0.00000000 </v>
   <v>      -0.41666667       0.25000000       0.00000000 </v>
   <v>      -0.33333333       0.25000000       0.00000000 </v>
   <v>      -0.25000000       0.25000000       0.00000000 </v>
   <v>       0.33333333       0.33333333       0.00000000 </v>
   <v>       0.41666667       0.33333333       0.00000000 </v>
   <v>       0.50000000       0.33333333       0.00000000 </v>
   <v>      -0.41666667       0.33333333       0.00000000 </v>
   <v>      -0.33333333       0.33333333       0.00000000 </v>
   <v>       0.41666667       0.41666667       0.00000000 </v>
   <v>       0.50000000       0.41666667       0.00000000 </v>
   <v>      -0.41666667       0.41666667       0.00000000 </v>
   <v>       0.50000000       0.50000000       0.00000000 </v>
   <v>       0.00000000       0.00000000       0.12500000 </v>
   <v>       0.08333333      -0.00000000       0.12500000 </v>
   <v>       0.16666667      -0.00000000       0.12500000 </v>
   <v>       0.25000000       0.00000000       0.12500000 </v>
   <v>       0.33333333      -0.00000000       0.12500000 </v>
   <v>       0.41666667       0.00000000       0.12500000 </v>
   <v>       0.50000000       0.00000000       0.12500000 </v>
   <v>       0.08333333       0.08333333       0.12500000 </v>
   <v>       0.16666667       0.08333333       0.12500000 </v>
   <v>       0.25000000       0.08333333       0.12500000 </v>
   <v>       0.33333333       0.08333333       0.12500000 </v>
   <v>       0.41666667       0.08333333       0.12500000 </v>
   <v>       0.50000000       0.08333333       0.12500000 </v>
   <v>      -0.41666667       0.08333333       0.12500000 </v>
   <v>      -0.33333333       0.08333333       0.12500000 </v>
   <v>      -0.25000000       0.08333333       0.12500000 </v>
   <v>      -0.16666667       0.08333333       0.12500000 </v>
   <v>      -0.08333333       0.08333333       0.12500000 </v>
   <v>       0.16666667       0.16666667       0.12500000 </v>
   <v>       0.25000000       0.16666667       0.12500000 </v>
   <v>       0.33333333       0.16666667       0.12500000 </v>
   <v>       0.41666667       0.16666667       0.12500000 </v>
   <v>       0.50000000       0.16666667       0.12500000 </v>
   <v>      -0.41666667       0.16666667       0.12500000 </v>
   <v>      -0.33333333       0.16666667       0.12500000 </v>
   <v>      -0.25000000       0.16666667       0.12500000 </v>
   <v>      -0.16666667       0.16666667       0.12500000 </v>
   <v>       0.25000000       0.25000000       0.12500000 </v>
   <v>       0.33333333       0.25000000       0.12500000 </v>
   <v>       0.41666667       0.25000000       0.12500000 </v>
   <v>       0.50000000       0.25000000       0.12500000 </v>
   <v>      -0.41666667       0.25000000       0.12500000 </v>
   <v>      -0.33333333       0.25000000       0.12500000 </v>
   <v>      -0.25000000       0.25000000       0.12500000 </v>
   <v>       0.33333333       0.33333333       0.12500000 </v>
   <v>       0.41666667       0.33333333       0.12500000 </v>
   <v>       0.50000000       0.33333333       0.12500000 </v>
   <v>      -0.41666667       0.33333333       0.12500000 </v>
   <v>      -0.33333333       0.33333333       0.12500000 </v>
   <v>       0.41666667       0.41666667       0.12500000 </v>
   <v>       0.50000000       0.41666667       0.12500000 </v>
   <v>      -0.41666667       0.41666667       0.12500000 </v>
   <v>       0.50000000       0.50000000       0.12500000 </v>
   <v>       0.00000000       0.00000000       0.25000000 </v>
   <v>       0.08333333      -0.00000000       0.25000000 </v>
   <v>       0.16666667      -0.00000000       0.25000000 </v>
   <v>       0.25000000       0.00000000       0.25000000 </v>
   <v>       0.33333333      -0.00000000       0.25000000 </v>
   <v>       0.41666667       0.00000000       0.25000000 </v>
   <v>       0.50000000       0.00000000       0.25000000 </v>
   <v>       0.08333333       0.08333333       0.25000000 </v>
   <v>       0.16666667       0.08333333       0.25000000 </v>
   <v>       0.25000000       0.08333333       0.25000000 </v>
   <v>       0.33333333       0.08333333       0.25000000 </v>
   <v>       0.41666667       0.08333333       0.25000000 </v>
   <v>       0.50000000       0.08333333       0.25000000 </v>
   <v>      -0.41666667       0.08333333       0.25000000 </v>
   <v>      -0.33333333       0.08333333       0.25000000 </v>
   <v>      -0.25000000       0.08333333       0.25000000 </v>
   <v>      -0.16666667       0.08333333       0.25000000 </v>
   <v>      -0.08333333       0.08333333       0.25000000 </v>
   <v>       0.16666667       0.16666667       0.25000000 </v>
   <v>       0.25000000       0.16666667       0.25000000 </v>
   <v>       0.33333333       0.16666667       0.25000000 </v>
   <v>       0.41666667       0.16666667       0.25000000 </v>
   <v>       0.50000000       0.16666667       0.25000000 </v>
   <v>      -0.41666667       0.16666667       0.25000000 </v>
   <v>      -0.33333333       0.16666667       0.25000000 </v>
   <v>      -0.25000000       0.16666667       0.25000000 </v>
   <v>      -0.16666667       0.16666667       0.25000000 </v>
   <v>       0.25000000       0.25000000       0.25000000 </v>
   <v>       0.33333333       0.25000000       0.25000000 </v>
   <v>       0.41666667       0.25000000       0.25000000 </v>
   <v>       0.50000000       0.25000000       0.25000000 </v>
   <v>      -0.41666667       0.25000000       0.25000000 </v>
   <v>      -0.33333333       0.25000000       0.25000000 </v>
   <v>      -0.25000000       0.25000000       0.25000000 </v>
   <v>       0.33333333       0.33333333       0.25000000 </v>
   <v>       0.41666667       0.33333333       0.25000000 </v>
   <v>       0.50000000       0.33333333       0.25000000 </v>
   <v>      -0.41666667       0.33333333       0.25000000 </v>
   <v>      -0.33333333       0.33333333       0.25000000 </v>
   <v>       0.41666667       0.41666667       0.25000000 </v>
   <v>       0.50000000       0.41666667       0.25000000 </v>
   <v>      -0.41666667       0.41666667       0.25000000 </v>
   <v>       0.50000000       0.50000000       0.25000000 </v>
   <v>       0.00000000       0.00000000       0.37500000 </v>
   <v>       0.08333333      -0.00000000       0.37500000 </v>
   <v>       0.16666667      -0.00000000       0.37500000 </v>
   <v>       0.25000000       0.00000000       0.37500000 </v>
   <v>       0.33333333      -0.00000000       0.37500000 </v>
   <v>       0.41666667       0.00000000       0.37500000 </v>
   <v>       0.50000000       0.00000000       0.37500000 </v>
   <v>       0.08333333       0.08333333       0.37500000 </v>
   <v>       0.16666667       0.08333333       0.37500000 </v>
   <v>       0.25000000       0.08333333       0.37500000 </v>
   <v>       0.33333333       0.08333333       0.37500000 </v>
   <v>       0.41666667       0.08333333       0.37500000 </v>
   <v>       0.50000000       0.08333333       0.37500000 </v>
   <v>      -0.41666667       0.08333333       0.37500000 </v>
   <v>      -0.33333333       0.08333333       0.37500000 </v>
   <v>      -0.25000000       0.08333333       0.37500000 </v>
   <v>      -0.16666667       0.08333333       0.37500000 </v>
   <v>      -0.08333333       0.08333333       0.37500000 </v>
   <v>       0.16666667       0.16666667       0.37500000 </v>
   <v>       0.25000000       0.16666667       0.37500000 </v>
   <v>       0.33333333       0.16666667       0.37500000 </v>
   <v>       0.41666667       0.16666667       0.37500000 </v>
   <v>       0.50000000       0.16666667       0.37500000 </v>
   <v>      -0.41666667       0.16666667       0.37500000 </v>
   <v>      -0.33333333       0.16666667       0.37500000 </v>
   <v>      -0.25000000       0.16666667       0.37500000 </v>
   <v>      -0.16666667       0.16666667       0.37500000 </v>
   <v>       0.25000000       0.25000000       0.37500000 </v>
   <v>       0.33333333       0.25000000       0.37500000 </v>
   <v>       0.41666667       0.25000000       0.37500000 </v>
   <v>       0.50000000       0.25000000       0.37500000 </v>
   <v>      -0.41666667       0.25000000       0.37500000 </v>
   <v>      -0.33333333       0.25000000       0.37500000 </v>
   <v>      -0.25000000       0.25000000       0.37500000 </v>
   <v>       0.33333333       0.33333333       0.37500000 </v>
   <v>       0.41666667       0.33333333       0.37500000 </v>
   <v>       0.50000000       0.33333333       0.37500000 </v>
   <v>      -0.41666667       0.33333333       0.37500000 </v>
   <v>      -0.33333333       0.33333333       0.37500000 </v>
   <v>       0.41666667       0.41666667       0.37500000 </v>
   <v>       0.50000000       0.41666667       0.37500000 </v>
   <v>      -0.41666667       0.41666667       0.37500000 </v>
   <v>       0.50000000       0.50000000       0.37500000 </v>
   <v>       0.00000000       0.00000000       0.50000000 </v>
   <v>       0.08333333      -0.00000000       0.50000000 </v>
   <v>       0.16666667      -0.00000000       0.50000000 </v>
   <v>       0.25000000       0.00000000       0.50000000 </v>
   <v>       0.33333333      -0.00000000       0.50000000 </v>
   <v>       0.41666667       0.00000000       0.50000000 </v>
   <v>       0.50000000       0.00000000       0.50000000 </v>
   <v>       0.08333333       0.08333333       0.50000000 </v>
   <v>       0.16666667       0.08333333       0.50000000 </v>
   <v>       0.25000000       0.08333333       0.50000000 </v>
   <v>       0.33333333       0.08333333       0.50000000 </v>
   <v>       0.41666667       0.08333333       0.50000000 </v>
   <v>       0.50000000       0.08333333       0.50000000 </v>
   <v>      -0.41666667       0.08333333       0.50000000 </v>
   <v>      -0.33333333       0.08333333       0.50000000 </v>
   <v>      -0.25000000       0.08333333       0.50000000 </v>
   <v>      -0.16666667       0.08333333       0.50000000 </v>
   <v>      -0.08333333       0.08333333       0.50000000 </v>
   <v>       0.16666667       0.16666667       0.50000000 </v>
   <v>       0.25000000       0.16666667       0.50000000 </v>
   <v>       0.33333333       0.16666667       0.50000000 </v>
   <v>       0.41666667       0.16666667       0.50000000 </v>
   <v>       0.50000000       0.16666667       0.50000000 </v>
   <v>      -0.41666667       0.16666667       0.50000000 </v>
   <v>      -0.33333333       0.16666667       0.50000000 </v>
   <v>      -0.25000000       0.16666667       0.50000000 </v>
   <v>      -0.16666667       0.16666667       0.50000000 </v>
   <v>       0.25000000       0.25000000       0.50000000 </v>
   <v>       0.33333333       0.25000000       0.50000000 </v>
   <v>       0.41666667       0.25000000       0.50000000 </v>
   <v>       0.50000000       0.25000000       0.50000000 </v>
   <v>      -0.41666667       0.25000000       0.50000000 </v>
   <v>      -0.33333333       0.25000000       0.50000000 </v>
   <v>      -0.25000000       0.25000000       0.50000000 </v>
   <v>       0.33333333       0.33333333       0.50000000 </v>
   <v>       0.41666667       0.33333333       0.50000000 </v>
   <v>       0.50000000       0.33333333       0.50000000 </v>
   <v>      -0.41666667       0.33333333       0.50000000 </v>
   <v>      -0.33333333       0.33333333       0.50000000 </v>
   <v>       0.41666667       0.41666667       0.50000000 </v>
   <v>       0.50000000       0.41666667       0.50000000 </v>
   <v>      -0.41666667       0.41666667       0.50000000 </v>
   <v>       0.50000000       0.50000000       0.50000000 </v>
  </varray>
  <varray name="weights" >
   <v>       0.00086806 </v>
   <v>       0.00347222 </v>
   <v>       0.00347222 </v>
   <v>       0.00347222 </v>
   <v>       0.00347222 </v>
   <v>       0.00347222 </v>
   <v>       0.00173611 </v>
   <v>       0.00173611 </v>
   <v>       0.00347222 </v>
   <v>       0.00347222 </v>
   <v>       0.00347222 </v>
   <v>       0.00347222 </v>
   <v>       0.00347222 </v>
   <v>       0.00347222 </v>
   <v>       0.00347222 </v>
   <v>       0.00347222 </v>
   <v>       0.00347222 </v>
   <v>       0.00173611 </v>
   <v>       0.00173611 </v>
   <v>       0.00347222 </v>
   <v>       0.00347222 </v>
   <v>       0.00347222 </v>
   <v>       0.00347222 </v>
   <v>       0.00347222 </v>
   <v>       0.00347222 </v>
   <v>       0.00347222 </v>
   <v>       0.00173611 </v>
   <v>       0.00173611 </v>
   <v>       0.00347222 </v>
   <v>       0.00347222 </v>
   <v>       0.00347222 </v>
   <v>       0.00347222 </v>
   <v>       0.00347222 </v>
   <v>       0.00173611 </v>
   <v>       0.00173611 </v>
   <v>       0.00347222 </v>
   <v>       0.00347222 </v>
   <v>       0.00347222 </v>
   <v>       0.00173611 </v>
   <v>       0.00173611 </v>
   <v>       0.00347222 </v>
   <v>       0.00173611 </v>
   <v>       0.00086806 </v>
   <v>       0.00173611 </v>
   <v>       0.00694444 </v>
   <v>       0.00694444 </v>
   <v>       0.00694444 </v>
   <v>       0.00694444 </v>
   <v>       0.00694444 </v>
   <v>       0.00347222 </v>
   <v>       0.00347222 </v>
   <v>       0.00694444 </v>
   <v>       0.00694444 </v>
   <v>       0.00694444 </v>
   <v>       0.00694444 </v>
   <v>       0.00694444 </v>
   <v>       0.00694444 </v>
   <v>       0.00694444 </v>
   <v>       0.00694444 </v>
   <v>       0.00694444 </v>
   <v>       0.00347222 </v>
   <v>       0.00347222 </v>
   <v>       0.00694444 </v>
   <v>       0.00694444 </v>
   <v>       0.00694444 </v>
   <v>       0.00694444 </v>
   <v>       0.00694444 </v>
   <v>       0.00694444 </v>
   <v>       0.00694444 </v>
   <v>       0.00347222 </v>
   <v>       0.00347222 </v>
   <v>       0.00694444 </v>
   <v>       0.00694444 </v>
   <v>       0.00694444 </v>
   <v>       0.00694444 </v>
   <v>       0.00694444 </v>
   <v>       0.00347222 </v>
   <v>       0.00347222 </v>
   <v>       0.00694444 </v>
   <v>       0.00694444 </v>
   <v>       0.00694444 </v>
   <v>       0.00347222 </v>
   <v>       0.00347222 </v>
   <v>       0.00694444 </v>
   <v>       0.00347222 </v>
   <v>       0.00173611 </v>
   <v>       0.00173611 </v>
   <v>       0.00694444 </v>
   <v>       0.00694444 </v>
   <v>       0.00694444 </v>
   <v>       0.00694444 </v>
   <v>       0.00694444 </v>
   <v>       0.00347222 </v>
   <v>       0.00347222 </v>
   <v>       0.00694444 </v>
   <v>       0.00694444 </v>
   <v>       0.00694444 </v>
   <v>       0.00694444 </v>
   <v>       0.00694444 </v>
   <v>       0.00694444 </v>
   <v>       0.00694444 </v>
   <v>       0.00694444 </v>
   <v>       0.00694444 </v>
   <v>       0.00347222 </v>
   <v>       0.00347222 </v>
   <v>       0.00694444 </v>
   <v>       0.00694444 </v>
   <v>       0.00694444 </v>
   <v>       0.00694444 </v>
   <v>       0.00694444 </v>
   <v>       0.00694444 </v>
   <v>       0.00694444 </v>
   <v>       0.00347222 </v>
   <v>       0.00347222 </v>
   <v>       0.00694444 </v>
   <v>       0.00694444 </v>
   <v>       0.00694444 </v>
   <v>       0.00694444 </v>
   <v>       0.00694444 </v>
   <v>       0.00347222 </v>
   <v>       0.00347222 </v>
   <v>       0.00694444 </v>
   <v>       0.00694444 </v>
   <v>       0.00694444 </v>
   <v>       0.00347222 </v>
   <v>       0.00347222 </v>
   <v>       0.00694444 </v>
   <v>       0.00347222 </v>
   <v>       0.00173611 </v>
   <v>       0.00173611 </v>
   <v>       0.00694444 </v>
   <v>       0.00694444 </v>
   <v>       0.00694444 </v>
   <v>       0.00694444 </v>
   <v>       0.00694444 </v>
   <v>       0.00347222 </v>
   <v>       0.00347222 </v>
   <v>       0.00694444 </v>
   <v>       0.00694444 </v>
   <v>       0.00694444 </v>
   <v>       0.00694444 </v>
   <v>       0.00694444 </v>
   <v>       0.00694444 </v>
   <v>       0.00694444 </v>
   <v>       0.00694444 </v>
   <v>       0.00694444 </v>
   <v>       0.00347222 </v>
   <v>       0.00347222 </v>
   <v>       0.00694444 </v>
   <v>       0.00694444 </v>
   <v>       0.00694444 </v>
   <v>       0.00694444 </v>
   <v>       0.00694444 </v>
   <v>       0.00694444 </v>
   <v>       0.00694444 </v>
   <v>       0.00347222 </v>
   <v>       0.00347222 </v>
   <v>       0.00694444 </v>
   <v>       0.00694444 </v>
   <v>       0.00694444 </v>
   <v>       0.00694444 </v>
   <v>       0.00694444 </v>
   <v>       0.00347222 </v>
   <v>       0.00347222 </v>
   <v>       0.00694444 </v>
   <v>       0.00694444 </v>
   <v>       0.00694444 </v>
   <v>       0.00347222 </v>
   <v>       0.00347222 </v>
   <v>       0.00694444 </v>
   <v>       0.00347222 </v>
   <v>       0.00173611 </v>
   <v>       0.00086806 </v>
   <v>       0.00347222 </v>
   <v>       0.00347222 </v>
   <v>       0.00347222 </v>
   <v>       0.00347222 </v>
   <v>       0.00347222 </v>
   <v>       0.00173611 </v>
   <v>       0.00173611 </v>
   <v>       0.00347222 </v>
   <v>       0.00347222 </v>
   <v>       0.00347222 </v>
   <v>       0.00347222 </v>
   <v>       0.00347222 </v>
   <v>       0.00347222 </v>
   <v>       0.00347222 </v>
   <v>       0.00347222 </v>
   <v>       0.00347222 </v>
   <v>       0.00173611 </v>
   <v>       0.00173611 </v>
   <v>       0.00347222 </v>
   <v>       0.00347222 </v>
   <v>       0.00347222 </v>
   <v>       0.00347222 </v>
   <v>       0.00347222 </v>
   <v>       0.00347222 </v>
   <v>       0.00347222 </v>
   <v>       0.00173611 </v>
   <v>       0.00173611 </v>
   <v>       0.00347222 </v>
   <v>       0.00347222 </v>
   <v>       0.00347222 </v>
   <v>       0.00347222 </v>
   <v>       0.00347222 </v>
   <v>       0.00173611 </v>
   <v>       0.00173611 </v>
   <v>       0.00347222 </v>
   <v>       0.00347222 </v>
   <v>       0.00347222 </v>
   <v>       0.00173611 </v>
   <v>       0.00173611 </v>
   <v>       0.00347222 </v>
   <v>       0.00173611 </v>
   <v>       0.00086806 </v>
  </varray>
  <varray name="tetrahedronlist"  type="int" >
   <v type="int" >        4        2        2        8       45 </v>
   <v type="int" >        4        1        2        2       45 </v>
   <v type="int" >        4        1        2       44       45 </v>
   <v type="int" >        4        2        8       45       51 </v>
   <v type="int" >        4        2       45       45       51 </v>
   <v type="int" >        4        2       44       45       45 </v>
   <v type="int" >        4        3        8        9       51 </v>
   <v type="int" >        4        2        3        8       51 </v>
   <v type="int" >        4        2        3       45       51 </v>
   <v type="int" >        4        3        9       51       52 </v>
   <v type="int" >        4        3       46       51       52 </v>
   <v type="int" >        4        3       45       46       51 </v>
   <v type="int" >        4        4        9       10       52 </v>
   <v type="int" >        4        3        4        9       52 </v>
   <v type="int" >        4        3        4       46       52 </v>
   <v type="int" >        4        4       10       52       53 </v>
   <v type="int" >        4        4       47       52       53 </v>
   <v type="int" >        4        4       46       47       52 </v>
   <v type="int" >        4        5       10       11       53 </v>
   <v type="int" >        4        4        5       10       53 </v>
   <v type="int" >        4        4        5       47       53 </v>
   <v type="int" >        4        5       11       53       54 </v>
   <v type="int" >        4        5       48       53       54 </v>
   <v type="int" >        4        5       47       48       53 </v>
   <v type="int" >        4        6       11       12       54 </v>
   <v type="int" >        4        5        6       11       54 </v>
   <v type="int" >        4        5        6       48       54 </v>
   <v type="int" >        4        6       12       54       55 </v>
   <v type="int" >        4        6       49       54       55 </v>
   <v type="int" >        4        6       48       49       54 </v>
   <v type="int" >        4        7       12       13       55 </v>
   <v type="int" >        4        6        7       12       55 </v>
   <v type="int" >        4        6        7       49       55 </v>
   <v type="int" >        4        7       13       55       56 </v>
   <v type="int" >        4        7       50       55       56 </v>
   <v type="int" >        4        7       49       50       55 </v>
   <v type="int" >        4        6       13       14       56 </v>
   <v type="int" >        4        6        7       13       56 </v>
   <v type="int" >        4        6        7       50       56 </v>
   <v type="int" >        4        6       14       56       57 </v>
   <v type="int" >        4        6       49       56       57 </v>
   <v type="int" >        4        6       49       50       56 </v>
   <v type="int" >        4        5       14       15       57 </v>
   <v type="int" >        4        5        6       14       57 </v>
   <v type="int" >        4        5        6       49       57 </v>
   <v type="int" >        4        5       15       57       58 </v>
   <v type="int" >        4        5       48       57       58 </v>
   <v type="int" >        4        5       48       49       57 </v>
   <v type="int" >        4        4       15       16       58 </v>
   <v type="int" >        4        4        5       15       58 </v>
   <v type="int" >        4        4        5       48       58 </v>
   <v type="int" >        4        4       16       58       59 </v>
   <v type="int" >        4        4       47       58       59 </v>
   <v type="int" >        4        4       47       48       58 </v>
   <v type="int" >        4        3       16       17       59 </v>
   <v type="int" >        4        3        4       16       59 </v>
   <v type="int" >        4        3        4       47       59 </v>
   <v type="int" >        4        3       17       59       60 </v>
   <v type="int" >        4        3       46       59       60 </v>
   <v type="int" >        4        3       46       47       59 </v>
   <v type="int" >        4        2       17       18       60 </v>
   <v type="int" >        4        2        3       17       60 </v>
   <v type="int" >        4        2        3       46       60 </v>
   <v type="int" >        4        2       18       60       61 </v>
   <v type="int" >        4        2       45       60       61 </v>
   <v type="int" >        4        2       45       46       60 </v>
   <v type="int" >        4        1        2       18       61 </v>
   <v type="int" >        4        1        2       45       61 </v>
   <v type="int" >        4        1       44       45       61 </v>
   <v type="int" >        4        3        8        9       46 </v>
   <v type="int" >        4        2        3        8       46 </v>
   <v type="int" >        4        2        8       45       46 </v>
   <v type="int" >        4        8        9       46       52 </v>
   <v type="int" >        4        8       46       51       52 </v>
   <v type="int" >        4        8       45       46       51 </v>
   <v type="int" >        4        9        9       19       52 </v>
   <v type="int" >        4        8        9        9       52 </v>
   <v type="int" >        4        8        9       51       52 </v>
   <v type="int" >        4        9       19       52       62 </v>
   <v type="int" >        4        9       52       52       62 </v>
   <v type="int" >        4        9       51       52       52 </v>
   <v type="int" >        4       10       19       20       62 </v>
   <v type="int" >        4        9       10       19       62 </v>
   <v type="int" >        4        9       10       52       62 </v>
   <v type="int" >        4       10       20       62       63 </v>
   <v type="int" >        4       10       53       62       63 </v>
   <v type="int" >        4       10       52       53       62 </v>
   <v type="int" >        4       11       20       21       63 </v>
   <v type="int" >        4       10       11       20       63 </v>
   <v type="int" >        4       10       11       53       63 </v>
   <v type="int" >        4       11       21       63       64 </v>
   <v type="int" >        4       11       54       63       64 </v>
   <v type="int" >        4       11       53       54       63 </v>
   <v type="int" >        4       12       21       22       64 </v>
   <v type="int" >        4       11       12       21       64 </v>
   <v type="int" >        4       11       12       54       64 </v>
   <v type="int" >        4       12       22       64       65 </v>
   <v type="int" >        4       12       55       64       65 </v>
   <v type="int" >        4       12       54       55       64 </v>
   <v type="int" >        4       13       22       23       65 </v>
   <v type="int" >        4       12       13       22       65 </v>
   <v type="int" >        4       12       13       55       65 </v>
   <v type="int" >        4       13       23       65       66 </v>
   <v type="int" >        4       13       56       65       66 </v>
   <v type="int" >        4       13       55       56       65 </v>
   <v type="int" >        4       14       23       24       66 </v>
   <v type="int" >        4       13       14       23       66 </v>
   <v type="int" >        4       13       14       56       66 </v>
   <v type="int" >        4       14       24       66       67 </v>
   <v type="int" >        4       14       57       66       67 </v>
   <v type="int" >        4       14       56       57       66 </v>
   <v type="int" >        4       15       24       25       67 </v>
   <v type="int" >        4       14       15       24       67 </v>
   <v type="int" >        4       14       15       57       67 </v>
   <v type="int" >        4       15       25       67       68 </v>
   <v type="int" >        4       15       58       67       68 </v>
   <v type="int" >        4       15       57       58       67 </v>
   <v type="int" >        4       16       25       26       68 </v>
   <v type="int" >        4       15       16       25       68 </v>
   <v type="int" >        4       15       16       58       68 </v>
   <v type="int" >        4       16       26       68       69 </v>
   <v type="int" >        4       16       59       68       69 </v>
   <v type="int" >        4       16       58       59       68 </v>
   <v type="int" >        4       17       26       27       69 </v>
   <v type="int" >        4       16       17       26       69 </v>
   <v type="int" >        4       16       17       59       69 </v>
   <v type="int" >        4       17       27       69       70 </v>
   <v type="int" >        4       17       60       69       70 </v>
   <v type="int" >        4       17       59       60       69 </v>
   <v type="int" >        4       17       18       27       70 </v>
   <v type="int" >        4       17       18       60       70 </v>
   <v type="int" >        4       18       60       61       70 </v>
   <v type="int" >        4        4        9       10       47 </v>
   <v type="int" >        4        3        4        9       47 </v>
   <v type="int" >        4        3        9       46       47 </v>
   <v type="int" >        4        9       10       47       53 </v>
   <v type="int" >        4        9       47       52       53 </v>
   <v type="int" >        4        9       46       47       52 </v>
   <v type="int" >        4       10       19       20       53 </v>
   <v type="int" >        4        9       10       19       53 </v>
   <v type="int" >        4        9       19       52       53 </v>
   <v type="int" >        4       19       20       53       63 </v>
   <v type="int" >        4       19       53       62       63 </v>
   <v type="int" >        4       19       52       53       62 </v>
   <v type="int" >        4       20       20       28       63 </v>
   <v type="int" >        4       19       20       20       63 </v>
   <v type="int" >        4       19       20       62       63 </v>
   <v type="int" >        4       20       28       63       71 </v>
   <v type="int" >        4       20       63       63       71 </v>
   <v type="int" >        4       20       62       63       63 </v>
   <v type="int" >        4       21       28       29       71 </v>
   <v type="int" >        4       20       21       28       71 </v>
   <v type="int" >        4       20       21       63       71 </v>
   <v type="int" >        4       21       29       71       72 </v>
   <v type="int" >        4       21       64       71       72 </v>
   <v type="int" >        4       21       63       64       71 </v>
   <v type="int" >        4       22       29       30       72 </v>
   <v type="int" >        4       21       22       29       72 </v>
   <v type="int" >        4       21       22       64       72 </v>
   <v type="int" >        4       22       30       72       73 </v>
   <v type="int" >        4       22       65       72       73 </v>
   <v type="int" >        4       22       64       65       72 </v>
   <v type="int" >        4       23       30       31       73 </v>
   <v type="int" >        4       22       23       30       73 </v>
   <v type="int" >        4       22       23       65       73 </v>
   <v type="int" >        4       23       31       73       74 </v>
   <v type="int" >        4       23       66       73       74 </v>
   <v type="int" >        4       23       65       66       73 </v>
   <v type="int" >        4       24       31       32       74 </v>
   <v type="int" >        4       23       24       31       74 </v>
   <v type="int" >        4       23       24       66       74 </v>
   <v type="int" >        4       24       32       74       75 </v>
   <v type="int" >        4       24       67       74       75 </v>
   <v type="int" >        4       24       66       67       74 </v>
   <v type="int" >        4       25       32       33       75 </v>
   <v type="int" >        4       24       25       32       75 </v>
   <v type="int" >        4       24       25       67       75 </v>
   <v type="int" >        4       25       33       75       76 </v>
   <v type="int" >        4       25       68       75       76 </v>
   <v type="int" >        4       25       67       68       75 </v>
   <v type="int" >        4       26       33       34       76 </v>
   <v type="int" >        4       25       26       33       76 </v>
   <v type="int" >        4       25       26       68       76 </v>
   <v type="int" >        4       26       34       76       77 </v>
   <v type="int" >        4       26       69       76       77 </v>
   <v type="int" >        4       26       68       69       76 </v>
   <v type="int" >        4       26       27       34       77 </v>
   <v type="int" >        4       26       27       69       77 </v>
   <v type="int" >        4       27       69       70       77 </v>
   <v type="int" >        4        5       10       11       48 </v>
   <v type="int" >        4        4        5       10       48 </v>
   <v type="int" >        4        4       10       47       48 </v>
   <v type="int" >        4       10       11       48       54 </v>
   <v type="int" >        4       10       48       53       54 </v>
   <v type="int" >        4       10       47       48       53 </v>
   <v type="int" >        4       11       20       21       54 </v>
   <v type="int" >        4       10       11       20       54 </v>
   <v type="int" >        4       10       20       53       54 </v>
   <v type="int" >        4       20       21       54       64 </v>
   <v type="int" >        4       20       54       63       64 </v>
   <v type="int" >        4       20       53       54       63 </v>
   <v type="int" >        4       21       28       29       64 </v>
   <v type="int" >        4       20       21       28       64 </v>
   <v type="int" >        4       20       28       63       64 </v>
   <v type="int" >        4       28       29       64       72 </v>
   <v type="int" >        4       28       64       71       72 </v>
   <v type="int" >        4       28       63       64       71 </v>
   <v type="int" >        4       29       29       35       72 </v>
   <v type="int" >        4       28       29       29       72 </v>
   <v type="int" >        4       28       29       71       72 </v>
   <v type="int" >        4       29       35       72       78 </v>
   <v type="int" >        4       29       72       72       78 </v>
   <v type="int" >        4       29       71       72       72 </v>
   <v type="int" >        4       30       35       36       78 </v>
   <v type="int" >        4       29       30       35       78 </v>
   <v type="int" >        4       29       30       72       78 </v>
   <v type="int" >        4       30       36       78       79 </v>
   <v type="int" >        4       30       73       78       79 </v>
   <v type="int" >        4       30       72       73       78 </v>
   <v type="int" >        4       31       36       37       79 </v>
   <v type="int" >        4       30       31       36       79 </v>
   <v type="int" >        4       30       31       73       79 </v>
   <v type="int" >        4       31       37       79       80 </v>
   <v type="int" >        4       31       74       79       80 </v>
   <v type="int" >        4       31       73       74       79 </v>
   <v type="int" >        4       32       37       38       80 </v>
   <v type="int" >        4       31       32       37       80 </v>
   <v type="int" >        4       31       32       74       80 </v>
   <v type="int" >        4       32       38       80       81 </v>
   <v type="int" >        4       32       75       80       81 </v>
   <v type="int" >        4       32       74       75       80 </v>
   <v type="int" >        4       33       38       39       81 </v>
   <v type="int" >        4       32       33       38       81 </v>
   <v type="int" >        4       32       33       75       81 </v>
   <v type="int" >        4       33       39       81       82 </v>
   <v type="int" >        4       33       76       81       82 </v>
   <v type="int" >        4       33       75       76       81 </v>
   <v type="int" >        4       33       34       39       82 </v>
   <v type="int" >        4       33       34       76       82 </v>
   <v type="int" >        4       34       76       77       82 </v>
   <v type="int" >        4        6       11       12       49 </v>
   <v type="int" >        4        5        6       11       49 </v>
   <v type="int" >        4        5       11       48       49 </v>
   <v type="int" >        4       11       12       49       55 </v>
   <v type="int" >        4       11       49       54       55 </v>
   <v type="int" >        4       11       48       49       54 </v>
   <v type="int" >        4       12       21       22       55 </v>
   <v type="int" >        4       11       12       21       55 </v>
   <v type="int" >        4       11       21       54       55 </v>
   <v type="int" >        4       21       22       55       65 </v>
   <v type="int" >        4       21       55       64       65 </v>
   <v type="int" >        4       21       54       55       64 </v>
   <v type="int" >        4       22       29       30       65 </v>
   <v type="int" >        4       21       22       29       65 </v>
   <v type="int" >        4       21       29       64       65 </v>
   <v type="int" >        4       29       30       65       73 </v>
   <v type="int" >        4       29       65       72       73 </v>
   <v type="int" >        4       29       64       65       72 </v>
   <v type="int" >        4       30       35       36       73 </v>
   <v type="int" >        4       29       30       35       73 </v>
   <v type="int" >        4       29       35       72       73 </v>
   <v type="int" >        4       35       36       73       79 </v>
   <v type="int" >        4       35       73       78       79 </v>
   <v type="int" >        4       35       72       73       78 </v>
   <v type="int" >        4       36       36       40       79 </v>
   <v type="int" >        4       35       36       36       79 </v>
   <v type="int" >        4       35       36       78       79 </v>
   <v type="int" >        4       36       40       79       83 </v>
   <v type="int" >        4       36       79       79       83 </v>
   <v type="int" >        4       36       78       79       79 </v>
   <v type="int" >        4       37       40       41       83 </v>
   <v type="int" >        4       36       37       40       83 </v>
   <v type="int" >        4       36       37       79       83 </v>
   <v type="int" >        4       37       41       83       84 </v>
   <v type="int" >        4       37       80       83       84 </v>
   <v type="int" >        4       37       79       80       83 </v>
   <v type="int" >        4       38       41       42       84 </v>
   <v type="int" >        4       37       38       41       84 </v>
   <v type="int" >        4       37       38       80       84 </v>
   <v type="int" >        4       38       42       84       85 </v>
   <v type="int" >        4       38       81       84       85 </v>
   <v type="int" >        4       38       80       81       84 </v>
   <v type="int" >        4       38       39       42       85 </v>
   <v type="int" >        4       38       39       81       85 </v>
   <v type="int" >        4       39       81       82       85 </v>
   <v type="int" >        4        7       12       13       50 </v>
   <v type="int" >        4        6        7       12       50 </v>
   <v type="int" >        4        6       12       49       50 </v>
   <v type="int" >        4       12       13       50       56 </v>
   <v type="int" >        4       12       50       55       56 </v>
   <v type="int" >        4       12       49       50       55 </v>
   <v type="int" >        4       13       22       23       56 </v>
   <v type="int" >        4       12       13       22       56 </v>
   <v type="int" >        4       12       22       55       56 </v>
   <v type="int" >        4       22       23       56       66 </v>
   <v type="int" >        4       22       56       65       66 </v>
   <v type="int" >        4       22       55       56       65 </v>
   <v type="int" >        4       23       30       31       66 </v>
   <v type="int" >        4       22       23       30       66 </v>
   <v type="int" >        4       22       30       65       66 </v>
   <v type="int" >        4       30       31       66       74 </v>
   <v type="int" >        4       30       66       73       74 </v>
   <v type="int" >        4       30       65       66       73 </v>
   <v type="int" >        4       31       36       37       74 </v>
   <v type="int" >        4       30       31       36       74 </v>
   <v type="int" >        4       30       36       73       74 </v>
   <v type="int" >        4       36       37       74       80 </v>
   <v type="int" >        4       36       74       79       80 </v>
   <v type="int" >        4       36       73       74       79 </v>
   <v type="int" >        4       37       40       41       80 </v>
   <v type="int" >        4       36       37       40       80 </v>
   <v type="int" >        4       36       40       79       80 </v>
   <v type="int" >        4       40       41       80       84 </v>
   <v type="int" >        4       40       80       83       84 </v>
   <v type="int" >        4       40       79       80       83 </v>
   <v type="int" >        4       41       41       43       84 </v>
   <v type="int" >        4       40       41       41       84 </v>
   <v type="int" >        4       40       41       83       84 </v>
   <v type="int" >        4       41       43       84       86 </v>
   <v type="int" >        4       41       84       84       86 </v>
   <v type="int" >        4       41       83       84       84 </v>
   <v type="int" >        4       41       42       43       86 </v>
   <v type="int" >        4       41       42       84       86 </v>
   <v type="int" >        4       42       84       85       86 </v>
   <v type="int" >        4        6       13       14       49 </v>
   <v type="int" >        4        6        7       13       49 </v>
   <v type="int" >        4        7       13       49       50 </v>
   <v type="int" >        4       13       14       49       57 </v>
   <v type="int" >        4       13       49       56       57 </v>
   <v type="int" >        4       13       49       50       56 </v>
   <v type="int" >        4       14       23       24       57 </v>
   <v type="int" >        4       13       14       23       57 </v>
   <v type="int" >        4       13       23       56       57 </v>
   <v type="int" >        4       23       24       57       67 </v>
   <v type="int" >        4       23       57       66       67 </v>
   <v type="int" >        4       23       56       57       66 </v>
   <v type="int" >        4       24       31       32       67 </v>
   <v type="int" >        4       23       24       31       67 </v>
   <v type="int" >        4       23       31       66       67 </v>
   <v type="int" >        4       31       32       67       75 </v>
   <v type="int" >        4       31       67       74       75 </v>
   <v type="int" >        4       31       66       67       74 </v>
   <v type="int" >        4       32       37       38       75 </v>
   <v type="int" >        4       31       32       37       75 </v>
   <v type="int" >        4       31       37       74       75 </v>
   <v type="int" >        4       37       38       75       81 </v>
   <v type="int" >        4       37       75       80       81 </v>
   <v type="int" >        4       37       74       75       80 </v>
   <v type="int" >        4       38       41       42       81 </v>
   <v type="int" >        4       37       38       41       81 </v>
   <v type="int" >        4       37       41       80       81 </v>
   <v type="int" >        4       41       42       81       85 </v>
   <v type="int" >        4       41       81       84       85 </v>
   <v type="int" >        4       41       80       81       84 </v>
   <v type="int" >        4       41       42       43       85 </v>
   <v type="int" >        4       41       43       84       85 </v>
   <v type="int" >        4       43       84       85       86 </v>
   <v type="int" >        4        5       14       15       48 </v>
   <v type="int" >        4        5        6       14       48 </v>
   <v type="int" >        4        6       14       48       49 </v>
   <v type="int" >        4       14       15       48       58 </v>
   <v type="int" >        4       14       48       57       58 </v>
   <v type="int" >        4       14       48       49       57 </v>
   <v type="int" >        4       15       24       25       58 </v>
   <v type="int" >        4       14       15       24       58 </v>
   <v type="int" >        4       14       24       57       58 </v>
   <v type="int" >        4       24       25       58       68 </v>
   <v type="int" >        4       24       58       67       68 </v>
   <v type="int" >        4       24       57       58       67 </v>
   <v type="int" >        4       25       32       33       68 </v>
   <v type="int" >        4       24       25       32       68 </v>
   <v type="int" >        4       24       32       67       68 </v>
   <v type="int" >        4       32       33       68       76 </v>
   <v type="int" >        4       32       68       75       76 </v>
   <v type="int" >        4       32       67       68       75 </v>
   <v type="int" >        4       33       38       39       76 </v>
   <v type="int" >        4       32       33       38       76 </v>
   <v type="int" >        4       32       38       75       76 </v>
   <v type="int" >        4       38       39       76       82 </v>
   <v type="int" >        4       38       76       81       82 </v>
   <v type="int" >        4       38       75       76       81 </v>
   <v type="int" >        4       38       39       42       82 </v>
   <v type="int" >        4       38       42       81       82 </v>
   <v type="int" >        4       42       81       82       85 </v>
   <v type="int" >        4        4       15       16       47 </v>
   <v type="int" >        4        4        5       15       47 </v>
   <v type="int" >        4        5       15       47       48 </v>
   <v type="int" >        4       15       16       47       59 </v>
   <v type="int" >        4       15       47       58       59 </v>
   <v type="int" >        4       15       47       48       58 </v>
   <v type="int" >        4       16       25       26       59 </v>
   <v type="int" >        4       15       16       25       59 </v>
   <v type="int" >        4       15       25       58       59 </v>
   <v type="int" >        4       25       26       59       69 </v>
   <v type="int" >        4       25       59       68       69 </v>
   <v type="int" >        4       25       58       59       68 </v>
   <v type="int" >        4       26       33       34       69 </v>
   <v type="int" >        4       25       26       33       69 </v>
   <v type="int" >        4       25       33       68       69 </v>
   <v type="int" >        4       33       34       69       77 </v>
   <v type="int" >        4       33       69       76       77 </v>
   <v type="int" >        4       33       68       69       76 </v>
   <v type="int" >        4       33       34       39       77 </v>
   <v type="int" >        4       33       39       76       77 </v>
   <v type="int" >        4       39       76       77       82 </v>
   <v type="int" >        4        3       16       17       46 </v>
   <v type="int" >        4        3        4       16       46 </v>
   <v type="int" >        4        4       16       46       47 </v>
   <v type="int" >        4       16       17       46       60 </v>
   <v type="int" >        4       16       46       59       60 </v>
   <v type="int" >        4       16       46       47       59 </v>
   <v type="int" >        4       17       26       27       60 </v>
   <v type="int" >        4       16       17       26       60 </v>
   <v type="int" >        4       16       26       59       60 </v>
   <v type="int" >        4       26       27       60       70 </v>
   <v type="int" >        4       26       60       69       70 </v>
   <v type="int" >        4       26       59       60       69 </v>
   <v type="int" >        4       26       27       34       70 </v>
   <v type="int" >        4       26       34       69       70 </v>
   <v type="int" >        4       34       69       70       77 </v>
   <v type="int" >        4        2       17       18       45 </v>
   <v type="int" >        4        2        3       17       45 </v>
   <v type="int" >        4        3       17       45       46 </v>
   <v type="int" >        4       17       18       45       61 </v>
   <v type="int" >        4       17       45       60       61 </v>
   <v type="int" >        4       17       45       46       60 </v>
   <v type="int" >        4       17       18       27       61 </v>
   <v type="int" >        4       17       27       60       61 </v>
   <v type="int" >        4       27       60       61       70 </v>
   <v type="int" >        4        1        2       18       44 </v>
   <v type="int" >        4        2       18       44       45 </v>
   <v type="int" >        4       18       44       45       61 </v>
   <v type="int" >        4       45       45       51       88 </v>
   <v type="int" >        4       44       45       45       88 </v>
   <v type="int" >        4       44       45       87       88 </v>
   <v type="int" >        4       45       51       88       94 </v>
   <v type="int" >        4       45       88       88       94 </v>
   <v type="int" >        4       45       87       88       88 </v>
   <v type="int" >        4       46       51       52       94 </v>
   <v type="int" >        4       45       46       51       94 </v>
   <v type="int" >        4       45       46       88       94 </v>
   <v type="int" >        4       46       52       94       95 </v>
   <v type="int" >        4       46       89       94       95 </v>
   <v type="int" >        4       46       88       89       94 </v>
   <v type="int" >        4       47       52       53       95 </v>
   <v type="int" >        4       46       47       52       95 </v>
   <v type="int" >        4       46       47       89       95 </v>
   <v type="int" >        4       47       53       95       96 </v>
   <v type="int" >        4       47       90       95       96 </v>
   <v type="int" >        4       47       89       90       95 </v>
   <v type="int" >        4       48       53       54       96 </v>
   <v type="int" >        4       47       48       53       96 </v>
   <v type="int" >        4       47       48       90       96 </v>
   <v type="int" >        4       48       54       96       97 </v>
   <v type="int" >        4       48       91       96       97 </v>
   <v type="int" >        4       48       90       91       96 </v>
   <v type="int" >        4       49       54       55       97 </v>
   <v type="int" >        4       48       49       54       97 </v>
   <v type="int" >        4       48       49       91       97 </v>
   <v type="int" >        4       49       55       97       98 </v>
   <v type="int" >        4       49       92       97       98 </v>
   <v type="int" >        4       49       91       92       97 </v>
   <v type="int" >        4       50       55       56       98 </v>
   <v type="int" >        4       49       50       55       98 </v>
   <v type="int" >        4       49       50       92       98 </v>
   <v type="int" >        4       50       56       98       99 </v>
   <v type="int" >        4       50       93       98       99 </v>
   <v type="int" >        4       50       92       93       98 </v>
   <v type="int" >        4       49       56       57       99 </v>
   <v type="int" >        4       49       50       56       99 </v>
   <v type="int" >        4       49       50       93       99 </v>
   <v type="int" >        4       49       57       99      100 </v>
   <v type="int" >        4       49       92       99      100 </v>
   <v type="int" >        4       49       92       93       99 </v>
   <v type="int" >        4       48       57       58      100 </v>
   <v type="int" >        4       48       49       57      100 </v>
   <v type="int" >        4       48       49       92      100 </v>
   <v type="int" >        4       48       58      100      101 </v>
   <v type="int" >        4       48       91      100      101 </v>
   <v type="int" >        4       48       91       92      100 </v>
   <v type="int" >        4       47       58       59      101 </v>
   <v type="int" >        4       47       48       58      101 </v>
   <v type="int" >        4       47       48       91      101 </v>
   <v type="int" >        4       47       59      101      102 </v>
   <v type="int" >        4       47       90      101      102 </v>
   <v type="int" >        4       47       90       91      101 </v>
   <v type="int" >        4       46       59       60      102 </v>
   <v type="int" >        4       46       47       59      102 </v>
   <v type="int" >        4       46       47       90      102 </v>
   <v type="int" >        4       46       60      102      103 </v>
   <v type="int" >        4       46       89      102      103 </v>
   <v type="int" >        4       46       89       90      102 </v>
   <v type="int" >        4       45       60       61      103 </v>
   <v type="int" >        4       45       46       60      103 </v>
   <v type="int" >        4       45       46       89      103 </v>
   <v type="int" >        4       45       61      103      104 </v>
   <v type="int" >        4       45       88      103      104 </v>
   <v type="int" >        4       45       88       89      103 </v>
   <v type="int" >        4       44       45       61      104 </v>
   <v type="int" >        4       44       45       88      104 </v>
   <v type="int" >        4       44       87       88      104 </v>
   <v type="int" >        4       46       51       52       89 </v>
   <v type="int" >        4       45       46       51       89 </v>
   <v type="int" >        4       45       51       88       89 </v>
   <v type="int" >        4       51       52       89       95 </v>
   <v type="int" >        4       51       89       94       95 </v>
   <v type="int" >        4       51       88       89       94 </v>
   <v type="int" >        4       52       52       62       95 </v>
   <v type="int" >        4       51       52       52       95 </v>
   <v type="int" >        4       51       52       94       95 </v>
   <v type="int" >        4       52       62       95      105 </v>
   <v type="int" >        4       52       95       95      105 </v>
   <v type="int" >        4       52       94       95       95 </v>
   <v type="int" >        4       53       62       63      105 </v>
   <v type="int" >        4       52       53       62      105 </v>
   <v type="int" >        4       52       53       95      105 </v>
   <v type="int" >        4       53       63      105      106 </v>
   <v type="int" >        4       53       96      105      106 </v>
   <v type="int" >        4       53       95       96      105 </v>
   <v type="int" >        4       54       63       64      106 </v>
   <v type="int" >        4       53       54       63      106 </v>
   <v type="int" >        4       53       54       96      106 </v>
   <v type="int" >        4       54       64      106      107 </v>
   <v type="int" >        4       54       97      106      107 </v>
   <v type="int" >        4       54       96       97      106 </v>
   <v type="int" >        4       55       64       65      107 </v>
   <v type="int" >        4       54       55       64      107 </v>
   <v type="int" >        4       54       55       97      107 </v>
   <v type="int" >        4       55       65      107      108 </v>
   <v type="int" >        4       55       98      107      108 </v>
   <v type="int" >        4       55       97       98      107 </v>
   <v type="int" >        4       56       65       66      108 </v>
   <v type="int" >        4       55       56       65      108 </v>
   <v type="int" >        4       55       56       98      108 </v>
   <v type="int" >        4       56       66      108      109 </v>
   <v type="int" >        4       56       99      108      109 </v>
   <v type="int" >        4       56       98       99      108 </v>
   <v type="int" >        4       57       66       67      109 </v>
   <v type="int" >        4       56       57       66      109 </v>
   <v type="int" >        4       56       57       99      109 </v>
   <v type="int" >        4       57       67      109      110 </v>
   <v type="int" >        4       57      100      109      110 </v>
   <v type="int" >        4       57       99      100      109 </v>
   <v type="int" >        4       58       67       68      110 </v>
   <v type="int" >        4       57       58       67      110 </v>
   <v type="int" >        4       57       58      100      110 </v>
   <v type="int" >        4       58       68      110      111 </v>
   <v type="int" >        4       58      101      110      111 </v>
   <v type="int" >        4       58      100      101      110 </v>
   <v type="int" >        4       59       68       69      111 </v>
   <v type="int" >        4       58       59       68      111 </v>
   <v type="int" >        4       58       59      101      111 </v>
   <v type="int" >        4       59       69      111      112 </v>
   <v type="int" >        4       59      102      111      112 </v>
   <v type="int" >        4       59      101      102      111 </v>
   <v type="int" >        4       60       69       70      112 </v>
   <v type="int" >        4       59       60       69      112 </v>
   <v type="int" >        4       59       60      102      112 </v>
   <v type="int" >        4       60       70      112      113 </v>
   <v type="int" >        4       60      103      112      113 </v>
   <v type="int" >        4       60      102      103      112 </v>
   <v type="int" >        4       60       61       70      113 </v>
   <v type="int" >        4       60       61      103      113 </v>
   <v type="int" >        4       61      103      104      113 </v>
   <v type="int" >        4       47       52       53       90 </v>
   <v type="int" >        4       46       47       52       90 </v>
   <v type="int" >        4       46       52       89       90 </v>
   <v type="int" >        4       52       53       90       96 </v>
   <v type="int" >        4       52       90       95       96 </v>
   <v type="int" >        4       52       89       90       95 </v>
   <v type="int" >        4       53       62       63       96 </v>
   <v type="int" >        4       52       53       62       96 </v>
   <v type="int" >        4       52       62       95       96 </v>
   <v type="int" >        4       62       63       96      106 </v>
   <v type="int" >        4       62       96      105      106 </v>
   <v type="int" >        4       62       95       96      105 </v>
   <v type="int" >        4       63       63       71      106 </v>
   <v type="int" >        4       62       63       63      106 </v>
   <v type="int" >        4       62       63      105      106 </v>
   <v type="int" >        4       63       71      106      114 </v>
   <v type="int" >        4       63      106      106      114 </v>
   <v type="int" >        4       63      105      106      106 </v>
   <v type="int" >        4       64       71       72      114 </v>
   <v type="int" >        4       63       64       71      114 </v>
   <v type="int" >        4       63       64      106      114 </v>
   <v type="int" >        4       64       72      114      115 </v>
   <v type="int" >        4       64      107      114      115 </v>
   <v type="int" >        4       64      106      107      114 </v>
   <v type="int" >        4       65       72       73      115 </v>
   <v type="int" >        4       64       65       72      115 </v>
   <v type="int" >        4       64       65      107      115 </v>
   <v type="int" >        4       65       73      115      116 </v>
   <v type="int" >        4       65      108      115      116 </v>
   <v type="int" >        4       65      107      108      115 </v>
   <v type="int" >        4       66       73       74      116 </v>
   <v type="int" >        4       65       66       73      116 </v>
   <v type="int" >        4       65       66      108      116 </v>
   <v type="int" >        4       66       74      116      117 </v>
   <v type="int" >        4       66      109      116      117 </v>
   <v type="int" >        4       66      108      109      116 </v>
   <v type="int" >        4       67       74       75      117 </v>
   <v type="int" >        4       66       67       74      117 </v>
   <v type="int" >        4       66       67      109      117 </v>
   <v type="int" >        4       67       75      117      118 </v>
   <v type="int" >        4       67      110      117      118 </v>
   <v type="int" >        4       67      109      110      117 </v>
   <v type="int" >        4       68       75       76      118 </v>
   <v type="int" >        4       67       68       75      118 </v>
   <v type="int" >        4       67       68      110      118 </v>
   <v type="int" >        4       68       76      118      119 </v>
   <v type="int" >        4       68      111      118      119 </v>
   <v type="int" >        4       68      110      111      118 </v>
   <v type="int" >        4       69       76       77      119 </v>
   <v type="int" >        4       68       69       76      119 </v>
   <v type="int" >        4       68       69      111      119 </v>
   <v type="int" >        4       69       77      119      120 </v>
   <v type="int" >        4       69      112      119      120 </v>
   <v type="int" >        4       69      111      112      119 </v>
   <v type="int" >        4       69       70       77      120 </v>
   <v type="int" >        4       69       70      112      120 </v>
   <v type="int" >        4       70      112      113      120 </v>
   <v type="int" >        4       48       53       54       91 </v>
   <v type="int" >        4       47       48       53       91 </v>
   <v type="int" >        4       47       53       90       91 </v>
   <v type="int" >        4       53       54       91       97 </v>
   <v type="int" >        4       53       91       96       97 </v>
   <v type="int" >        4       53       90       91       96 </v>
   <v type="int" >        4       54       63       64       97 </v>
   <v type="int" >        4       53       54       63       97 </v>
   <v type="int" >        4       53       63       96       97 </v>
   <v type="int" >        4       63       64       97      107 </v>
   <v type="int" >        4       63       97      106      107 </v>
   <v type="int" >        4       63       96       97      106 </v>
   <v type="int" >        4       64       71       72      107 </v>
   <v type="int" >        4       63       64       71      107 </v>
   <v type="int" >        4       63       71      106      107 </v>
   <v type="int" >        4       71       72      107      115 </v>
   <v type="int" >        4       71      107      114      115 </v>
   <v type="int" >        4       71      106      107      114 </v>
   <v type="int" >        4       72       72       78      115 </v>
   <v type="int" >        4       71       72       72      115 </v>
   <v type="int" >        4       71       72      114      115 </v>
   <v type="int" >        4       72       78      115      121 </v>
   <v type="int" >        4       72      115      115      121 </v>
   <v type="int" >        4       72      114      115      115 </v>
   <v type="int" >        4       73       78       79      121 </v>
   <v type="int" >        4       72       73       78      121 </v>
   <v type="int" >        4       72       73      115      121 </v>
   <v type="int" >        4       73       79      121      122 </v>
   <v type="int" >        4       73      116      121      122 </v>
   <v type="int" >        4       73      115      116      121 </v>
   <v type="int" >        4       74       79       80      122 </v>
   <v type="int" >        4       73       74       79      122 </v>
   <v type="int" >        4       73       74      116      122 </v>
   <v type="int" >        4       74       80      122      123 </v>
   <v type="int" >        4       74      117      122      123 </v>
   <v type="int" >        4       74      116      117      122 </v>
   <v type="int" >        4       75       80       81      123 </v>
   <v type="int" >        4       74       75       80      123 </v>
   <v type="int" >        4       74       75      117      123 </v>
   <v type="int" >        4       75       81      123      124 </v>
   <v type="int" >        4       75      118      123      124 </v>
   <v type="int" >        4       75      117      118      123 </v>
   <v type="int" >        4       76       81       82      124 </v>
   <v type="int" >        4       75       76       81      124 </v>
   <v type="int" >        4       75       76      118      124 </v>
   <v type="int" >        4       76       82      124      125 </v>
   <v type="int" >        4       76      119      124      125 </v>
   <v type="int" >        4       76      118      119      124 </v>
   <v type="int" >        4       76       77       82      125 </v>
   <v type="int" >        4       76       77      119      125 </v>
   <v type="int" >        4       77      119      120      125 </v>
   <v type="int" >        4       49       54       55       92 </v>
   <v type="int" >        4       48       49       54       92 </v>
   <v type="int" >        4       48       54       91       92 </v>
   <v type="int" >        4       54       55       92       98 </v>
   <v type="int" >        4       54       92       97       98 </v>
   <v type="int" >        4       54       91       92       97 </v>
   <v type="int" >        4       55       64       65       98 </v>
   <v type="int" >        4       54       55       64       98 </v>
   <v type="int" >        4       54       64       97       98 </v>
   <v type="int" >        4       64       65       98      108 </v>
   <v type="int" >        4       64       98      107      108 </v>
   <v type="int" >        4       64       97       98      107 </v>
   <v type="int" >        4       65       72       73      108 </v>
   <v type="int" >        4       64       65       72      108 </v>
   <v type="int" >        4       64       72      107      108 </v>
   <v type="int" >        4       72       73      108      116 </v>
   <v type="int" >        4       72      108      115      116 </v>
   <v type="int" >        4       72      107      108      115 </v>
   <v type="int" >        4       73       78       79      116 </v>
   <v type="int" >        4       72       73       78      116 </v>
   <v type="int" >        4       72       78      115      116 </v>
   <v type="int" >        4       78       79      116      122 </v>
   <v type="int" >        4       78      116      121      122 </v>
   <v type="int" >        4       78      115      116      121 </v>
   <v type="int" >        4       79       79       83      122 </v>
   <v type="int" >        4       78       79       79      122 </v>
   <v type="int" >        4       78       79      121      122 </v>
   <v type="int" >        4       79       83      122      126 </v>
   <v type="int" >        4       79      122      122      126 </v>
   <v type="int" >        4       79      121      122      122 </v>
   <v type="int" >        4       80       83       84      126 </v>
   <v type="int" >        4       79       80       83      126 </v>
   <v type="int" >        4       79       80      122      126 </v>
   <v type="int" >        4       80       84      126      127 </v>
   <v type="int" >        4       80      123      126      127 </v>
   <v type="int" >        4       80      122      123      126 </v>
   <v type="int" >        4       81       84       85      127 </v>
   <v type="int" >        4       80       81       84      127 </v>
   <v type="int" >        4       80       81      123      127 </v>
   <v type="int" >        4       81       85      127      128 </v>
   <v type="int" >        4       81      124      127      128 </v>
   <v type="int" >        4       81      123      124      127 </v>
   <v type="int" >        4       81       82       85      128 </v>
   <v type="int" >        4       81       82      124      128 </v>
   <v type="int" >        4       82      124      125      128 </v>
   <v type="int" >        4       50       55       56       93 </v>
   <v type="int" >        4       49       50       55       93 </v>
   <v type="int" >        4       49       55       92       93 </v>
   <v type="int" >        4       55       56       93       99 </v>
   <v type="int" >        4       55       93       98       99 </v>
   <v type="int" >        4       55       92       93       98 </v>
   <v type="int" >        4       56       65       66       99 </v>
   <v type="int" >        4       55       56       65       99 </v>
   <v type="int" >        4       55       65       98       99 </v>
   <v type="int" >        4       65       66       99      109 </v>
   <v type="int" >        4       65       99      108      109 </v>
   <v type="int" >        4       65       98       99      108 </v>
   <v type="int" >        4       66       73       74      109 </v>
   <v type="int" >        4       65       66       73      109 </v>
   <v type="int" >        4       65       73      108      109 </v>
   <v type="int" >        4       73       74      109      117 </v>
   <v type="int" >        4       73      109      116      117 </v>
   <v type="int" >        4       73      108      109      116 </v>
   <v type="int" >        4       74       79       80      117 </v>
   <v type="int" >        4       73       74       79      117 </v>
   <v type="int" >        4       73       79      116      117 </v>
   <v type="int" >        4       79       80      117      123 </v>
   <v type="int" >        4       79      117      122      123 </v>
   <v type="int" >        4       79      116      117      122 </v>
   <v type="int" >        4       80       83       84      123 </v>
   <v type="int" >        4       79       80       83      123 </v>
   <v type="int" >        4       79       83      122      123 </v>
   <v type="int" >        4       83       84      123      127 </v>
   <v type="int" >        4       83      123      126      127 </v>
   <v type="int" >        4       83      122      123      126 </v>
   <v type="int" >        4       84       84       86      127 </v>
   <v type="int" >        4       83       84       84      127 </v>
   <v type="int" >        4       83       84      126      127 </v>
   <v type="int" >        4       84       86      127      129 </v>
   <v type="int" >        4       84      127      127      129 </v>
   <v type="int" >        4       84      126      127      127 </v>
   <v type="int" >        4       84       85       86      129 </v>
   <v type="int" >        4       84       85      127      129 </v>
   <v type="int" >        4       85      127      128      129 </v>
   <v type="int" >        4       49       56       57       92 </v>
   <v type="int" >        4       49       50       56       92 </v>
   <v type="int" >        4       50       56       92       93 </v>
   <v type="int" >        4       56       57       92      100 </v>
   <v type="int" >        4       56       92       99      100 </v>
   <v type="int" >        4       56       92       93       99 </v>
   <v type="int" >        4       57       66       67      100 </v>
   <v type="int" >        4       56       57       66      100 </v>
   <v type="int" >        4       56       66       99      100 </v>
   <v type="int" >        4       66       67      100      110 </v>
   <v type="int" >        4       66      100      109      110 </v>
   <v type="int" >        4       66       99      100      109 </v>
   <v type="int" >        4       67       74       75      110 </v>
   <v type="int" >        4       66       67       74      110 </v>
   <v type="int" >        4       66       74      109      110 </v>
   <v type="int" >        4       74       75      110      118 </v>
   <v type="int" >        4       74      110      117      118 </v>
   <v type="int" >        4       74      109      110      117 </v>
   <v type="int" >        4       75       80       81      118 </v>
   <v type="int" >        4       74       75       80      118 </v>
   <v type="int" >        4       74       80      117      118 </v>
   <v type="int" >        4       80       81      118      124 </v>
   <v type="int" >        4       80      118      123      124 </v>
   <v type="int" >        4       80      117      118      123 </v>
   <v type="int" >        4       81       84       85      124 </v>
   <v type="int" >        4       80       81       84      124 </v>
   <v type="int" >        4       80       84      123      124 </v>
   <v type="int" >        4       84       85      124      128 </v>
   <v type="int" >        4       84      124      127      128 </v>
   <v type="int" >        4       84      123      124      127 </v>
   <v type="int" >        4       84       85       86      128 </v>
   <v type="int" >        4       84       86      127      128 </v>
   <v type="int" >        4       86      127      128      129 </v>
   <v type="int" >        4       48       57       58       91 </v>
   <v type="int" >        4       48       49       57       91 </v>
   <v type="int" >        4       49       57       91       92 </v>
   <v type="int" >        4       57       58       91      101 </v>
   <v type="int" >        4       57       91      100      101 </v>
   <v type="int" >        4       57       91       92      100 </v>
   <v type="int" >        4       58       67       68      101 </v>
   <v type="int" >        4       57       58       67      101 </v>
   <v type="int" >        4       57       67      100      101 </v>
   <v type="int" >        4       67       68      101      111 </v>
   <v type="int" >        4       67      101      110      111 </v>
   <v type="int" >        4       67      100      101      110 </v>
   <v type="int" >        4       68       75       76      111 </v>
   <v type="int" >        4       67       68       75      111 </v>
   <v type="int" >        4       67       75      110      111 </v>
   <v type="int" >        4       75       76      111      119 </v>
   <v type="int" >        4       75      111      118      119 </v>
   <v type="int" >        4       75      110      111      118 </v>
   <v type="int" >        4       76       81       82      119 </v>
   <v type="int" >        4       75       76       81      119 </v>
   <v type="int" >        4       75       81      118      119 </v>
   <v type="int" >        4       81       82      119      125 </v>
   <v type="int" >        4       81      119      124      125 </v>
   <v type="int" >        4       81      118      119      124 </v>
   <v type="int" >        4       81       82       85      125 </v>
   <v type="int" >        4       81       85      124      125 </v>
   <v type="int" >        4       85      124      125      128 </v>
   <v type="int" >        4       47       58       59       90 </v>
   <v type="int" >        4       47       48       58       90 </v>
   <v type="int" >        4       48       58       90       91 </v>
   <v type="int" >        4       58       59       90      102 </v>
   <v type="int" >        4       58       90      101      102 </v>
   <v type="int" >        4       58       90       91      101 </v>
   <v type="int" >        4       59       68       69      102 </v>
   <v type="int" >        4       58       59       68      102 </v>
   <v type="int" >        4       58       68      101      102 </v>
   <v type="int" >        4       68       69      102      112 </v>
   <v type="int" >        4       68      102      111      112 </v>
   <v type="int" >        4       68      101      102      111 </v>
   <v type="int" >        4       69       76       77      112 </v>
   <v type="int" >        4       68       69       76      112 </v>
   <v type="int" >        4       68       76      111      112 </v>
   <v type="int" >        4       76       77      112      120 </v>
   <v type="int" >        4       76      112      119      120 </v>
   <v type="int" >        4       76      111      112      119 </v>
   <v type="int" >        4       76       77       82      120 </v>
   <v type="int" >        4       76       82      119      120 </v>
   <v type="int" >        4       82      119      120      125 </v>
   <v type="int" >        4       46       59       60       89 </v>
   <v type="int" >        4       46       47       59       89 </v>
   <v type="int" >        4       47       59       89       90 </v>
   <v type="int" >        4       59       60       89      103 </v>
   <v type="int" >        4       59       89      102      103 </v>
   <v type="int" >        4       59       89       90      102 </v>
   <v type="int" >        4       60       69       70      103 </v>
   <v type="int" >        4       59       60       69      103 </v>
   <v type="int" >        4       59       69      102      103 </v>
   <v type="int" >        4       69       70      103      113 </v>
   <v type="int" >        4       69      103      112      113 </v>
[...]
       <r>   -8.6216    1.0000 </r>
       <r>   -8.6216    1.0000 </r>
       <r>   -6.7525    1.0000 </r>
       <r>   -6.7525    1.0000 </r>
       <r>   -4.4528    1.0000 </r>
       <r>   -4.4528    1.0000 </r>
       <r>    3.7973    1.0000 </r>
       <r>    3.7973    1.0012 </r>
       <r>    6.4456    0.0000 </r>
       <r>    6.4456    0.0000 </r>
       <r>   15.6442    0.0000 </r>
       <r>   15.6442    0.0000 </r>
      </set>
      <set comment="kpoint 209">
       <r>   -9.8975    1.0000 </r>
       <r>   -9.8975    1.0000 </r>
       <r>   -6.2084    1.0000 </r>
       <r>   -6.2084    1.0000 </r>
       <r>   -2.8313    1.0000 </r>
       <r>   -2.8313    1.0000 </r>
       <r>    2.4973    1.0000 </r>
       <r>    2.4973    1.0000 </r>
       <r>    7.6561    0.0000 </r>
       <r>    7.6561    0.0000 </r>
       <r>   15.1384    0.0000 </r>
       <r>   15.1384    0.0000 </r>
      </set>
      <set comment="kpoint 210">
       <r>  -10.9621    1.0000 </r>
       <r>  -10.9621    1.0000 </r>
       <r>   -5.4368    1.0000 </r>
       <r>   -5.4368    1.0000 </r>
       <r>   -1.3520    1.0000 </r>
       <r>   -1.3520    1.0000 </r>
       <r>    1.3779    1.0000 </r>
       <r>    1.3779    1.0000 </r>
       <r>    8.8496    0.0000 </r>
       <r>    8.8496    0.0000 </r>
       <r>   13.4809    0.0000 </r>
       <r>   13.4809    0.0000 </r>
      </set>
      <set comment="kpoint 211">
       <r>  -11.7461    1.0000 </r>
       <r>  -11.7461    1.0000 </r>
       <r>   -4.4364    1.0000 </r>
       <r>   -4.4364    1.0000 </r>
       <r>   -0.5585    1.0000 </r>
       <r>   -0.5585    1.0000 </r>
       <r>    0.5291    1.0000 </r>
       <r>    0.5291    1.0000 </r>
       <r>   10.0357    0.0000 </r>
       <r>   10.0357    0.0000 </r>
       <r>   12.9043    0.0000 </r>
       <r>   12.9043    0.0000 </r>
      </set>
      <set comment="kpoint 212">
       <r>   -8.6668    1.0000 </r>
       <r>   -8.6668    1.0000 </r>
       <r>   -7.6404    1.0000 </r>
       <r>   -7.6404    1.0000 </r>
       <r>   -3.0159    1.0000 </r>
       <r>   -3.0159    1.0000 </r>
       <r>    3.3902    1.0000 </r>
       <r>    3.3902    1.0000 </r>
       <r>    6.5859    0.0000 </r>
       <r>    6.5859    0.0000 </r>
       <r>   15.0528    0.0000 </r>
       <r>   15.0528    0.0000 </r>
      </set>
      <set comment="kpoint 213">
       <r>   -9.4830    1.0000 </r>
       <r>   -9.4830    1.0000 </r>
       <r>   -7.3781    1.0000 </r>
       <r>   -7.3781    1.0000 </r>
       <r>   -1.6799    1.0000 </r>
       <r>   -1.6799    1.0000 </r>
       <r>    2.6860    1.0000 </r>
       <r>    2.6860    1.0000 </r>
       <r>    7.0784    0.0000 </r>
       <r>    7.0784    0.0000 </r>
       <r>   13.3164    0.0000 </r>
       <r>   13.3164    0.0000 </r>
      </set>
      <set comment="kpoint 214">
       <r>  -10.3496    1.0000 </r>
       <r>  -10.3496    1.0000 </r>
       <r>   -6.5378    1.0000 </r>
       <r>   -6.5378    1.0000 </r>
       <r>   -1.0305    1.0000 </r>
       <r>   -1.0305    1.0000 </r>
       <r>    1.9484    1.0000 </r>
       <r>    1.9484    1.0000 </r>
       <r>    7.8974    0.0000 </r>
       <r>    7.8974    0.0000 </r>
       <r>   12.6660    0.0000 </r>
       <r>   12.6660    0.0000 </r>
      </set>
      <set comment="kpoint 215">
       <r>   -9.0899    1.0000 </r>
       <r>   -9.0899    1.0000 </r>
       <r>   -8.0403    1.0000 </r>
       <r>   -8.0403    1.0000 </r>
       <r>   -1.1926    1.0000 </r>
       <r>   -1.1926    1.0000 </r>
       <r>    2.7937    1.0000 </r>
       <r>    2.7937    1.0000 </r>
       <r>    6.7970    0.0000 </r>
       <r>    6.7970    0.0000 </r>
       <r>   12.5803    0.0000 </r>
       <r>   12.5803    0.0000 </r>
      </set>
     </set>
    </set>
   </array>
  </eigenvalues>
  <separator name="orbital magnetization" >
   <v name="MAGDIPOLOUT">      0.00000000      0.00000000      0.00000000</v>
  </separator>
  <dos>
   <i name="efermi">      5.13446234 </i>
   <total>
    <array>
     <dimension dim="1">gridpoints</dimension>
     <dimension dim="2">spin</dimension>
     <field>energy</field>
     <field>total</field>
     <field>integrated</field>
     <set>
      <set comment="spin 1">
       <r>   -16.5450     0.0000     0.0000 </r>
       <r>   -16.4267     0.0000     0.0000 </r>
       <r>   -16.3084     0.0000     0.0000 </r>
       <r>   -16.1901     0.0000     0.0000 </r>
       <r>   -16.0718     0.0000     0.0000 </r>
       <r>   -15.9535     0.0000     0.0000 </r>
       <r>   -15.8352     0.0000     0.0000 </r>
       <r>   -15.7169     0.0000     0.0000 </r>
       <r>   -15.5986     0.0000     0.0000 </r>
       <r>   -15.4803     0.0000     0.0000 </r>
       <r>   -15.3620     0.0000     0.0000 </r>
       <r>   -15.2437     0.0000     0.0000 </r>
       <r>   -15.1254     0.0000     0.0000 </r>
       <r>   -15.0071     0.0000     0.0000 </r>
       <r>   -14.8888     0.0000     0.0000 </r>
       <r>   -14.7705     0.0000     0.0000 </r>
       <r>   -14.6522     0.0000     0.0000 </r>
       <r>   -14.5338     0.0030     0.0000 </r>
       <r>   -14.4155     0.1877     0.0094 </r>
       <r>   -14.2972     0.2924     0.0399 </r>
       <r>   -14.1789     0.4003     0.0805 </r>
       <r>   -14.0606     0.5807     0.1374 </r>
       <r>   -13.9423     0.6121     0.2126 </r>
       <r>   -13.8240     0.6072     0.2838 </r>
       <r>   -13.7057     0.6198     0.3564 </r>
       <r>   -13.5874     0.6168     0.4299 </r>
       <r>   -13.4691     0.6138     0.5024 </r>
       <r>   -13.3508     0.6247     0.5760 </r>
       <r>   -13.2325     0.6270     0.6501 </r>
       <r>   -13.1142     0.6266     0.7242 </r>
       <r>   -12.9959     0.6195     0.7980 </r>
       <r>   -12.8776     0.6148     0.8707 </r>
       <r>   -12.7593     0.6197     0.9437 </r>
       <r>   -12.6410     0.6283     1.0175 </r>
       <r>   -12.5227     0.6377     1.0925 </r>
       <r>   -12.4044     0.6363     1.1679 </r>
       <r>   -12.2861     0.6346     1.2431 </r>
       <r>   -12.1677     0.6306     1.3180 </r>
       <r>   -12.0494     0.6250     1.3922 </r>
       <r>   -11.9311     0.6274     1.4662 </r>
       <r>   -11.8128     0.6316     1.5407 </r>
       <r>   -11.6945     0.6369     1.6157 </r>
       <r>   -11.5762     0.6432     1.6914 </r>
       <r>   -11.4579     0.6507     1.7680 </r>
       <r>   -11.3396     0.6507     1.8449 </r>
       <r>   -11.2213     0.6506     1.9219 </r>
       <r>   -11.1030     0.6478     1.9988 </r>
       <r>   -10.9847     0.6463     2.0752 </r>
       <r>   -10.8664     0.6486     2.1518 </r>
       <r>   -10.7481     0.6530     2.2287 </r>
       <r>   -10.6298     0.6589     2.3063 </r>
       <r>   -10.5115     0.6647     2.3846 </r>
       <r>   -10.3932     0.6723     2.4637 </r>
       <r>   -10.2749     0.6818     2.5438 </r>
       <r>   -10.1566     0.6934     2.6251 </r>
       <r>   -10.0383     0.7047     2.7078 </r>
       <r>    -9.9200     0.7210     2.7921 </r>
       <r>    -9.8016     0.7414     2.8785 </r>
       <r>    -9.6833     0.7700     2.9678 </r>
       <r>    -9.5650     0.9478     3.0666 </r>
       <r>    -9.4467     1.0365     3.1850 </r>
       <r>    -9.3284     1.1415     3.3111 </r>
       <r>    -9.2101     0.8992     3.4337 </r>
       <r>    -9.0918     0.6588     3.5249 </r>
       <r>    -8.9735     0.5356     3.5939 </r>
       <r>    -8.8552     0.4785     3.6539 </r>
       <r>    -8.7369     0.8252     3.7198 </r>
       <r>    -8.6186     0.5494     3.7940 </r>
       <r>    -8.5003     0.4700     3.8596 </r>
       <r>    -8.3820     0.2299     3.8916 </r>
       <r>    -8.2637     0.2009     3.9171 </r>
       <r>    -8.1454     0.1720     3.9392 </r>
       <r>    -8.0271     0.1598     3.9582 </r>
       <r>    -7.9088     0.2048     3.9793 </r>
       <r>    -7.7905     0.2627     4.0070 </r>
       <r>    -7.6722     0.3223     4.0415 </r>
       <r>    -7.5538     0.7449     4.1017 </r>
       <r>    -7.4355     0.8692     4.2081 </r>
       <r>    -7.3172     0.8647     4.3100 </r>
       <r>    -7.1989     0.7871     4.4050 </r>
       <r>    -7.0806     0.9408     4.5072 </r>
       <r>    -6.9623     1.0944     4.6276 </r>
       <r>    -6.8440     1.2456     4.7662 </r>
       <r>    -6.7257     0.9545     4.8916 </r>
       <r>    -6.6074     0.7072     4.9871 </r>
       <r>    -6.4891     0.6871     5.0695 </r>
       <r>    -6.3708     0.6689     5.1497 </r>
       <r>    -6.2525     0.6519     5.2278 </r>
       <r>    -6.1342     0.6351     5.3040 </r>
       <r>    -6.0159     0.6165     5.3780 </r>
       <r>    -5.8976     0.5976     5.4498 </r>
       <r>    -5.7793     0.5786     5.5194 </r>
       <r>    -5.6610     0.5596     5.5867 </r>
       <r>    -5.5427     0.5406     5.6518 </r>
       <r>    -5.4244     0.5215     5.7146 </r>
       <r>    -5.3061     0.5241     5.7757 </r>
       <r>    -5.1877     0.5693     5.8403 </r>
       <r>    -5.0694     0.6157     5.9104 </r>
       <r>    -4.9511     0.6621     5.9860 </r>
       <r>    -4.8328     0.7085     6.0671 </r>
       <r>    -4.7145     0.7549     6.1536 </r>
       <r>    -4.5962     0.8012     6.2457 </r>
       <r>    -4.4779     0.8197     6.3423 </r>
       <r>    -4.3596     0.8188     6.4399 </r>
       <r>    -4.2413     0.7822     6.5344 </r>
       <r>    -4.1230     0.7645     6.6252 </r>
       <r>    -4.0047     0.7642     6.7156 </r>
       <r>    -3.8864     0.7639     6.8060 </r>
       <r>    -3.7681     0.7642     6.8964 </r>
       <r>    -3.6498     0.7763     6.9874 </r>
       <r>    -3.5315     0.8034     7.0804 </r>
       <r>    -3.4132     0.8889     7.1802 </r>
       <r>    -3.2949     0.9297     7.2885 </r>
       <r>    -3.1766     0.9777     7.4014 </r>
       <r>    -3.0583     1.0197     7.5195 </r>
       <r>    -2.9400     1.0838     7.6438 </r>
       <r>    -2.8216     1.1411     7.7757 </r>
       <r>    -2.7033     1.1770     7.9128 </r>
       <r>    -2.5850     1.2250     8.0548 </r>
       <r>    -2.4667     1.2896     8.2033 </r>
       <r>    -2.3484     1.3749     8.3607 </r>
       <r>    -2.2301     1.4109     8.5280 </r>
       <r>    -2.1118     1.2925     8.6893 </r>
       <r>    -1.9935     1.2410     8.8390 </r>
       <r>    -1.8752     1.2101     8.9837 </r>
       <r>    -1.7569     1.2047     9.1264 </r>
       <r>    -1.6386     1.4883     9.2839 </r>
       <r>    -1.5203     1.6793     9.4720 </r>
       <r>    -1.4020     1.8722     9.6818 </r>
       <r>    -1.2837     2.1716     9.9182 </r>
       <r>    -1.1654     2.6429    10.2282 </r>
       <r>    -1.0471     2.0403    10.5030 </r>
       <r>    -0.9288     1.7988    10.7277 </r>
       <r>    -0.8105     1.6144    10.9291 </r>
       <r>    -0.6922     1.4828    11.1127 </r>
       <r>    -0.5738     1.1146    11.2647 </r>
       <r>    -0.4555     1.0473    11.3920 </r>
       <r>    -0.3372     1.0214    11.5137 </r>
       <r>    -0.2189     1.0715    11.6372 </r>
       <r>    -0.1006     1.1831    11.7692 </r>
       <r>     0.0177     1.4310    11.9229 </r>
       <r>     0.1360     1.4952    12.1076 </r>
       <r>     0.2543     1.5975    12.2928 </r>
       <r>     0.3726     1.4591    12.4729 </r>
       <r>     0.4909     1.3606    12.6395 </r>
       <r>     0.6092     1.3055    12.7970 </r>
       <r>     0.7275     1.2538    12.9483 </r>
       <r>     0.8458     1.2088    13.0939 </r>
       <r>     0.9641     1.1700    13.2346 </r>
       <r>     1.0824     1.1645    13.3717 </r>
       <r>     1.2007     1.1972    13.5125 </r>
       <r>     1.3190     1.1721    13.6526 </r>
       <r>     1.4373     1.1493    13.7899 </r>
       <r>     1.5556     1.2152    13.9276 </r>
       <r>     1.6739     1.1520    14.0676 </r>
       <r>     1.7923     1.0942    14.2004 </r>
       <r>     1.9106     1.1908    14.3404 </r>
       <r>     2.0289     1.0821    14.4720 </r>
       <r>     2.1472     0.9200    14.5921 </r>
       <r>     2.2655     0.8242    14.6934 </r>
       <r>     2.3838     0.8080    14.7897 </r>
       <r>     2.5021     0.8045    14.8853 </r>
       <r>     2.6204     0.8022    14.9803 </r>
       <r>     2.7387     0.8045    15.0753 </r>
       <r>     2.8570     0.8081    15.1705 </r>
       <r>     2.9753     0.8685    15.2691 </r>
       <r>     3.0936     0.9078    15.3736 </r>
       <r>     3.2119     0.8005    15.4759 </r>
       <r>     3.3302     0.6483    15.5595 </r>
       <r>     3.4485     0.5730    15.6326 </r>
       <r>     3.5668     0.4685    15.6942 </r>
       <r>     3.6851     0.3808    15.7442 </r>
       <r>     3.8034     0.3421    15.7868 </r>
       <r>     3.9217     0.3073    15.8252 </r>
       <r>     4.0400     0.2712    15.8594 </r>
       <r>     4.1584     0.2363    15.8894 </r>
       <r>     4.2767     0.2022    15.9153 </r>
       <r>     4.3950     0.1771    15.9375 </r>
       <r>     4.5133     0.1464    15.9568 </r>
       <r>     4.6316     0.1156    15.9723 </r>
       <r>     4.7499     0.0861    15.9842 </r>
       <r>     4.8682     0.0578    15.9927 </r>
       <r>     4.9865     0.0305    15.9979 </r>
       <r>     5.1048     0.0042    15.9999 </r>
       <r>     5.2231     0.0114    16.0005 </r>
       <r>     5.3414     0.0285    16.0028 </r>
       <r>     5.4597     0.0469    16.0073 </r>
       <r>     5.5780     0.0666    16.0140 </r>
       <r>     5.6963     0.0880    16.0231 </r>
       <r>     5.8146     0.1111    16.0349 </r>
       <r>     5.9329     0.1368    16.0495 </r>
       <r>     6.0512     0.1659    16.0674 </r>
       <r>     6.1695     0.2028    16.0891 </r>
       <r>     6.2878     0.3094    16.1202 </r>
       <r>     6.4062     0.3884    16.1617 </r>
       <r>     6.5245     0.4388    16.2112 </r>
       <r>     6.6428     0.5244    16.2662 </r>
       <r>     6.7611     1.1075    16.3553 </r>
       <r>     6.8794     1.0950    16.4996 </r>
       <r>     6.9977     0.8849    16.6151 </r>
       <r>     7.1160     0.8482    16.7175 </r>
       <r>     7.2343     0.8158    16.8161 </r>
       <r>     7.3526     0.7898    16.9108 </r>
       <r>     7.4709     0.7780    17.0034 </r>
       <r>     7.5892     0.7860    17.0962 </r>
       <r>     7.7075     0.7589    17.1879 </r>
       <r>     7.8258     0.6384    17.2690 </r>
       <r>     7.9441     0.6068    17.3426 </r>
       <r>     8.0624     0.5783    17.4127 </r>
       <r>     8.1807     0.5528    17.4796 </r>
       <r>     8.2990     0.5302    17.5436 </r>
       <r>     8.4173     0.5139    17.6053 </r>
       <r>     8.5356     0.5014    17.6653 </r>
       <r>     8.6539     0.4900    17.7239 </r>
       <r>     8.7723     0.4798    17.7813 </r>
       <r>     8.8906     0.4698    17.8375 </r>
       <r>     9.0089     0.4598    17.8925 </r>
       <r>     9.1272     0.4499    17.9463 </r>
       <r>     9.2455     0.4361    17.9987 </r>
       <r>     9.3638     0.4251    18.0496 </r>
       <r>     9.4821     0.4153    18.0993 </r>
       <r>     9.6004     0.4061    18.1479 </r>
       <r>     9.7187     0.3978    18.1954 </r>
       <r>     9.8370     0.3901    18.2420 </r>
       <r>     9.9553     0.3828    18.2878 </r>
       <r>    10.0736     0.3939    18.3333 </r>
       <r>    10.1919     0.4287    18.3821 </r>
       <r>    10.3102     0.4424    18.4338 </r>
       <r>    10.4285     0.4467    18.4863 </r>
       <r>    10.5468     0.4593    18.5398 </r>
       <r>    10.6651     0.4705    18.5948 </r>
       <r>    10.7834     0.4919    18.6517 </r>
       <r>    10.9017     0.5176    18.7114 </r>
       <r>    11.0200     0.5431    18.7742 </r>
       <r>    11.1384     0.5698    18.8400 </r>
       <r>    11.2567     0.6087    18.9094 </r>
       <r>    11.3750     0.6056    18.9824 </r>
       <r>    11.4933     0.5465    19.0507 </r>
       <r>    11.6116     0.5034    19.1122 </r>
       <r>    11.7299     0.4697    19.1699 </r>
       <r>    11.8482     0.4443    19.2238 </r>
       <r>    11.9665     0.4166    19.2748 </r>
       <r>    12.0848     0.3844    19.3222 </r>
       <r>    12.2031     0.3647    19.3662 </r>
       <r>    12.3214     0.3824    19.4093 </r>
       <r>    12.4397     0.5325    19.4630 </r>
       <r>    12.5580     0.7541    19.5375 </r>
       <r>    12.6763     1.2329    19.6498 </r>
       <r>    12.7946     1.3153    19.8014 </r>
       <r>    12.9129     1.5486    19.9690 </r>
       <r>    13.0312     1.8140    20.1686 </r>
       <r>    13.1495     1.9372    20.3923 </r>
       <r>    13.2678     2.0749    20.6318 </r>
       <r>    13.3862     2.0967    20.8797 </r>
       <r>    13.5045     2.7274    21.1355 </r>
       <r>    13.6228     2.6644    21.4608 </r>
       <r>    13.7411     2.0323    21.7404 </r>
       <r>    13.8594     1.4638    21.9432 </r>
       <r>    13.9777     1.2092    22.1042 </r>
       <r>    14.0960     1.1249    22.2401 </r>
       <r>    14.2143     1.1201    22.3712 </r>
       <r>    14.3326     1.1423    22.5076 </r>
       <r>    14.4509     1.0324    22.6368 </r>
       <r>    14.5692     0.9041    22.7513 </r>
       <r>    14.6875     0.7838    22.8511 </r>
       <r>    14.8058     0.6755    22.9371 </r>
       <r>    14.9241     0.6400    23.0142 </r>
       <r>    15.0424     0.6705    23.0911 </r>
       <r>    15.1607     0.8885    23.1923 </r>
       <r>    15.2790     0.7132    23.2849 </r>
       <r>    15.3973     0.7423    23.3707 </r>
       <r>    15.5156     0.8139    23.4624 </r>
       <r>    15.6339     0.9447    23.5652 </r>
       <r>    15.7523     0.7002    23.6646 </r>
       <r>    15.8706     0.5052    23.7355 </r>
       <r>    15.9889     0.4119    23.7888 </r>
       <r>    16.1072     0.3464    23.8336 </r>
       <r>    16.2255     0.2977    23.8714 </r>
       <r>    16.3438     0.2742    23.9052 </r>
       <r>    16.4621     0.2447    23.9358 </r>
       <r>    16.5804     0.2139    23.9633 </r>
       <r>    16.6987     0.1280    23.9826 </r>
       <r>    16.8170     0.0779    23.9950 </r>
       <r>    16.9353     0.0011    24.0000 </r>
       <r>    17.0536     0.0000    24.0000 </r>
       <r>    17.1719     0.0000    24.0000 </r>
       <r>    17.2902     0.0000    24.0000 </r>
       <r>    17.4085     0.0000    24.0000 </r>
       <r>    17.5268     0.0000    24.0000 </r>
       <r>    17.6451     0.0000    24.0000 </r>
       <r>    17.7634     0.0000    24.0000 </r>
       <r>    17.8817     0.0000    24.0000 </r>
       <r>    18.0000     0.0000    24.0000 </r>
       <r>    18.1184     0.0000    24.0000 </r>
       <r>    18.2367     0.0000    24.0000 </r>
       <r>    18.3550     0.0000    24.0000 </r>
       <r>    18.4733     0.0000    24.0000 </r>
       <r>    18.5916     0.0000    24.0000 </r>
       <r>    18.7099     0.0000    24.0000 </r>
       <r>    18.8282     0.0000    24.0000 </r>
       <r>    18.9465     0.0000    24.0000 </r>
      </set>
     </set>
    </array>
   </total>
  </dos>
 </calculation>
 <structure name="finalpos" >
  <crystal>
   <varray name="basis" >
    <v>       2.46643725      -0.00095964       0.00000000 </v>
    <v>      -1.23404970       2.13551749       0.00000000 </v>
    <v>       0.00000000       0.00000000       6.36648070 </v>
   </varray>
   <i name="volume">     33.52547764 </i>
   <varray name="rec_basis" >
    <v>       0.40553429       0.23434576       0.00000000 </v>
    <v>       0.00018224       0.46837588       0.00000000 </v>
    <v>       0.00000000       0.00000000       0.15707265 </v>
   </varray>
  </crystal>
  <varray name="positions" >
   <v>       0.99934661       0.00065344       0.25000000 </v>
   <v>       0.00065344       0.99934661       0.75000000 </v>
   <v>       0.33258492       0.66741506       0.25000000 </v>
   <v>       0.66741506       0.33258492       0.75000000 </v>
  </varray>
 </structure>
</modeling>
