 running on    6 total cores
 distrk:  each k-point on    6 cores,    1 groups
 distr:  one band on    1 cores,    6 groups
 using from now: INCAR     
 vasp.5.3.5 31Mar14 (build Nov 02 2014 15:17:37) complex                        
  
 POSCAR found :  1 types and      32 ions
 scaLAPACK will be used

 ----------------------------------------------------------------------------- 
|                                                                             |
|           W    W    AA    RRRRR   N    N  II  N    N   GGGG   !!!           |
|           W    W   A  A   R    R  NN   N  II  NN   N  G    G  !!!           |
|           W    W  A    A  R    R  N N  N  II  N N  N  G       !!!           |
|           W WW W  AAAAAA  RRRRR   N  N N  II  N  N N  G  GGG   !            |
|           WW  WW  A    A  R   R   N   NN  II  N   NN  G    G                |
|           W    W  A    A  R    R  N    N  II  N    N   GGGG   !!!           |
|                                                                             |
|      For optimal performance we recommend to set                            |
|        NCORE= 4 - approx SQRT( number of cores)                             |
|      NCORE specifies how many cores store one orbital (NPAR=cpu/NCORE).     |
|      This setting can  greatly improve the performance of VASP for DFT.     |
|      The default, NPAR=number of cores might be grossly inefficient         |
|      on modern multi-core architectures or massively parallel machines.     |
|      Do your own testing !!!!                                               |
|      Unfortunately you need to use the default for GW and RPA calculations. |
|      (for HF NCORE is supported but not extensively tested yet)             |
|                                                                             |
 ----------------------------------------------------------------------------- 


 ----------------------------------------------------------------------------- 
|                                                                             |
|  ADVICE TO THIS USER RUNNING 'VASP/VAMP'   (HEAR YOUR MASTER'S VOICE ...):  |
|                                                                             |
|      You have a (more or less) 'large supercell' and for larger cells       |
|      it might be more efficient to use real space projection operators      |
|      So try LREAL= Auto  in the INCAR   file.                               |
|      Mind: If you want to do a very accurate calculations keep the          |
|      reciprocal projection scheme          (i.e. LREAL=.FALSE.)             |
|                                                                             |
 ----------------------------------------------------------------------------- 

 LDA part: xc-table for Pade appr. of Perdew
 POSCAR, INCAR and KPOINTS ok, starting setup
 FFT: planning ...
 WAVECAR not read
 WARNING: random wavefunctions but no delay for mixing, default for NELMDL
 entering main loop
       N       E                     dE             d eps       ncg     rms          rms(c)
DAV:   1     0.710072405507E+03    0.71007E+03   -0.83962E+04 12768   0.200E+03
DAV:   2    -0.253721042010E+03   -0.96379E+03   -0.92780E+03 15840   0.342E+02
DAV:   3    -0.312673624944E+03   -0.58953E+02   -0.58309E+02 15480   0.829E+01
DAV:   4    -0.313843168569E+03   -0.11695E+01   -0.11673E+01 15912   0.126E+01
DAV:   5    -0.313878035562E+03   -0.34867E-01   -0.34855E-01 16464   0.205E+00    0.221E+01
DAV:   6    -0.299416413555E+03    0.14462E+02   -0.14905E+01 14592   0.107E+01    0.116E+01
DAV:   7    -0.294823995404E+03    0.45924E+01   -0.15766E+01 14484   0.110E+01    0.197E+00
DAV:   8    -0.294895325510E+03   -0.71330E-01   -0.74720E-01 15072   0.217E+00    0.821E-01
DAV:   9    -0.294892148936E+03    0.31766E-02   -0.53307E-02 14856   0.798E-01    0.444E-01
DAV:  10    -0.294884407448E+03    0.77415E-02   -0.47680E-02 20160   0.524E-01    0.137E-01
DAV:  11    -0.294885342997E+03   -0.93555E-03   -0.11995E-02 14544   0.260E-01    0.102E-01
DAV:  12    -0.294885293459E+03    0.49538E-04   -0.13856E-03 15648   0.105E-01    0.941E-02
DAV:  13    -0.294885367991E+03   -0.74533E-04   -0.27072E-03 15276   0.777E-02    0.902E-02
DAV:  14    -0.294886090740E+03   -0.72275E-03   -0.54478E-03 20964   0.159E-01    0.109E-01
DAV:  15    -0.294885719458E+03    0.37128E-03   -0.34799E-04 15408   0.783E-02    0.964E-02
DAV:  16    -0.294885432646E+03    0.28681E-03   -0.57354E-04 21168   0.716E-02    0.488E-02
DAV:  17    -0.294885420512E+03    0.12134E-04   -0.43731E-04 14784   0.359E-02    0.460E-02
DAV:  18    -0.294885444266E+03   -0.23754E-04   -0.17128E-04 17196   0.214E-02    0.542E-02
DAV:  19    -0.294885426686E+03    0.17581E-04   -0.71825E-04 19872   0.287E-02    0.370E-02
DAV:  20    -0.294885418111E+03    0.85750E-05   -0.18630E-05 14460   0.754E-03    0.328E-02
DAV:  21    -0.294885430841E+03   -0.12731E-04   -0.23035E-05 17256   0.761E-03    0.388E-02
DAV:  22    -0.294885417738E+03    0.13103E-04   -0.14405E-05 16140   0.658E-03    0.326E-02
DAV:  23    -0.294885411882E+03    0.58557E-05   -0.48853E-06 17052   0.405E-03    0.265E-02
DAV:  24    -0.294885411821E+03    0.61508E-07   -0.23196E-07 14580   0.166E-03    0.262E-02
DAV:  25    -0.294885411860E+03   -0.39716E-07   -0.35955E-09  9156   0.202E-04    0.263E-02
DAV:  26    -0.294885411928E+03   -0.67949E-07   -0.10958E-08  9084   0.191E-04    0.264E-02
DAV:  27    -0.294885408745E+03    0.31831E-05   -0.78480E-06 15276   0.269E-03    0.138E-02
DAV:  28    -0.294885408219E+03    0.52637E-06   -0.74409E-06 15120   0.213E-03    0.551E-03
DAV:  29    -0.294885408730E+03   -0.51081E-06   -0.88545E-06 14496   0.164E-03    0.146E-02
DAV:  30    -0.294885408491E+03    0.23903E-06   -0.44326E-07 14964   0.986E-04    0.119E-02
DAV:  31    -0.294885408637E+03   -0.14597E-06   -0.14484E-05 13512   0.234E-03    0.143E-02
DAV:  32    -0.294885408133E+03    0.50368E-06   -0.46400E-06 14292   0.159E-03    0.184E-03
DAV:  33    -0.294885408223E+03   -0.90512E-07   -0.10156E-06  9408   0.760E-04    0.642E-03
DAV:  34    -0.294885408140E+03    0.83721E-07   -0.16840E-06 13824   0.820E-04    0.335E-03
DAV:  35    -0.294885408131E+03    0.88394E-08   -0.15147E-07  8748   0.407E-04    0.193E-03
DAV:  36    -0.294885408142E+03   -0.10735E-07   -0.26661E-07  8904   0.422E-04    0.393E-03
DAV:  37    -0.294885408137E+03    0.49449E-08   -0.15758E-08  9408   0.308E-04
   1 F= -.29983968E+03 E0= -.29983968E+03  d E =0.000000E+00
