  32  32   0   0
  0.9040271E+01  0.4934311E-09  0.4934311E-09  0.1372051E-08  0.5000000E-15
  1.000000000000000E-004
  CAR 
 graphite                                
     15.27130280    -17.12280966  301      4.47636248      1.00000000
    -17.123  0.0000E+00  0.0000E+00
    -17.015  0.0000E+00  0.0000E+00
    -16.907  0.0000E+00  0.0000E+00
    -16.799  0.0000E+00  0.0000E+00
    -16.691  0.0000E+00  0.0000E+00
    -16.583  0.0000E+00  0.0000E+00
    -16.475  0.0000E+00  0.0000E+00
    -16.367  0.0000E+00  0.0000E+00
    -16.259  0.0000E+00  0.0000E+00
    -16.151  0.0000E+00  0.0000E+00
    -16.043  0.0000E+00  0.0000E+00
    -15.935  0.0000E+00  0.0000E+00
    -15.827  0.0000E+00  0.0000E+00
    -15.719  0.0000E+00  0.0000E+00
    -15.611  0.0000E+00  0.0000E+00
    -15.503  0.0000E+00  0.0000E+00
    -15.395  0.0000E+00  0.0000E+00
    -15.287  0.0000E+00  0.0000E+00
    -15.179  0.0000E+00  0.0000E+00
    -15.071  0.1096E+01  0.2183E-01
    -14.963  0.2617E+01  0.2359E+00
    -14.855  0.4623E+01  0.6146E+00
    -14.747  0.4850E+01  0.1140E+01
    -14.639  0.4979E+01  0.1676E+01
    -14.531  0.4930E+01  0.2208E+01
    -14.423  0.4954E+01  0.2742E+01
    -14.315  0.4911E+01  0.3274E+01
    -14.207  0.4997E+01  0.3809E+01
    -14.099  0.4990E+01  0.4348E+01
    -13.991  0.4988E+01  0.4887E+01
    -13.883  0.5649E+01  0.5456E+01
    -13.775  0.5937E+01  0.6085E+01
    -13.667  0.6712E+01  0.6793E+01
    -13.559  0.4630E+01  0.7384E+01
    -13.451  0.1758E+01  0.7732E+01
    -13.343  0.3461E+01  0.7983E+01
    -13.236  0.4341E+01  0.8438E+01
    -13.128  0.4584E+01  0.8924E+01
    -13.020  0.6095E+01  0.9669E+01
    -12.912  0.6637E+01  0.1039E+02
    -12.804  0.4356E+01  0.1092E+02
    -12.696  0.4520E+01  0.1139E+02
    -12.588  0.4644E+01  0.1189E+02
    -12.480  0.4757E+01  0.1240E+02
    -12.372  0.5182E+01  0.1293E+02
    -12.264  0.5639E+01  0.1351E+02
    -12.156  0.5601E+01  0.1415E+02
    -12.048  0.5546E+01  0.1474E+02
    -11.940  0.5149E+01  0.1531E+02
    -11.832  0.4912E+01  0.1586E+02
    -11.724  0.4919E+01  0.1638E+02
    -11.616  0.5012E+01  0.1692E+02
    -11.508  0.5070E+01  0.1746E+02
    -11.400  0.5162E+01  0.1801E+02
    -11.292  0.5499E+01  0.1859E+02
    -11.184  0.5890E+01  0.1921E+02
    -11.076  0.5773E+01  0.1984E+02
    -10.968  0.5717E+01  0.2046E+02
    -10.860  0.5784E+01  0.2108E+02
    -10.752  0.5364E+01  0.2170E+02
    -10.644  0.4603E+01  0.2222E+02
    -10.536  0.5210E+01  0.2275E+02
    -10.428  0.5348E+01  0.2333E+02
    -10.320  0.5451E+01  0.2391E+02
    -10.212  0.5653E+01  0.2451E+02
    -10.104  0.5898E+01  0.2513E+02
     -9.996  0.7324E+01  0.2583E+02
     -9.888  0.1046E+02  0.2679E+02
     -9.780  0.7034E+01  0.2773E+02
     -9.672  0.5404E+01  0.2838E+02
     -9.564  0.6101E+01  0.2910E+02
     -9.456  0.3633E+01  0.2962E+02
     -9.348  0.3263E+01  0.2999E+02
     -9.240  0.2893E+01  0.3033E+02
     -9.132  0.2522E+01  0.3062E+02
     -9.024  0.2362E+01  0.3087E+02
     -8.916  0.3238E+01  0.3119E+02
     -8.808  0.2002E+01  0.3147E+02
     -8.700  0.1514E+01  0.3163E+02
     -8.592  0.2409E+01  0.3184E+02
     -8.484  0.5883E+01  0.3222E+02
     -8.376  0.4614E+01  0.3299E+02
     -8.268  0.3878E+01  0.3343E+02
     -8.160  0.4208E+01  0.3387E+02
     -8.052  0.7048E+01  0.3446E+02
     -7.944  0.6176E+01  0.3525E+02
     -7.836  0.7244E+01  0.3597E+02
     -7.729  0.8329E+01  0.3682E+02
     -7.621  0.8409E+01  0.3777E+02
     -7.513  0.6330E+01  0.3854E+02
     -7.405  0.6069E+01  0.3921E+02
     -7.297  0.5810E+01  0.3985E+02
     -7.189  0.5572E+01  0.4046E+02
     -7.081  0.5377E+01  0.4105E+02
     -6.973  0.5196E+01  0.4162E+02
     -6.865  0.5003E+01  0.4217E+02
     -6.757  0.4859E+01  0.4270E+02
     -6.649  0.4830E+01  0.4323E+02
     -6.541  0.4800E+01  0.4375E+02
     -6.433  0.4668E+01  0.4426E+02
     -6.325  0.4433E+01  0.4475E+02
     -6.217  0.4379E+01  0.4523E+02
     -6.109  0.4056E+01  0.4564E+02
     -6.001  0.4188E+01  0.4608E+02
     -5.893  0.4819E+01  0.4657E+02
     -5.785  0.5613E+01  0.4713E+02
     -5.677  0.6408E+01  0.4778E+02
     -5.569  0.9841E+01  0.4863E+02
     -5.461  0.8969E+01  0.4971E+02
     -5.353  0.6686E+01  0.5056E+02
     -5.245  0.4403E+01  0.5116E+02
     -5.137  0.2653E+01  0.5152E+02
     -5.029  0.2898E+01  0.5181E+02
     -4.921  0.4087E+01  0.5218E+02
     -4.813  0.5406E+01  0.5270E+02
     -4.705  0.6909E+01  0.5335E+02
     -4.597  0.8157E+01  0.5419E+02
     -4.489  0.7036E+01  0.5502E+02
     -4.381  0.5775E+01  0.5571E+02
     -4.273  0.6451E+01  0.5633E+02
     -4.165  0.7363E+01  0.5714E+02
     -4.057  0.6847E+01  0.5790E+02
     -3.949  0.6330E+01  0.5862E+02
     -3.841  0.6343E+01  0.5929E+02
     -3.733  0.6118E+01  0.5996E+02
     -3.625  0.1207E+02  0.6099E+02
     -3.517  0.8996E+01  0.6215E+02
     -3.409  0.8000E+01  0.6308E+02
     -3.301  0.7070E+01  0.6389E+02
     -3.193  0.6766E+01  0.6463E+02
     -3.085  0.7432E+01  0.6539E+02
     -2.977  0.8473E+01  0.6625E+02
     -2.869  0.1004E+02  0.6723E+02
     -2.761  0.1435E+02  0.6852E+02
     -2.653  0.1306E+02  0.7008E+02
     -2.545  0.1181E+02  0.7137E+02
     -2.437  0.1295E+02  0.7273E+02
     -2.329  0.1389E+02  0.7410E+02
     -2.222  0.1373E+02  0.7566E+02
     -2.114  0.1428E+02  0.7709E+02
     -2.006  0.1343E+02  0.7896E+02
     -1.898  0.1290E+02  0.8022E+02
     -1.790  0.1619E+02  0.8227E+02
     -1.682  0.1852E+02  0.8418E+02
     -1.574  0.1532E+02  0.8607E+02
     -1.466  0.1214E+02  0.8756E+02
     -1.358  0.1032E+02  0.8876E+02
     -1.250  0.9286E+01  0.8981E+02
     -1.142  0.7683E+01  0.9076E+02
     -1.034  0.1051E+02  0.9173E+02
     -0.926  0.1314E+02  0.9305E+02
     -0.818  0.1365E+02  0.9447E+02
     -0.710  0.1049E+02  0.9599E+02
     -0.602  0.9746E+01  0.9703E+02
     -0.494  0.1096E+02  0.9815E+02
     -0.386  0.1039E+02  0.9927E+02
     -0.278  0.1110E+02  0.1004E+03
     -0.170  0.9504E+01  0.1015E+03
     -0.062  0.9248E+01  0.1025E+03
      0.046  0.9612E+01  0.1036E+03
      0.154  0.9672E+01  0.1047E+03
      0.262  0.9318E+01  0.1057E+03
      0.370  0.9192E+01  0.1067E+03
      0.478  0.9472E+01  0.1077E+03
      0.586  0.9440E+01  0.1087E+03
      0.694  0.9301E+01  0.1097E+03
      0.802  0.9319E+01  0.1108E+03
      0.910  0.9069E+01  0.1117E+03
      1.018  0.9447E+01  0.1127E+03
      1.126  0.9570E+01  0.1138E+03
      1.234  0.9935E+01  0.1148E+03
      1.342  0.1032E+02  0.1159E+03
      1.450  0.7728E+01  0.1169E+03
      1.558  0.6674E+01  0.1176E+03
      1.666  0.5968E+01  0.1183E+03
      1.774  0.4994E+01  0.1189E+03
      1.882  0.3892E+01  0.1194E+03
      1.990  0.3849E+01  0.1198E+03
      2.098  0.6120E+01  0.1203E+03
      2.206  0.8575E+01  0.1211E+03
      2.314  0.5992E+01  0.1221E+03
      2.422  0.9473E+01  0.1229E+03
      2.530  0.6731E+01  0.1238E+03
      2.638  0.5242E+01  0.1244E+03
      2.746  0.4440E+01  0.1249E+03
      2.854  0.3774E+01  0.1254E+03
      2.962  0.3291E+01  0.1257E+03
      3.070  0.3135E+01  0.1261E+03
      3.178  0.2909E+01  0.1264E+03
      3.285  0.2473E+01  0.1267E+03
      3.393  0.2107E+01  0.1269E+03
      3.501  0.1868E+01  0.1272E+03
      3.609  0.1631E+01  0.1274E+03
      3.717  0.1392E+01  0.1275E+03
      3.825  0.1156E+01  0.1277E+03
      3.933  0.9409E+00  0.1278E+03
      4.041  0.7178E+00  0.1279E+03
      4.149  0.5179E+00  0.1279E+03
      4.257  0.3327E+00  0.1280E+03
      4.365  0.1598E+00  0.1280E+03
      4.473  0.7989E-03  0.1280E+03
      4.581  0.1093E+00  0.1280E+03
      4.689  0.2411E+00  0.1280E+03
      4.797  0.3869E+00  0.1281E+03
      4.905  0.5500E+00  0.1281E+03
      5.013  0.7377E+00  0.1282E+03
      5.121  0.9732E+00  0.1283E+03
      5.229  0.1329E+01  0.1284E+03
      5.337  0.1705E+01  0.1286E+03
      5.445  0.2051E+01  0.1288E+03
      5.553  0.2426E+01  0.1290E+03
      5.661  0.3054E+01  0.1293E+03
      5.769  0.3256E+01  0.1296E+03
      5.877  0.4190E+01  0.1300E+03
      5.985  0.6483E+01  0.1306E+03
      6.093  0.8026E+01  0.1316E+03
      6.201  0.8463E+01  0.1325E+03
      6.309  0.8054E+01  0.1334E+03
      6.417  0.7795E+01  0.1343E+03
      6.525  0.6422E+01  0.1351E+03
      6.633  0.6158E+01  0.1357E+03
      6.741  0.5661E+01  0.1364E+03
      6.849  0.5072E+01  0.1370E+03
      6.957  0.4532E+01  0.1375E+03
      7.065  0.3752E+01  0.1379E+03
      7.173  0.3583E+01  0.1383E+03
      7.281  0.3817E+01  0.1387E+03
      7.389  0.4349E+01  0.1391E+03
      7.497  0.4656E+01  0.1396E+03
      7.605  0.4693E+01  0.1402E+03
      7.713  0.4530E+01  0.1406E+03
      7.821  0.4381E+01  0.1411E+03
      7.929  0.4223E+01  0.1416E+03
      8.037  0.4066E+01  0.1420E+03
      8.145  0.3889E+01  0.1425E+03
      8.253  0.3738E+01  0.1429E+03
      8.361  0.3611E+01  0.1433E+03
      8.469  0.3527E+01  0.1437E+03
      8.577  0.3454E+01  0.1440E+03
      8.684  0.3499E+01  0.1444E+03
      8.792  0.3730E+01  0.1448E+03
      8.900  0.3834E+01  0.1452E+03
      9.008  0.3989E+01  0.1456E+03
      9.116  0.4129E+01  0.1461E+03
      9.224  0.4222E+01  0.1465E+03
      9.332  0.4224E+01  0.1470E+03
      9.440  0.4033E+01  0.1474E+03
      9.548  0.4004E+01  0.1479E+03
      9.656  0.3975E+01  0.1483E+03
      9.764  0.3993E+01  0.1487E+03
      9.872  0.4019E+01  0.1492E+03
      9.980  0.4105E+01  0.1496E+03
     10.088  0.4237E+01  0.1500E+03
     10.196  0.4363E+01  0.1505E+03
     10.304  0.4377E+01  0.1510E+03
     10.412  0.5119E+01  0.1515E+03
     10.520  0.5601E+01  0.1521E+03
     10.628  0.5168E+01  0.1527E+03
     10.736  0.4622E+01  0.1532E+03
     10.844  0.4494E+01  0.1537E+03
     10.952  0.4439E+01  0.1543E+03
     11.060  0.3597E+01  0.1546E+03
     11.168  0.4041E+01  0.1551E+03
     11.276  0.4045E+01  0.1555E+03
     11.384  0.3002E+01  0.1559E+03
     11.492  0.2715E+01  0.1562E+03
     11.600  0.3539E+01  0.1565E+03
     11.708  0.5120E+01  0.1570E+03
     11.816  0.6654E+01  0.1577E+03
     11.924  0.1000E+02  0.1585E+03
     12.032  0.1245E+02  0.1598E+03
     12.140  0.1362E+02  0.1612E+03
     12.248  0.1390E+02  0.1627E+03
     12.356  0.1102E+02  0.1641E+03
     12.464  0.8548E+01  0.1651E+03
     12.572  0.6658E+01  0.1659E+03
     12.680  0.5572E+01  0.1666E+03
     12.788  0.5115E+01  0.1672E+03
     12.896  0.2914E+01  0.1676E+03
     13.004  0.1706E+01  0.1678E+03
     13.112  0.6384E+00  0.1680E+03
     13.220  0.1335E-01  0.1680E+03
     13.328  0.0000E+00  0.1680E+03
     13.436  0.0000E+00  0.1680E+03
     13.544  0.0000E+00  0.1680E+03
     13.652  0.0000E+00  0.1680E+03
     13.760  0.0000E+00  0.1680E+03
     13.868  0.0000E+00  0.1680E+03
     13.976  0.0000E+00  0.1680E+03
     14.084  0.0000E+00  0.1680E+03
     14.191  0.0000E+00  0.1680E+03
     14.299  0.0000E+00  0.1680E+03
     14.407  0.0000E+00  0.1680E+03
     14.515  0.0000E+00  0.1680E+03
     14.623  0.0000E+00  0.1680E+03
     14.731  0.0000E+00  0.1680E+03
     14.839  0.0000E+00  0.1680E+03
     14.947  0.0000E+00  0.1680E+03
     15.055  0.0000E+00  0.1680E+03
     15.163  0.0000E+00  0.1680E+03
     15.271  0.0000E+00  0.1680E+03
