   32   32    1    1
  0.9040271E+01  0.4934311E-09  0.4934311E-09  0.1372051E-08  0.5000000E-15
  1.000000000000000E-004
  CAR 
 graphite                                
    128    163     84
 
  0.0000000E+00  0.0000000E+00  0.0000000E+00  0.3086420E-02
    1      -15.122810
    2      -15.000394
    3      -15.000011
    4      -14.870321
    5       -9.814109
    6       -9.811588
    7       -9.809388
    8       -9.765506
    9       -9.761698
   10       -9.761372
   11       -9.760902
   12       -9.760884
   13       -9.757121
   14       -9.719952
   15       -9.718130
   16       -9.715884
   17       -8.743337
   18       -8.741836
   19       -8.740796
   20       -8.716585
   21       -8.714278
   22       -8.713238
   23       -8.712768
   24       -8.712754
   25       -8.710166
   26       -8.672489
   27       -8.671164
   28       -8.669287
   29       -3.924239
   30       -3.129503
   31       -3.127958
   32       -2.169908
   33       -1.916571
   34       -1.914150
   35       -1.913113
   36       -1.895319
   37       -1.892960
   38       -1.892954
   39       -1.891675
   40       -1.889806
   41       -1.889109
   42       -1.871391
   43       -1.868948
   44       -1.867788
   45        1.469028
   46        1.473872
   47        1.479655
   48        1.480175
   49        1.483620
   50        1.484454
   51        1.490050
   52        1.494459
   53        1.771664
   54        1.773687
   55        1.775464
   56        2.123089
   57        2.126628
   58        2.126765
   59        2.126875
   60        2.126996
   61        2.130395
   62        2.380973
   63        2.382507
   64        2.384008
   65        5.984933
   66        5.986322
   67        5.987527
   68        6.131442
   69        6.135639
   70        6.137180
   71        6.137631
   72        6.137964
   73        6.142338
   74        6.602567
   75        6.604527
   76        6.606571
   77        8.610165
   78       11.075999
   79       11.079069
   80       11.696265
   81       11.700025
   82       11.703108
   83       11.861143
   84       11.863339
 
  0.1111111E+00  0.6938894E-17  0.0000000E+00  0.6172840E-02
    1      -15.049247
    2      -14.927408
    3      -14.927025
    4      -14.797959
    5      -10.600002
    6      -10.513545
    7      -10.513289
    8      -10.423991
    9      -10.057923
   10      -10.055430
   11       -9.984664
   12       -9.982215
   13       -9.981480
   14       -9.979991
   15       -9.908446
   16       -9.905995
   17       -8.433051
   18       -8.431665
   19       -8.373808
   20       -8.373420
   21       -8.372229
   22       -8.370438
   23       -8.307946
   24       -8.306365
   25       -7.920496
   26       -7.853867
   27       -7.851876
   28       -7.782210
   29       -3.835086
   30       -3.042496
   31       -3.040955
   32       -2.142324
   33       -2.139497
   34       -2.118397
   35       -2.116606
   36       -2.114395
   37       -2.113524
   38       -2.091696
   39       -2.089011
   40       -2.085879
   41       -1.841987
   42       -1.820842
   43       -1.818481
   44       -1.797017
   45        1.168788
   46        1.180145
   47        1.185189
   48        1.192908
   49        1.196947
   50        1.316609
   51        1.324679
   52        1.328538
   53        1.338811
   54        1.660060
   55        1.662445
   56        1.700902
   57        1.702988
   58        2.071480
   59        2.075031
   60        2.075185
   61        2.076111
   62        2.206720
   63        2.421707
   64        2.423701
   65        6.070538
   66        6.071894
   67        6.265572
   68        6.267163
   69        6.268216
   70        6.272465
   71        6.376884
   72        6.673254
   73        6.677766
   74        6.737431
   75        6.739723
   76        7.195223
   77        8.699699
   78       11.155600
   79       11.158658
   80       11.739230
   81       11.900259
   82       11.901160
   83       12.034676
   84       12.039698
 
  0.2222222E+00 -0.1387779E-16  0.0000000E+00  0.6172840E-02
    1      -14.829091
    2      -14.708828
    3      -14.708444
    4      -14.581194
    5      -11.608194
    6      -11.511578
    7      -11.511230
    8      -11.410582
    9      -10.403382
   10      -10.401375
   11      -10.319535
   12      -10.317629
   13      -10.317072
   14      -10.315640
   15      -10.230626
   16      -10.228595
   17       -7.751653
   18       -7.750039
   19       -7.686759
   20       -7.686418
   21       -7.685027
   22       -7.683447
   23       -7.617855
   24       -7.616126
   25       -6.597631
   26       -6.535505
   27       -6.533603
   28       -6.469393
   29       -3.568426
   30       -2.782588
   31       -2.781063
   32       -2.747711
   33       -2.745120
   34       -2.717877
   35       -2.716099
   36       -2.714191
   37       -2.713214
   38       -2.684897
   39       -2.682397
   40       -1.835527
   41       -1.627435
   42       -1.606632
   43       -1.604192
   44       -1.583225
   45        0.183631
   46        0.346438
   47        0.362555
   48        0.366835
   49        0.382726
   50        0.812781
   51        0.814364
   52        0.898128
   53        0.909813
   54        0.913782
   55        0.926401
   56        1.446363
   57        1.448580
   58        1.523414
   59        1.950230
   60        1.953782
   61        1.953945
   62        1.954916
   63        2.456841
   64        2.458998
   65        6.331426
   66        6.333185
   67        6.598669
   68        6.600011
   69        6.601065
   70        6.605156
   71        7.045061
   72        7.047457
   73        7.521491
   74        7.894202
   75        7.897983
   76        8.406512
   77        8.968931
   78       11.393546
   79       11.396589
   80       11.853351
   81       12.008969
   82       12.010048
   83       12.146589
   84       12.855887
 
  0.3333333E+00 -0.2775558E-16  0.0000000E+00  0.6172840E-02
    1      -14.463385
    2      -14.345798
    3      -14.345411
    4      -14.221168
    5      -12.519057
    6      -12.415625
    7      -12.415246
    8      -12.306876
    9      -10.659499
   10      -10.657704
   11      -10.571613
   12      -10.569854
   13      -10.569513
   14      -10.568032
   15      -10.478488
   16      -10.476660
   17       -6.945415
   18       -6.943581
   19       -6.885770
   20       -6.885352
   21       -6.883971
   22       -6.882072
   23       -6.823297
   24       -6.821329
   25       -5.167118
   26       -5.113477
   27       -5.111341
   28       -5.056443
   29       -3.561961
   30       -3.559684
   31       -3.526504
   32       -3.524497
   33       -3.523233
   34       -3.521980
   35       -3.487379
   36       -3.485175
   37       -3.126958
   38       -2.352893
   39       -2.351384
   40       -1.422535
   41       -1.278848
   42       -1.259171
   43       -1.256566
   44       -1.236299
   45       -0.838504
   46       -0.830594
   47       -0.810764
   48       -0.807860
   49       -0.783048
   50       -0.139664
   51       -0.138247
   52        0.336675
   53        0.351349
   54        0.355029
   55        0.370320
   56        0.670047
   57        1.259721
   58        1.261818
   59        1.826105
   60        1.829635
   61        1.829816
   62        1.830843
   63        2.445741
   64        2.447992
   65        6.698115
   66        6.700276
   67        6.988357
   68        6.989282
   69        6.990200
   70        6.994209
   71        7.357437
   72        7.359938
   73        9.026945
   74        9.368971
   75        9.373278
   76        9.418942
   77        9.818882
   78       11.745899
   79       11.776102
   80       11.779288
   81       12.090774
   82       12.173714
   83       12.175041
   84       12.429182
 
  0.4444444E+00 -0.2775558E-16  0.0000000E+00  0.6172840E-02
    1      -13.954100
    2      -13.840172
    3      -13.839774
    4      -13.719704
    5      -13.304214
    6      -13.195038
    7      -13.194664
    8      -13.079776
    9      -10.791729
   10      -10.790022
   11      -10.702452
   12      -10.700678
   13      -10.700561
   14      -10.698991
   15      -10.607446
   16      -10.605704
   17       -6.200345
   18       -6.198490
   19       -6.157790
   20       -6.157151
   21       -6.156594
   22       -6.153353
   23       -6.114278
   24       -6.112024
   25       -4.312162
   26       -4.310367
   27       -4.283240
   28       -4.280500
   29       -4.280148
   30       -4.278711
   31       -4.247783
   32       -4.246224
   33       -3.689236
   34       -3.645361
   35       -3.642854
   36       -3.597930
   37       -2.515884
   38       -2.220052
   39       -2.186041
   40       -2.182962
   41       -2.147972
   42       -1.759260
   43       -1.757904
   44       -1.744451
   45       -1.014219
   46       -1.012820
   47       -0.854798
   48       -0.813528
   49       -0.794764
   50       -0.791930
   51       -0.772854
   52       -0.259205
   53       -0.242188
   54       -0.238849
   55       -0.221198
   56       -0.147106
   57        1.155989
   58        1.158029
   59        1.751411
   60        1.754923
   61        1.755114
   62        1.756181
   63        2.424764
   64        2.427051
   65        6.985662
   66        6.988089
   67        7.254302
   68        7.254791
   69        7.255243
   70        7.259440
   71        7.534678
   72        7.537189
   73       10.044208
   74       10.643844
   75       10.839619
   76       10.905908
   77       10.909596
   78       11.281342
   79       12.122202
   80       12.132045
   81       12.229292
   82       12.303493
   83       12.351736
   84       12.353738
 
 -0.8470329E-21  0.1111111E+00  0.0000000E+00  0.6172840E-02
    1      -15.049245
    2      -14.927406
    3      -14.927024
    4      -14.797957
    5      -10.600109
    6      -10.513704
    7      -10.513370
    8      -10.424127
    9      -10.057840
   10      -10.055177
   11       -9.984427
   12       -9.982215
   13       -9.981486
   14       -9.979493
   15       -9.908330
   16       -9.905716
   17       -8.434228
   18       -8.431844
   19       -8.375968
   20       -8.373790
   21       -8.372215
   22       -8.370314
   23       -8.308979
   24       -8.306392
   25       -7.919499
   26       -7.852028
   27       -7.851815
   28       -7.781298
   29       -3.835090
   30       -3.042502
   31       -3.040959
   32       -2.140845
   33       -2.139727
   34       -2.116616
   35       -2.116430
   36       -2.114029
   37       -2.113523
   38       -2.090301
   39       -2.089200
   40       -2.085881
   41       -1.843028
   42       -1.820904
   43       -1.820815
   44       -1.798435
   45        1.173798
   46        1.182696
   47        1.185182
   48        1.192709
   49        1.198363
   50        1.315318
   51        1.324685
   52        1.324770
   53        1.334098
   54        1.660507
   55        1.663129
   56        1.700650
   57        1.701379
   58        2.072393
   59        2.075022
   60        2.075178
   61        2.077686
   62        2.205663
   63        2.422113
   64        2.424467
   65        6.069431
   66        6.071104
   67        6.263242
   68        6.266437
   69        6.268366
   70        6.271249
   71        6.378682
   72        6.675977
   73        6.678518
   74        6.736081
   75        6.738902
   76        7.196975
   77        8.699694
   78       11.155580
   79       11.158638
   80       11.738605
   81       11.899700
   82       11.900408
   83       12.035806
   84       12.058350
 
  0.1111111E+00  0.1111111E+00  0.0000000E+00  0.6172840E-02
    1      -14.902447
    2      -14.781605
    3      -14.781221
    4      -14.653368
    5      -11.063137
    6      -11.060200
    7      -10.972626
    8      -10.969571
    9      -10.969551
   10      -10.966728
   11      -10.875243
   12      -10.872260
   13       -9.624213
   14       -9.575652
   15       -9.574072
   16       -9.532413
   17       -8.558185
   18       -8.532021
   19       -8.529018
   20       -8.490142
   21       -7.239730
   22       -7.236479
   23       -7.176000
   24       -7.171899
   25       -7.171878
   26       -7.169678
   27       -7.105480
   28       -7.102361
   29       -3.657130
   30       -2.868978
   31       -2.867445
   32       -2.820831
   33       -2.790646
   34       -2.788249
   35       -2.757417
   36       -1.996920
   37       -1.994583
   38       -1.973136
   39       -1.971566
   40       -1.971559
   41       -1.967977
   42       -1.947441
   43       -1.944440
   44       -1.918831
   45        0.639569
   46        0.650433
   47        0.654853
   48        0.663452
   49        0.764591
   50        0.766323
   51        1.004307
   52        1.010974
   53        1.014749
   54        1.024658
   55        1.341658
   56        1.343324
   57        1.343444
   58        1.346479
   59        1.968547
   60        1.970849
   61        2.038966
   62        2.389828
   63        2.392494
   64        2.642741
   65        5.963428
   66        6.061040
   67        6.065609
   68        6.440589
   69        6.868371
   70        6.870867
   71        7.213518
   72        7.218370
   73        7.218653
   74        7.220223
   75        7.722393
   76        7.725151
   77        8.879244
   78       11.315277
   79       11.318323
   80       12.109289
   81       12.113281
   82       12.269228
   83       12.272829
   84       12.274404
 
  0.2222222E+00  0.1111111E+00  0.0000000E+00  0.6172840E-02
    1      -14.609523
    2      -14.490809
    3      -14.490422
    4      -14.364978
    5      -12.026206
    6      -11.926448
    7      -11.926081
    8      -11.821794
    9      -11.402210
   10      -11.307354
   11      -11.307066
   12      -11.207926
   13       -9.672458
   14       -9.601371
   15       -9.600438
   16       -9.528974
   17       -8.087310
   18       -8.032902
   19       -8.030466
   20       -7.971083
   21       -6.456509
   22       -6.396300
   23       -6.396073
   24       -6.334232
   25       -5.859676
   26       -5.802363
   27       -5.800460
   28       -5.741737
   29       -3.725880
   30       -3.688674
   31       -3.686333
   32       -3.648208
   33       -3.303021
   34       -2.524147
   35       -2.522811
   36       -2.522021
   37       -2.492634
   38       -2.492129
   39       -2.461879
   40       -1.709168
   41       -1.686416
   42       -1.684039
   43       -1.660913
   44       -1.587025
   45       -0.311428
   46       -0.294787
   47       -0.289490
   48       -0.274385
   49       -0.267965
   50        0.393424
   51        0.394755
   52        0.433210
   53        0.460301
   54        0.471039
   55        0.475666
   56        0.488633
   57        1.056160
   58        1.057288
   59        1.159140
   60        1.759321
   61        2.179578
   62        2.591675
   63        2.594267
   64        2.940297
   65        5.947570
   66        6.067918
   67        6.072071
   68        6.386901
   69        7.446927
   70        7.786254
   71        7.788298
   72        8.218778
   73        8.226971
   74        8.583847
   75        8.587157
   76        9.046398
   77        9.239307
   78       11.632707
   79       11.635788
   80       12.206497
   81       12.396561
   82       12.410103
   83       12.411132
   84       12.743826
 
  0.3333333E+00  0.1111111E+00  0.0000000E+00  0.6172840E-02
    1      -14.171985
    2      -14.056456
    3      -14.056063
    4      -13.934226
    5      -12.874806
    6      -12.768738
    7      -12.768366
    8      -12.657040
    9      -11.609807
   10      -11.513235
   11      -11.512945
   12      -11.411902
   13       -9.815856
   14       -9.736075
   15       -9.735583
   16       -9.653130
   17       -7.322944
   18       -7.268725
   19       -7.266455
   20       -7.210378
   21       -5.659710
   22       -5.610413
   23       -5.609550
   24       -5.559420
   25       -4.660490
   26       -4.621702
   27       -4.619180
   28       -4.578524
   29       -4.413031
   30       -4.365113
   31       -4.362981
   32       -4.313924
   33       -3.220940
   34       -3.189184
   35       -3.187881
   36       -3.154691
   37       -2.776516
   38       -2.012570
   39       -2.011035
   40       -1.553624
   41       -1.526258
   42       -1.522222
   43       -1.495669
   44       -1.293401
   45       -1.272002
   46       -1.269513
   47       -1.247757
   48       -1.240335
   49       -1.096138
   50       -0.529118
   51       -0.527748
   52       -0.163550
   53       -0.147798
   54       -0.143781
   55       -0.127233
   56        0.226487
   57        0.309892
   58        0.873050
   59        0.874320
   60        1.617644
   61        2.184094
   62        2.681406
   63        2.683603
   64        3.187262
   65        5.962117
   66        6.185343
   67        6.188538
   68        6.483307
   69        7.953400
   70        8.240936
   71        8.242579
   72        8.558529
   73        9.775907
   74        9.790284
   75       10.088106
   76       10.091197
   77       10.473963
   78       11.371853
   79       12.076083
   80       12.080408
   81       12.503392
   82       12.577467
   83       12.578677
   84       12.805302
 
  0.4444444E+00  0.1111111E+00  0.0000000E+00  0.6172840E-02
    1      -13.593812
    2      -13.591061
    3      -13.483761
    4      -13.480856
    5      -13.480733
    6      -13.478226
    7      -13.364906
    8      -13.362109
    9      -11.679596
   10      -11.582394
   11      -11.582104
   12      -11.480534
   13       -9.871448
   14       -9.789967
   15       -9.789623
   16       -9.705117
   17       -6.821141
   18       -6.786984
   19       -6.784899
   20       -6.752430
   21       -5.185970
   22       -5.178858
   23       -5.159017
   24       -5.157995
   25       -5.156283
   26       -5.155055
   27       -5.130946
   28       -5.128339
   29       -3.643097
   30       -3.624684
   31       -3.621564
   32       -3.599712
   33       -2.956178
   34       -2.952689
   35       -2.919604
   36       -2.913999
   37       -2.913947
   38       -2.913794
   39       -2.876750
   40       -2.874207
   41       -2.085740
   42       -2.083505
   43       -1.343781
   44       -1.341401
   45       -1.341201
   46       -1.338308
   47       -0.769211
   48       -0.765849
   49       -0.749420
   50       -0.747853
   51       -0.747783
   52       -0.741005
   53       -0.727770
   54       -0.720699
   55       -0.458209
   56       -0.455666
   57        0.155983
   58        0.810141
   59        0.811540
   60        1.567829
   61        2.174540
   62        2.703765
   63        2.705436
   64        3.275320
   65        5.981926
   66        6.251701
   67        6.253779
   68        6.537668
   69        8.172271
   70        8.419299
   71        8.421054
   72        8.667540
   73       10.492672
   74       10.493588
   75       11.372405
   76       11.375644
   77       11.571059
   78       11.578242
   79       11.578559
   80       11.582570
   81       11.895630
   82       11.899076
   83       12.602233
   84       12.606973
 
 -0.4444444E+00  0.1111111E+00  0.0000000E+00  0.6172840E-02
    1      -14.172072
    2      -14.056537
    3      -14.056154
    4      -13.934311
    5      -12.874668
    6      -12.768606
    7      -12.768221
    8      -12.656902
    9      -11.610016
   10      -11.513443
   11      -11.513154
   12      -11.412110
   13       -9.815495
   14       -9.735606
   15       -9.735313
   16       -9.652749
   17       -7.322205
   18       -7.267192
   19       -7.266620
   20       -7.209756
   21       -5.660836
   22       -5.612201
   23       -5.609854
   24       -5.560375
   25       -4.661564
   26       -4.622046
   27       -4.621178
   28       -4.579770
   29       -4.413360
   30       -4.365595
   31       -4.363117
   32       -4.314217
   33       -3.219688
   34       -3.188648
   35       -3.185579
   36       -3.153155
   37       -2.776614
   38       -2.012666
   39       -2.011132
   40       -1.553209
   41       -1.525419
   42       -1.522708
   43       -1.495648
   44       -1.293140
   45       -1.271908
   46       -1.268987
   47       -1.247359
   48       -1.240191
   49       -1.096233
   50       -0.528994
   51       -0.527587
   52       -0.163503
   53       -0.147298
   54       -0.144646
   55       -0.127982
   56        0.226251
   57        0.310012
   58        0.872665
   59        0.874183
   60        1.617362
   61        2.184498
   62        2.682405
   63        2.683534
   64        3.187859
   65        5.962075
   66        6.186192
   67        6.187765
   68        6.483309
   69        7.952933
   70        8.240135
   71        8.242654
   72        8.558358
   73        9.775765
   74        9.790153
   75       10.087811
   76       10.091233
   77       10.473872
   78       11.372051
   79       12.075979
   80       12.080302
   81       12.503084
   82       12.576833
   83       12.578873
   84       12.807479
 
 -0.3333333E+00  0.1111111E+00  0.0000000E+00  0.6172840E-02
    1      -14.609584
    2      -14.490866
    3      -14.490486
    4      -14.365038
    5      -12.026038
    6      -11.926282
    7      -11.925909
    8      -11.821623
    9      -11.402639
   10      -11.307784
   11      -11.307492
   12      -11.208352
   13       -9.671633
   14       -9.600181
   15       -9.599924
   16       -9.528088
   17       -8.086832
   18       -8.031328
   19       -8.031155
   20       -7.970679
   21       -6.457602
   22       -6.398167
   23       -6.396296
   24       -6.335225
   25       -5.859992
   26       -5.802766
   27       -5.800671
   28       -5.742036
   29       -3.727315
   30       -3.689168
   31       -3.688869
   32       -3.649786
   33       -3.303092
   34       -2.524213
   35       -2.522722
   36       -2.520551
   37       -2.491965
   38       -2.489240
   39       -2.459993
   40       -1.708963
   41       -1.686291
   42       -1.683715
   43       -1.660658
   44       -1.587093
   45       -0.310558
   46       -0.293900
   47       -0.290939
   48       -0.275168
   49       -0.267606
   50        0.393555
   51        0.394975
   52        0.432630
   53        0.461150
   54        0.472524
   55        0.474930
   56        0.487170
   57        1.055400
   58        1.057041
   59        1.159250
   60        1.758762
   61        2.180367
   62        2.593532
   63        2.594134
   64        2.941281
   65        5.947643
   66        6.069043
   67        6.071010
   68        6.386812
   69        7.446301
   70        7.785119
   71        7.788349
   72        8.218611
   73        8.226634
   74        8.583505
   75        8.587169
   76        9.046262
   77        9.239213
   78       11.632606
   79       11.635683
   80       12.206450
   81       12.396490
   82       12.409664
   83       12.411238
   84       12.743705
 
 -0.2222222E+00  0.1111111E+00  0.0000000E+00  0.6172840E-02
    1      -14.902484
    2      -14.781639
    3      -14.781260
    4      -14.653405
    5      -11.062254
    6      -11.061428
    7      -10.970436
    8      -10.970120
    9      -10.969577
   10      -10.969276
   11      -10.874462
   12      -10.873624
   13       -9.622744
   14       -9.573506
   15       -9.573308
   16       -9.530984
   17       -8.558041
   18       -8.530670
   19       -8.530516
   20       -8.490371
   21       -7.238746
   22       -7.238446
   23       -7.174063
   24       -7.173628
   25       -7.172137
   26       -7.171891
   27       -7.104703
   28       -7.104394
   29       -3.657173
   30       -2.869021
   31       -2.867487
   32       -2.822434
   33       -2.791234
   34       -2.791075
   35       -2.759204
   36       -1.994943
   37       -1.994462
   38       -1.971473
   39       -1.971089
   40       -1.969086
   41       -1.968448
   42       -1.945221
   43       -1.944783
   44       -1.918873
   45        0.641008
   46        0.651178
   47        0.651714
   48        0.661671
   49        0.764346
   50        0.766027
   51        1.006233
   52        1.014103
   53        1.014173
   54        1.022803
   55        1.341553
   56        1.343355
   57        1.343487
   58        1.345280
   59        1.968419
   60        1.970257
   61        2.040045
   62        2.392134
   63        2.392371
   64        2.643847
   65        5.963682
   66        6.062184
   67        6.064595
   68        6.440447
   69        6.868644
   70        6.869888
   71        7.214145
   72        7.216619
   73        7.218212
   74        7.220411
   75        7.722850
   76        7.724180
   77        8.879186
   78       11.315209
   79       11.318255
   80       12.111562
   81       12.114765
   82       12.273181
   83       12.274331
   84       12.275730
 
 -0.1111111E+00  0.1111111E+00  0.0000000E+00  0.6172840E-02
    1      -15.049257
    2      -14.927417
    3      -14.927037
    4      -14.797969
    5      -10.600992
    6      -10.514659
    7      -10.514193
    8      -10.425021
    9      -10.056940
   10      -10.054708
   11       -9.983374
   12       -9.981322
   13       -9.981309
   14       -9.978858
   15       -9.907461
   16       -9.905186
   17       -8.433920
   18       -8.432003
   19       -8.375543
   20       -8.372413
   21       -8.372394
   22       -8.371852
   23       -8.308609
   24       -8.306838
   25       -7.920128
   26       -7.853433
   27       -7.851609
   28       -7.781866
   29       -3.835104
   30       -3.042516
   31       -3.040973
   32       -2.142221
   33       -2.140119
   34       -2.117861
   35       -2.116579
   36       -2.116572
   37       -2.113176
   38       -2.091949
   39       -2.089234
   40       -2.085891
   41       -1.841322
   42       -1.820253
   43       -1.817686
   44       -1.796418
   45        1.172475
   46        1.181699
   47        1.183838
   48        1.190353
   49        1.200261
   50        1.313812
   51        1.323996
   52        1.328202
   53        1.336032
   54        1.661359
   55        1.663518
   56        1.699020
   57        1.701034
   58        2.074006
   59        2.075024
   60        2.075098
   61        2.078501
   62        2.204625
   63        2.422874
   64        2.424854
   65        6.069204
   66        6.071596
   67        6.262679
   68        6.268219
   69        6.268594
   70        6.270101
   71        6.378236
   72        6.674800
   73        6.678898
   74        6.735960
   75        6.738970
   76        7.196731
   77        8.699674
   78       11.155555
   79       11.158614
   80       11.742492
   81       11.903204
   82       11.904769
   83       12.032225
   84       12.035278
 
 -0.1694066E-20  0.2222222E+00  0.0000000E+00  0.6172840E-02
    1      -14.829084
    2      -14.708818
    3      -14.708440
    4      -14.581187
    5      -11.608177
    6      -11.511554
    7      -11.511223
    8      -11.410569
    9      -10.403735
   10      -10.400973
   11      -10.320179
   12      -10.317631
   13      -10.317075
   14      -10.314768
   15      -10.230914
   16      -10.228134
   17       -7.752919
   18       -7.749998
   19       -7.689143
   20       -7.686730
   21       -7.685017
   22       -7.682881
   23       -7.618957
   24       -7.615937
   25       -6.596711
   26       -6.533771
   27       -6.533555
   28       -6.468527
   29       -3.568445
   30       -2.782611
   31       -2.781079
   32       -2.746626
   33       -2.744977
   34       -2.716487
   35       -2.716102
   36       -2.713230
   37       -2.713094
   38       -2.683813
   39       -2.682164
   40       -1.835553
   41       -1.628532
   42       -1.606737
   43       -1.606615
   44       -1.584730
   45        0.183161
   46        0.349412
   47        0.366653
   48        0.366831
   49        0.384363
   50        0.812466
   51        0.813554
   52        0.896605
   53        0.909686
   54        0.909823
   55        0.922825
   56        1.446577
   57        1.449385
   58        1.522737
   59        1.950845
   60        1.953760
   61        1.953890
   62        1.956665
   63        2.457218
   64        2.459856
   65        6.330101
   66        6.332459
   67        6.596013
   68        6.599432
   69        6.601143
   70        6.604199
   71        7.043407
   72        7.047038
   73        7.522933
   74        7.896182
   75        7.898618
   76        8.407791
   77        8.968917
   78       11.393471
   79       11.396515
   80       11.852704
   81       12.008612
   82       12.009063
   83       12.145909
   84       12.851507
 
  0.1111111E+00  0.2222222E+00  0.0000000E+00  0.6172840E-02
    1      -14.609517
    2      -14.490801
    3      -14.490419
    4      -14.364972
    5      -12.026168
    6      -11.926390
    7      -11.926062
    8      -11.821756
    9      -11.402237
   10      -11.307389
   11      -11.307084
   12      -11.207951
   13       -9.672447
   14       -9.601349
   15       -9.600438
   16       -9.528963
   17       -8.087377
   18       -8.032900
   19       -8.030630
   20       -7.971180
   21       -6.457517
   22       -6.398098
   23       -6.396240
   24       -6.335194
   25       -5.858671
   26       -5.800530
   27       -5.800336
   28       -5.740780
   29       -3.725787
   30       -3.688518
   31       -3.686334
   32       -3.648142
   33       -3.303035
   34       -2.524149
   35       -2.522668
   36       -2.520999
   37       -2.492141
   38       -2.490052
   39       -2.460476
   40       -1.710365
   41       -1.686738
   42       -1.686405
   43       -1.662459
   44       -1.587045
   45       -0.309555
   46       -0.293091
   47       -0.289493
   48       -0.274120
   49       -0.267947