 vasp.5.3.5 31Mar14 (build Nov 02 2014 15:17:37) complex                        
  
 executed on        ion-Intel-MKL date 2016.08.26  21:40:20
 running on    6 total cores
 distrk:  each k-point on    6 cores,    1 groups
 distr:  one band on NCORES_PER_BAND=   1 cores,    6 groups


--------------------------------------------------------------------------------------------------------


 INCAR:
 POTCAR:   PAW_PBE C 08Apr2002                    

 ----------------------------------------------------------------------------- 
|                                                                             |
|           W    W    AA    RRRRR   N    N  II  N    N   GGGG   !!!           |
|           W    W   A  A   R    R  NN   N  II  NN   N  G    G  !!!           |
|           W    W  A    A  R    R  N N  N  II  N N  N  G       !!!           |
|           W WW W  AAAAAA  RRRRR   N  N N  II  N  N N  G  GGG   !            |
|           WW  WW  A    A  R   R   N   NN  II  N   NN  G    G                |
|           W    W  A    A  R    R  N    N  II  N    N   GGGG   !!!           |
|                                                                             |
|      For optimal performance we recommend to set                            |
|        NCORE= 4 - approx SQRT( number of cores)                             |
|      NCORE specifies how many cores store one orbital (NPAR=cpu/NCORE).     |
|      This setting can  greatly improve the performance of VASP for DFT.     |
|      The default, NPAR=number of cores might be grossly inefficient         |
|      on modern multi-core architectures or massively parallel machines.     |
|      Do your own testing !!!!                                               |
|      Unfortunately you need to use the default for GW and RPA calculations. |
|      (for HF NCORE is supported but not extensively tested yet)             |
|                                                                             |
 ----------------------------------------------------------------------------- 

 POTCAR:   PAW_PBE C 08Apr2002                    
   VRHFIN =C: s2p2                                                              
   LEXCH  = PE                                                                  
   EATOM  =   147.1560 eV,   10.8157 Ry                                         
                                                                                
   TITEL  = PAW_PBE C 08Apr2002                                                 
   LULTRA =        F    use ultrasoft PP ?                                      
   IUNSCR =        0    unscreen: 0-lin 1-nonlin 2-no                           
   RPACOR =     .000    partial core radius                                     
   POMASS =   12.011; ZVAL   =    4.000    mass and valenz                      
   RCORE  =    1.500    outmost cutoff radius                                   
   RWIGS  =    1.630; RWIGS  =     .863    wigner-seitz radius (au A)           
   ENMAX  =  400.000; ENMIN  =  300.000 eV                                      
   ICORE  =        2    local potential                                         
   LCOR   =        T    correct aug charges                                     
   LPAW   =        T    paw PP                                                  
   EAUG   =  644.873                                                            
   DEXC   =     .000                                                            
   RMAX   =    2.266    core radius for proj-oper                               
   RAUG   =    1.300    factor for augmentation sphere                          
   RDEP   =    1.501    radius for radial grids                                 
   RDEPT  =    1.300    core radius for aug-charge                              
   QCUT   =   -5.516; QGAM   =   11.032    optimization parameters              
                                                                                
   Description                                                                  
     l     E      TYP  RCUT    TYP  RCUT                                        
     0   .000     23  1.200                                                     
     0   .000     23  1.200                                                     
     1   .000     23  1.500                                                     
     1  2.500     23  1.500                                                     
     2   .000      7  1.500                                                     
  local pseudopotential read in
  atomic valenz-charges read in
  non local Contribution for L=           0  read in
    real space projection operators read in
  non local Contribution for L=           0  read in
    real space projection operators read in
  non local Contribution for L=           1  read in
    real space projection operators read in
  non local Contribution for L=           1  read in
    real space projection operators read in
    PAW grid and wavefunctions read in
 
   number of l-projection  operators is LMAX  =           4
   number of lm-projection operators is LMMAX =           8
 

 ----------------------------------------------------------------------------- 
|                                                                             |
|  ADVICE TO THIS USER RUNNING 'VASP/VAMP'   (HEAR YOUR MASTER'S VOICE ...):  |
|                                                                             |
|      You have a (more or less) 'large supercell' and for larger cells       |
|      it might be more efficient to use real space projection operators      |
|      So try LREAL= Auto  in the INCAR   file.                               |
|      Mind: If you want to do a very accurate calculations keep the          |
|      reciprocal projection scheme          (i.e. LREAL=.FALSE.)             |
|                                                                             |
 ----------------------------------------------------------------------------- 

 PAW_PBE C 08Apr2002                    :
 energy of atom  1       EATOM= -147.1560
 kinetic energy error for atom=    0.0057 (will be added to EATOM!!)
 
 
 POSCAR: C                                       
  positions in direct lattice
  No initial velocities read in
 exchange correlation table for  LEXCH =        8
   RHO(1)=    0.500       N(1)  =     2000
   RHO(2)=  100.500       N(2)  =     4000
 


--------------------------------------------------------------------------------------------------------


 ion  position               nearest neighbor table
   1  0.500  0.000  0.125-  20 1.42  18 1.42  19 1.42
   2  1.000  0.000  0.125-  19 1.42  20 1.42  17 1.42
   3  0.500  0.500  0.125-  17 1.42  18 1.42  20 1.42
   4  1.000  0.500  0.125-  19 1.42  18 1.42  17 1.43
   5  0.500  0.000  0.625-  24 1.42  22 1.42  23 1.42
   6  1.000  0.000  0.625-  23 1.42  21 1.42  24 1.42
   7  0.500  0.500  0.625-  22 1.42  24 1.42  21 1.42
   8  1.000  0.500  0.625-  21 1.42  23 1.42  22 1.42
   9  0.000  0.500  0.375-  28 1.42  27 1.42  26 1.42
  10  0.500  0.500  0.375-  27 1.42  28 1.42  25 1.42
  11  0.000  1.000  0.375-  26 1.42  25 1.42  28 1.42
  12  0.500  1.000  0.375-  25 1.42  26 1.42  27 1.42
  13  0.000  0.500  0.875-  32 1.42  31 1.42  30 1.42
  14  0.500  0.500  0.875-  31 1.42  32 1.42  29 1.42
  15  0.000  1.000  0.875-  30 1.42  29 1.42  32 1.42
  16  0.500  1.000  0.875-  29 1.42  30 1.42  31 1.42
  17  0.167  0.333  0.126-   3 1.42   2 1.42   4 1.43
  18  0.667  0.333  0.125-   3 1.42   1 1.42   4 1.42
  19  0.167  0.833  0.125-   2 1.42   4 1.42   1 1.42
  20  0.667  0.833  0.125-   1 1.42   3 1.42   2 1.42
  21  0.167  0.333  0.625-   8 1.42   6 1.42   7 1.42
  22  0.667  0.333  0.625-   7 1.42   5 1.42   8 1.42
  23  0.167  0.833  0.625-   6 1.42   8 1.42   5 1.42
  24  0.667  0.833  0.625-   5 1.42   7 1.42   6 1.42
  25  0.333  0.167  0.375-  12 1.42  11 1.42  10 1.42
  26  0.833  0.167  0.375-  11 1.42  12 1.42   9 1.42
  27  0.333  0.667  0.375-  10 1.42   9 1.42  12 1.42
  28  0.833  0.667  0.375-   9 1.42  10 1.42  11 1.42
  29  0.333  0.167  0.875-  16 1.42  15 1.42  14 1.42
  30  0.833  0.167  0.875-  15 1.42  16 1.42  13 1.42
  31  0.333  0.667  0.875-  14 1.42  13 1.42  16 1.42
  32  0.833  0.667  0.875-  13 1.42  14 1.42  15 1.42
 
  LATTYP: Found a base centered orthorhombic cell.
 ALAT       =     4.9339256766
 B/A-ratio  =     1.7322311103
 C/A-ratio  =     2.7808514389
  
  Lattice vectors:
  
 A1 = (   4.9343108848,  -0.0002224000,   0.0000000000)
 A2 = (  -2.4673480464,   4.2731273763,   0.0000000000)
 A3 = (   0.0000000000,   0.0000000000,  13.7205143174)


Analysis of symmetry for initial positions (statically):
=====================================================================
 Subroutine PRICEL returns:
 Original cell was already a primitive cell.
 

 Routine SETGRP: Setting up the symmetry group for a 
 base centered orthorhombic supercell.


 Subroutine GETGRP returns: Found  1 space group operations
 (whereof  1 operations were pure point group operations)
 out of a pool of  8 trial point group operations.


The static configuration has the point symmetry C_1 .


Analysis of symmetry for dynamics (positions and initial velocities):
=====================================================================
 Subroutine PRICEL returns:
 Original cell was already a primitive cell.
 

 Routine SETGRP: Setting up the symmetry group for a 
 base centered orthorhombic supercell.


 Subroutine GETGRP returns: Found  1 space group operations
 (whereof  1 operations were pure point group operations)
 out of a pool of  8 trial point group operations.


The dynamic configuration has the point symmetry C_1 .
 
 
 KPOINTS: B4C B11C-CBC                            

Automatic generation of k-mesh.
Space group operators:
 irot       det(A)        alpha          n_x          n_y          n_z        tau_x        tau_y        tau_z
    1     1.000000     0.000001     1.000000     0.000000     0.000000     0.000000     0.000000     0.000000
 
 Subroutine IBZKPT returns following result:
 ===========================================
 
 Found    163 irreducible k-points:
 
 Following reciprocal coordinates:
            Coordinates               Weight
  0.000000  0.000000  0.000000      1.000000
  0.111111  0.000000  0.000000      2.000000
  0.222222 -0.000000  0.000000      2.000000
  0.333333 -0.000000  0.000000      2.000000
  0.444444 -0.000000  0.000000      2.000000
 -0.000000  0.111111  0.000000      2.000000
  0.111111  0.111111  0.000000      2.000000
  0.222222  0.111111  0.000000      2.000000
  0.333333  0.111111  0.000000      2.000000
  0.444444  0.111111  0.000000      2.000000
 -0.444444  0.111111  0.000000      2.000000
 -0.333333  0.111111  0.000000      2.000000
 -0.222222  0.111111  0.000000      2.000000
 -0.111111  0.111111  0.000000      2.000000
 -0.000000  0.222222  0.000000      2.000000
  0.111111  0.222222  0.000000      2.000000
  0.222222  0.222222  0.000000      2.000000
  0.333333  0.222222  0.000000      2.000000
  0.444444  0.222222  0.000000      2.000000
 -0.444444  0.222222  0.000000      2.000000
 -0.333333  0.222222  0.000000      2.000000
 -0.222222  0.222222  0.000000      2.000000
 -0.111111  0.222222  0.000000      2.000000
  0.000000  0.333333  0.000000      2.000000
  0.111111  0.333333  0.000000      2.000000
  0.222222  0.333333  0.000000      2.000000
  0.333333  0.333333  0.000000      2.000000
  0.444444  0.333333  0.000000      2.000000
 -0.444444  0.333333  0.000000      2.000000
 -0.333333  0.333333  0.000000      2.000000
 -0.222222  0.333333  0.000000      2.000000
 -0.111111  0.333333  0.000000      2.000000
 -0.000000  0.444444  0.000000      2.000000
  0.111111  0.444444  0.000000      2.000000
  0.222222  0.444444  0.000000      2.000000
  0.333333  0.444444  0.000000      2.000000
  0.444444  0.444444  0.000000      2.000000
 -0.444444  0.444444  0.000000      2.000000
 -0.333333  0.444444  0.000000      2.000000
 -0.222222  0.444444  0.000000      2.000000
 -0.111111  0.444444  0.000000      2.000000
  0.000000  0.000000  0.250000      2.000000
  0.111111  0.000000  0.250000      2.000000
  0.222222 -0.000000  0.250000      2.000000
  0.333333 -0.000000  0.250000      2.000000
  0.444444 -0.000000  0.250000      2.000000
 -0.444444  0.000000  0.250000      2.000000
 -0.333333  0.000000  0.250000      2.000000
 -0.222222  0.000000  0.250000      2.000000
 -0.111111  0.000000  0.250000      2.000000
 -0.000000  0.111111  0.250000      2.000000
  0.111111  0.111111  0.250000      2.000000
  0.222222  0.111111  0.250000      2.000000
  0.333333  0.111111  0.250000      2.000000
  0.444444  0.111111  0.250000      2.000000
 -0.444444  0.111111  0.250000      2.000000
 -0.333333  0.111111  0.250000      2.000000
 -0.222222  0.111111  0.250000      2.000000
 -0.111111  0.111111  0.250000      2.000000
 -0.000000  0.222222  0.250000      2.000000
  0.111111  0.222222  0.250000      2.000000
  0.222222  0.222222  0.250000      2.000000
  0.333333  0.222222  0.250000      2.000000
  0.444444  0.222222  0.250000      2.000000
 -0.444444  0.222222  0.250000      2.000000
 -0.333333  0.222222  0.250000      2.000000
 -0.222222  0.222222  0.250000      2.000000
 -0.111111  0.222222  0.250000      2.000000
  0.000000  0.333333  0.250000      2.000000
  0.111111  0.333333  0.250000      2.000000
  0.222222  0.333333  0.250000      2.000000
  0.333333  0.333333  0.250000      2.000000
  0.444444  0.333333  0.250000      2.000000
 -0.444444  0.333333  0.250000      2.000000
 -0.333333  0.333333  0.250000      2.000000
 -0.222222  0.333333  0.250000      2.000000
 -0.111111  0.333333  0.250000      2.000000
 -0.000000  0.444444  0.250000      2.000000
  0.111111  0.444444  0.250000      2.000000
  0.222222  0.444444  0.250000      2.000000
  0.333333  0.444444  0.250000      2.000000
  0.444444  0.444444  0.250000      2.000000
 -0.444444  0.444444  0.250000      2.000000
 -0.333333  0.444444  0.250000      2.000000
 -0.222222  0.444444  0.250000      2.000000
 -0.111111  0.444444  0.250000      2.000000
  0.000000 -0.444444  0.250000      2.000000
  0.111111 -0.444444  0.250000      2.000000
  0.222222 -0.444444  0.250000      2.000000
  0.333333 -0.444444  0.250000      2.000000
  0.444444 -0.444444  0.250000      2.000000
 -0.444444 -0.444444  0.250000      2.000000
 -0.333333 -0.444444  0.250000      2.000000
 -0.222222 -0.444444  0.250000      2.000000
 -0.111111 -0.444444  0.250000      2.000000
  0.000000 -0.333333  0.250000      2.000000
  0.111111 -0.333333  0.250000      2.000000
  0.222222 -0.333333  0.250000      2.000000
  0.333333 -0.333333  0.250000      2.000000
  0.444444 -0.333333  0.250000      2.000000
 -0.444444 -0.333333  0.250000      2.000000
 -0.333333 -0.333333  0.250000      2.000000
 -0.222222 -0.333333  0.250000      2.000000
 -0.111111 -0.333333  0.250000      2.000000
  0.000000 -0.222222  0.250000      2.000000
  0.111111 -0.222222  0.250000      2.000000
  0.222222 -0.222222  0.250000      2.000000
  0.333333 -0.222222  0.250000      2.000000
  0.444444 -0.222222  0.250000      2.000000
 -0.444444 -0.222222  0.250000      2.000000
 -0.333333 -0.222222  0.250000      2.000000
 -0.222222 -0.222222  0.250000      2.000000
 -0.111111 -0.222222  0.250000      2.000000
  0.000000 -0.111111  0.250000      2.000000
  0.111111 -0.111111  0.250000      2.000000
  0.222222 -0.111111  0.250000      2.000000
  0.333333 -0.111111  0.250000      2.000000
  0.444444 -0.111111  0.250000      2.000000
 -0.444444 -0.111111  0.250000      2.000000
 -0.333333 -0.111111  0.250000      2.000000
 -0.222222 -0.111111  0.250000      2.000000
 -0.111111 -0.111111  0.250000      2.000000
  0.000000  0.000000  0.500000      1.000000
  0.111111  0.000000  0.500000      2.000000
  0.222222 -0.000000  0.500000      2.000000
  0.333333 -0.000000  0.500000      2.000000
  0.444444 -0.000000  0.500000      2.000000
 -0.000000  0.111111  0.500000      2.000000
  0.111111  0.111111  0.500000      2.000000
  0.222222  0.111111  0.500000      2.000000
  0.333333  0.111111  0.500000      2.000000
  0.444444  0.111111  0.500000      2.000000
 -0.444444  0.111111  0.500000      2.000000
 -0.333333  0.111111  0.500000      2.000000
 -0.222222  0.111111  0.500000      2.000000
 -0.111111  0.111111  0.500000      2.000000
 -0.000000  0.222222  0.500000      2.000000
  0.111111  0.222222  0.500000      2.000000
  0.222222  0.222222  0.500000      2.000000
  0.333333  0.222222  0.500000      2.000000
  0.444444  0.222222  0.500000      2.000000
 -0.444444  0.222222  0.500000      2.000000
 -0.333333  0.222222  0.500000      2.000000
 -0.222222  0.222222  0.500000      2.000000
 -0.111111  0.222222  0.500000      2.000000
  0.000000  0.333333  0.500000      2.000000
  0.111111  0.333333  0.500000      2.000000
  0.222222  0.333333  0.500000      2.000000
  0.333333  0.333333  0.500000      2.000000
  0.444444  0.333333  0.500000      2.000000
 -0.444444  0.333333  0.500000      2.000000
 -0.333333  0.333333  0.500000      2.000000
 -0.222222  0.333333  0.500000      2.000000
 -0.111111  0.333333  0.500000      2.000000
 -0.000000  0.444444  0.500000      2.000000
  0.111111  0.444444  0.500000      2.000000
  0.222222  0.444444  0.500000      2.000000
  0.333333  0.444444  0.500000      2.000000
  0.444444  0.444444  0.500000      2.000000
 -0.444444  0.444444  0.500000      2.000000
 -0.333333  0.444444  0.500000      2.000000
 -0.222222  0.444444  0.500000      2.000000
 -0.111111  0.444444  0.500000      2.000000
 
 Following cartesian coordinates:
            Coordinates               Weight
  0.000000  0.000000  0.000000      1.000000
  0.022519  0.013002  0.000000      2.000000
  0.045037  0.026005  0.000000      2.000000
  0.067556  0.039007  0.000000      2.000000
  0.090075  0.052010  0.000000      2.000000
  0.000001  0.026003  0.000000      2.000000
  0.022520  0.039005  0.000000      2.000000
  0.045038  0.052008  0.000000      2.000000
  0.067557  0.065010  0.000000      2.000000
  0.090076  0.078013  0.000000      2.000000
 -0.090073 -0.026007  0.000000      2.000000
 -0.067555 -0.013005  0.000000      2.000000
 -0.045036 -0.000002  0.000000      2.000000
 -0.022517  0.013000  0.000000      2.000000
  0.000002  0.052006  0.000000      2.000000
  0.022521  0.065008  0.000000      2.000000
  0.045040  0.078011  0.000000      2.000000
  0.067558  0.091013  0.000000      2.000000
  0.090077  0.104016  0.000000      2.000000
 -0.090072 -0.000004  0.000000      2.000000
 -0.067554  0.012998  0.000000      2.000000
 -0.045035  0.026001  0.000000      2.000000
 -0.022516  0.039003  0.000000      2.000000
  0.000004  0.078009  0.000000      2.000000
  0.022522  0.091011  0.000000      2.000000
  0.045041  0.104014  0.000000      2.000000
  0.067559  0.117016  0.000000      2.000000
  0.090078  0.130019  0.000000      2.000000
 -0.090071  0.025999  0.000000      2.000000
 -0.067552  0.039001  0.000000      2.000000
 -0.045034  0.052004  0.000000      2.000000
 -0.022515  0.065006  0.000000      2.000000
  0.000005  0.104012  0.000000      2.000000
  0.022523  0.117014  0.000000      2.000000
  0.045042  0.130017  0.000000      2.000000
  0.067561  0.143019  0.000000      2.000000
  0.090079  0.156022  0.000000      2.000000
 -0.090070  0.052002  0.000000      2.000000
 -0.067551  0.065004  0.000000      2.000000
 -0.045033  0.078007  0.000000      2.000000
 -0.022514  0.091009  0.000000      2.000000
  0.000000  0.000000  0.018221      2.000000
  0.022519  0.013002  0.018221      2.000000
  0.045037  0.026005  0.018221      2.000000
  0.067556  0.039007  0.018221      2.000000
  0.090075  0.052010  0.018221      2.000000
 -0.090075 -0.052010  0.018221      2.000000
 -0.067556 -0.039007  0.018221      2.000000
 -0.045037 -0.026005  0.018221      2.000000
 -0.022519 -0.013002  0.018221      2.000000
  0.000001  0.026003  0.018221      2.000000
  0.022520  0.039005  0.018221      2.000000
  0.045038  0.052008  0.018221      2.000000
  0.067557  0.065010  0.018221      2.000000
  0.090076  0.078013  0.018221      2.000000
 -0.090073 -0.026007  0.018221      2.000000
 -0.067555 -0.013005  0.018221      2.000000
 -0.045036 -0.000002  0.018221      2.000000
 -0.022517  0.013000  0.018221      2.000000
  0.000002  0.052006  0.018221      2.000000
  0.022521  0.065008  0.018221      2.000000
  0.045040  0.078011  0.018221      2.000000
  0.067558  0.091013  0.018221      2.000000
  0.090077  0.104016  0.018221      2.000000
 -0.090072 -0.000004  0.018221      2.000000
 -0.067554  0.012998  0.018221      2.000000
 -0.045035  0.026001  0.018221      2.000000
 -0.022516  0.039003  0.018221      2.000000
  0.000004  0.078009  0.018221      2.000000
  0.022522  0.091011  0.018221      2.000000
  0.045041  0.104014  0.018221      2.000000
  0.067559  0.117016  0.018221      2.000000
  0.090078  0.130019  0.018221      2.000000
 -0.090071  0.025999  0.018221      2.000000
 -0.067552  0.039001  0.018221      2.000000
 -0.045034  0.052004  0.018221      2.000000
 -0.022515  0.065006  0.018221      2.000000
  0.000005  0.104012  0.018221      2.000000
  0.022523  0.117014  0.018221      2.000000
  0.045042  0.130017  0.018221      2.000000
  0.067561  0.143019  0.018221      2.000000
  0.090079  0.156022  0.018221      2.000000
 -0.090070  0.052002  0.018221      2.000000
 -0.067551  0.065004  0.018221      2.000000
 -0.045033  0.078007  0.018221      2.000000
 -0.022514  0.091009  0.018221      2.000000
 -0.000005 -0.104012  0.018221      2.000000
  0.022514 -0.091009  0.018221      2.000000
  0.045033 -0.078007  0.018221      2.000000
  0.067551 -0.065004  0.018221      2.000000
  0.090070 -0.052002  0.018221      2.000000
 -0.090079 -0.156022  0.018221      2.000000
 -0.067561 -0.143019  0.018221      2.000000
 -0.045042 -0.130017  0.018221      2.000000
 -0.022523 -0.117014  0.018221      2.000000
 -0.000004 -0.078009  0.018221      2.000000
  0.022515 -0.065006  0.018221      2.000000
  0.045034 -0.052004  0.018221      2.000000
  0.067552 -0.039001  0.018221      2.000000
  0.090071 -0.025999  0.018221      2.000000
 -0.090078 -0.130019  0.018221      2.000000
 -0.067559 -0.117016  0.018221      2.000000
 -0.045041 -0.104014  0.018221      2.000000
 -0.022522 -0.091011  0.018221      2.000000
 -0.000002 -0.052006  0.018221      2.000000
  0.022516 -0.039003  0.018221      2.000000
  0.045035 -0.026001  0.018221      2.000000
  0.067554 -0.012998  0.018221      2.000000
  0.090072  0.000004  0.018221      2.000000
 -0.090077 -0.104016  0.018221      2.000000
 -0.067558 -0.091013  0.018221      2.000000
 -0.045040 -0.078011  0.018221      2.000000
 -0.022521 -0.065008  0.018221      2.000000
 -0.000001 -0.026003  0.018221      2.000000
  0.022517 -0.013000  0.018221      2.000000
  0.045036  0.000002  0.018221      2.000000
  0.067555  0.013005  0.018221      2.000000
  0.090073  0.026007  0.018221      2.000000
 -0.090076 -0.078013  0.018221      2.000000
 -0.067557 -0.065010  0.018221      2.000000
 -0.045038 -0.052008  0.018221      2.000000
 -0.022520 -0.039005  0.018221      2.000000
  0.000000  0.000000  0.036442      1.000000
  0.022519  0.013002  0.036442      2.000000
  0.045037  0.026005  0.036442      2.000000
  0.067556  0.039007  0.036442      2.000000
  0.090075  0.052010  0.036442      2.000000
  0.000001  0.026003  0.036442      2.000000
  0.022520  0.039005  0.036442      2.000000
  0.045038  0.052008  0.036442      2.000000
  0.067557  0.065010  0.036442      2.000000
  0.090076  0.078013  0.036442      2.000000
 -0.090073 -0.026007  0.036442      2.000000
 -0.067555 -0.013005  0.036442      2.000000
 -0.045036 -0.000002  0.036442      2.000000
 -0.022517  0.013000  0.036442      2.000000
  0.000002  0.052006  0.036442      2.000000
  0.022521  0.065008  0.036442      2.000000
  0.045040  0.078011  0.036442      2.000000
  0.067558  0.091013  0.036442      2.000000
  0.090077  0.104016  0.036442      2.000000
 -0.090072 -0.000004  0.036442      2.000000
 -0.067554  0.012998  0.036442      2.000000
 -0.045035  0.026001  0.036442      2.000000
 -0.022516  0.039003  0.036442      2.000000
  0.000004  0.078009  0.036442      2.000000
  0.022522  0.091011  0.036442      2.000000
  0.045041  0.104014  0.036442      2.000000
  0.067559  0.117016  0.036442      2.000000
  0.090078  0.130019  0.036442      2.000000
 -0.090071  0.025999  0.036442      2.000000
 -0.067552  0.039001  0.036442      2.000000
 -0.045034  0.052004  0.036442      2.000000
 -0.022515  0.065006  0.036442      2.000000
  0.000005  0.104012  0.036442      2.000000
  0.022523  0.117014  0.036442      2.000000
  0.045042  0.130017  0.036442      2.000000
  0.067561  0.143019  0.036442      2.000000
  0.090079  0.156022  0.036442      2.000000
 -0.090070  0.052002  0.036442      2.000000
 -0.067551  0.065004  0.036442      2.000000
 -0.045033  0.078007  0.036442      2.000000
 -0.022514  0.091009  0.036442      2.000000
 
 TETIRR: Found    970 inequivalent tetrahedra from     1944


--------------------------------------------------------------------------------------------------------




 Dimension of arrays:
   k-points           NKPTS =    163   k-points in BZ     NKDIM =    163   number of bands    NBANDS=     84
   number of dos      NEDOS =    301   number of ions     NIONS =     32
   non local maximal  LDIM  =      4   non local SUM 2l+1 LMDIM =      8
   total plane-waves  NPLWV = 179200
   max r-space proj   IRMAX =      1   max aug-charges    IRDMAX=   7509
   dimension x,y,z NGX =    40 NGY =   40 NGZ =  112
   dimension x,y,z NGXF=    80 NGYF=   80 NGZF=  224
   support grid    NGXF=    80 NGYF=   80 NGZF=  224
   ions per type =              32
 NGX,Y,Z   is equivalent  to a cutoff of  13.48, 13.48, 13.57 a.u.
 NGXF,Y,Z  is equivalent  to a cutoff of  26.95, 26.95, 27.14 a.u.


 I would recommend the setting:
   dimension x,y,z NGX =    39 NGY =   39 NGZ =  110
 SYSTEM =  graphite                                
 POSCAR =  C                                       

 Startparameter for this run:
   NWRITE =      2    write-flag & timer
   PREC   = accura    normal or accurate (medium, high low for compatibility)
   ISTART =      0    job   : 0-new  1-cont  2-samecut
   ICHARG =      2    charge: 1-file 2-atom 10-const
   ISPIN  =      1    spin polarized calculation?
   LNONCOLLINEAR =      F non collinear calculations
   LSORBIT =      F    spin-orbit coupling
   INIWAV =      1    electr: 0-lowe 1-rand  2-diag
   LASPH  =      F    aspherical Exc in radial PAW
   METAGGA=      F    non-selfconsistent MetaGGA calc.

 Electronic Relaxation 1
   ENCUT  =  600.0 eV  44.10 Ry    6.64 a.u.   9.86  9.86 27.40*2*pi/ulx,y,z
   ENINI  =  600.0     initial cutoff
   ENAUG  =  644.9 eV  augmentation charge cutoff
   NELM   =    200;   NELMIN=  2; NELMDL=  0     # of ELM steps 
   EDIFF  = 0.1E-05   stopping-criterion for ELM
   LREAL  =      F    real-space projection
   NLSPLINE    = F    spline interpolate recip. space projectors
   LCOMPAT=      F    compatible to vasp.4.4
   GGA_COMPAT  = T    GGA compatible to vasp.4.4-vasp.4.6
   LMAXPAW     = -100 max onsite density
   LMAXMIX     =    2 max onsite mixed and CHGCAR
   VOSKOWN=      0    Vosko Wilk Nusair interpolation
   ROPT   =    0.00000
 Ionic relaxation
   EDIFFG = 0.1E-02   stopping-criterion for IOM
   NSW    =      0    number of steps for IOM
   NBLOCK =      1;   KBLOCK =      1    inner block; outer block 
   IBRION =     -1    ionic relax: 0-MD 1-quasi-New 2-CG
   NFREE  =      0    steps in history (QN), initial steepest desc. (CG)
   ISIF   =      2    stress and relaxation
   IWAVPR =     10    prediction:  0-non 1-charg 2-wave 3-comb
   ISYM   =      2    0-nonsym 1-usesym 2-fastsym
   LCORR  =      T    Harris-Foulkes like correction to forces

   POTIM  = 0.5000    time-step for ionic-motion
   TEIN   =    0.0    initial temperature
   TEBEG  =    0.0;   TEEND  =   0.0 temperature during run
   SMASS  =  -3.00    Nose mass-parameter (am)
   estimated Nose-frequenzy (Omega)   =  0.10E-29 period in steps =****** mass=  -0.556E-27a.u.
   SCALEE = 1.0000    scale energy and forces
   NPACO  =    256;   APACO  = 16.0  distance and # of slots for P.C.
   PSTRESS=    0.0 pullay stress

  Mass of Ions in am
   POMASS =  12.01
  Ionic Valenz
   ZVAL   =   4.00
  Atomic Wigner-Seitz radii
   RWIGS  =  -1.00
  virtual crystal weights 
   VCA    =   1.00
   NELECT =     128.0000    total number of electrons
   NUPDOWN=      -1.0000    fix difference up-down

 DOS related values:
   EMIN   =  10.00;   EMAX   =-10.00  energy-range for DOS
   EFERMI =   0.00
   ISMEAR =    -5;   SIGMA  =   0.20  broadening in eV -4-tet -1-fermi 0-gaus

 Electronic relaxation 2 (details)
   IALGO  =     38    algorithm
   LDIAG  =      T    sub-space diagonalisation (order eigenvalues)
   LSUBROT=      F    optimize rotation matrix (better conditioning)
   TURBO    =      0    0=normal 1=particle mesh
   IRESTART =      0    0=no restart 2=restart with 2 vectors
   NREBOOT  =      0    no. of reboots
   NMIN     =      0    reboot dimension
   EREF     =   0.00    reference energy to select bands
   IMIX   =      4    mixing-type and parameters
     AMIX     =   0.40;   BMIX     =  1.00
     AMIX_MAG =   1.60;   BMIX_MAG =  1.00
     AMIN     =   0.10
     WC   =   100.;   INIMIX=   1;  MIXPRE=   1;  MAXMIX= -45

 Intra band minimization:
   WEIMIN = 0.0000     energy-eigenvalue tresh-hold
   EBREAK =  0.30E-08  absolut break condition
   DEPER  =   0.30     relativ break condition  

   TIME   =   0.40     timestep for ELM

  volume/ion in A,a.u.               =       9.04        61.01
  Fermi-wavevector in a.u.,A,eV,Ry     =   1.247482  2.357399 21.173546  1.556212
  Thomas-Fermi vector in A             =   2.381612
 
 Write flags
   LWAVE  =      F    write WAVECAR
   LCHARG =      F    write CHGCAR
   LVTOT  =      F    write LOCPOT, total local potential
   LVHAR  =      F    write LOCPOT, Hartree potential only
   LELF   =      F    write electronic localiz. function (ELF)
   LORBIT =      0    0 simple, 1 ext, 2 COOP (PROOUT)


 Dipole corrections
   LMONO  =      F    monopole corrections only (constant potential shift)
   LDIPOL =      F    correct potential (dipole corrections)
   IDIPOL =      0    1-x, 2-y, 3-z, 4-all directions 
   EPSILON=  1.0000000 bulk dielectric constant

 Exchange correlation treatment:
   GGA     =    PE    GGA type
   LEXCH   =     8    internal setting for exchange type
   VOSKOWN=      0    Vosko Wilk Nusair interpolation
   LHFCALC =     F    Hartree Fock is set to
   LHFONE  =     F    Hartree Fock one center treatment
   AEXX    =    0.0000 exact exchange contribution

 Linear response parameters
   LEPSILON=     F    determine dielectric tensor
   LRPA    =     F    only Hartree local field effects (RPA)
   LNABLA  =     F    use nabla operator in PAW spheres
   LVEL    =     F    velocity operator in full k-point grid
   LINTERFAST=   F  fast interpolation
   KINTER  =     0    interpolate to denser k-point grid
   CSHIFT  =0.1000    complex shift for real part using Kramers Kronig
   OMEGAMAX=  -1.0    maximum frequency
   DEG_THRESHOLD= 0.2000000E-02 threshold for treating states as degnerate
   RTIME   =    0.100 relaxation time in fs

 Orbital magnetization related:
   ORBITALMAG=     F  switch on orbital magnetization
   LCHIMAG   =     F  perturbation theory with respect to B field
   DQ        =  0.001000  dq finite difference perturbation B field



--------------------------------------------------------------------------------------------------------


 Static calculation
 charge density and potential will be updated during run
 non-spin polarized calculation
 Variant of blocked Davidson
 Davidson routine will perform the subspace rotation
 perform sub-space diagonalisation
    after iterative eigenvector-optimisation
 modified Broyden-mixing scheme, WC =      100.0
 initial mixing is a Kerker type mixing with AMIX =  0.4000 and BMIX =      1.0000
 Hartree-type preconditioning will be used
 using additional bands           20
 reciprocal scheme for non local part
 calculate Harris-corrections to forces 
   (improved forces if not selfconsistent)
 use gradient corrections 
 use of overlap-Matrix (Vanderbilt PP)
 Fermi weights with tetrahedron method with Bloechl corrections


--------------------------------------------------------------------------------------------------------


  energy-cutoff  :      600.00
  volume of cell :      289.29
      direct lattice vectors                 reciprocal lattice vectors
     4.934310885 -0.000222400  0.000000000     0.202667819  0.117022500  0.000000000
    -2.467348046  4.273127376  0.000000000     0.000010548  0.234026730  0.000000000
     0.000000000  0.000000000 13.720514317     0.000000000  0.000000000  0.072883565

  length of vectors
     4.934310890  4.934310890 13.720514317     0.234026730  0.234026730  0.072883565


 
 k-points in units of 2pi/SCALE and weight: B4C B11C-CBC                            
   0.00000000  0.00000000  0.00000000       0.003
   0.02251865  0.01300250  0.00000000       0.006
   0.04503729  0.02600500  0.00000000       0.006
   0.06755594  0.03900750  0.00000000       0.006
   0.09007459  0.05201000  0.00000000       0.006
   0.00000117  0.02600297  0.00000000       0.006
   0.02251982  0.03900547  0.00000000       0.006
   0.04503847  0.05200797  0.00000000       0.006
   0.06755711  0.06501047  0.00000000       0.006
   0.09007576  0.07801297  0.00000000       0.006
  -0.09007341 -0.02600703  0.00000000       0.006
  -0.06755477 -0.01300453  0.00000000       0.006
  -0.04503612 -0.00000203  0.00000000       0.006
  -0.02251747  0.01300047  0.00000000       0.006
   0.00000234  0.05200594  0.00000000       0.006
   0.02252099  0.06500844  0.00000000       0.006
   0.04503964  0.07801094  0.00000000       0.006
   0.06755828  0.09101344  0.00000000       0.006
   0.09007693  0.10401594  0.00000000       0.006
  -0.09007224 -0.00000406  0.00000000       0.006
  -0.06755360  0.01299844  0.00000000       0.006
  -0.04503495  0.02600094  0.00000000       0.006
  -0.02251630  0.03900344  0.00000000       0.006
   0.00000352  0.07800891  0.00000000       0.006
   0.02252216  0.09101141  0.00000000       0.006
   0.04504081  0.10401391  0.00000000       0.006
   0.06755946  0.11701641  0.00000000       0.006
   0.09007810  0.13001891  0.00000000       0.006
  -0.09007107  0.02599891  0.00000000       0.006
  -0.06755242  0.03900141  0.00000000       0.006
  -0.04503378  0.05200391  0.00000000       0.006
  -0.02251513  0.06500641  0.00000000       0.006
   0.00000469  0.10401188  0.00000000       0.006
   0.02252333  0.11701438  0.00000000       0.006
   0.04504198  0.13001688  0.00000000       0.006
   0.06756063  0.14301938  0.00000000       0.006
   0.09007927  0.15602188  0.00000000       0.006
  -0.09006990  0.05200188  0.00000000       0.006
  -0.06755125  0.06500438  0.00000000       0.006
  -0.04503261  0.07800688  0.00000000       0.006
  -0.02251396  0.09100938  0.00000000       0.006
   0.00000000  0.00000000  0.01822089       0.006
   0.02251865  0.01300250  0.01822089       0.006
   0.04503729  0.02600500  0.01822089       0.006
   0.06755594  0.03900750  0.01822089       0.006
   0.09007459  0.05201000  0.01822089       0.006
  -0.09007459 -0.05201000  0.01822089       0.006
  -0.06755594 -0.03900750  0.01822089       0.006
  -0.04503729 -0.02600500  0.01822089       0.006
  -0.02251865 -0.01300250  0.01822089       0.006
   0.00000117  0.02600297  0.01822089       0.006
   0.02251982  0.03900547  0.01822089       0.006
   0.04503847  0.05200797  0.01822089       0.006
   0.06755711  0.06501047  0.01822089       0.006
   0.09007576  0.07801297  0.01822089       0.006
  -0.09007341 -0.02600703  0.01822089       0.006
  -0.06755477 -0.01300453  0.01822089       0.006
  -0.04503612 -0.00000203  0.01822089       0.006
  -0.02251747  0.01300047  0.01822089       0.006
   0.00000234  0.05200594  0.01822089       0.006
   0.02252099  0.06500844  0.01822089       0.006
   0.04503964  0.07801094  0.01822089       0.006
   0.06755828  0.09101344  0.01822089       0.006
   0.09007693  0.10401594  0.01822089       0.006
  -0.09007224 -0.00000406  0.01822089       0.006
  -0.06755360  0.01299844  0.01822089       0.006
  -0.04503495  0.02600094  0.01822089       0.006
  -0.02251630  0.03900344  0.01822089       0.006
   0.00000352  0.07800891  0.01822089       0.006
   0.02252216  0.09101141  0.01822089       0.006
   0.04504081  0.10401391  0.01822089       0.006
   0.06755946  0.11701641  0.01822089       0.006
   0.09007810  0.13001891  0.01822089       0.006
  -0.09007107  0.02599891  0.01822089       0.006
  -0.06755242  0.03900141  0.01822089       0.006
  -0.04503378  0.05200391  0.01822089       0.006
  -0.02251513  0.06500641  0.01822089       0.006
   0.00000469  0.10401188  0.01822089       0.006
   0.02252333  0.11701438  0.01822089       0.006
   0.04504198  0.13001688  0.01822089       0.006
   0.06756063  0.14301938  0.01822089       0.006
   0.09007927  0.15602188  0.01822089       0.006
  -0.09006990  0.05200188  0.01822089       0.006
  -0.06755125  0.06500438  0.01822089       0.006
  -0.04503261  0.07800688  0.01822089       0.006
  -0.02251396  0.09100938  0.01822089       0.006
  -0.00000469 -0.10401188  0.01822089       0.006
   0.02251396 -0.09100938  0.01822089       0.006
   0.04503261 -0.07800688  0.01822089       0.006
   0.06755125 -0.06500438  0.01822089       0.006
   0.09006990 -0.05200188  0.01822089       0.006
  -0.09007927 -0.15602188  0.01822089       0.006
  -0.06756063 -0.14301938  0.01822089       0.006
  -0.04504198 -0.13001688  0.01822089       0.006
  -0.02252333 -0.11701438  0.01822089       0.006
  -0.00000352 -0.07800891  0.01822089       0.006
   0.02251513 -0.06500641  0.01822089       0.006
   0.04503378 -0.05200391  0.01822089       0.006
   0.06755242 -0.03900141  0.01822089       0.006
   0.09007107 -0.02599891  0.01822089       0.006
  -0.09007810 -0.13001891  0.01822089       0.006
  -0.06755946 -0.11701641  0.01822089       0.006
  -0.04504081 -0.10401391  0.01822089       0.006
  -0.02252216 -0.09101141  0.01822089       0.006
  -0.00000234 -0.05200594  0.01822089       0.006
   0.02251630 -0.03900344  0.01822089       0.006
   0.04503495 -0.02600094  0.01822089       0.006
   0.06755360 -0.01299844  0.01822089       0.006
   0.09007224  0.00000406  0.01822089       0.006
  -0.09007693 -0.10401594  0.01822089       0.006
  -0.06755828 -0.09101344  0.01822089       0.006
  -0.04503964 -0.07801094  0.01822089       0.006
  -0.02252099 -0.06500844  0.01822089       0.006
  -0.00000117 -0.02600297  0.01822089       0.006
   0.02251747 -0.01300047  0.01822089       0.006
   0.04503612  0.00000203  0.01822089       0.006
   0.06755477  0.01300453  0.01822089       0.006
   0.09007341  0.02600703  0.01822089       0.006
  -0.09007576 -0.07801297  0.01822089       0.006
  -0.06755711 -0.06501047  0.01822089       0.006
  -0.04503847 -0.05200797  0.01822089       0.006
  -0.02251982 -0.03900547  0.01822089       0.006
   0.00000000  0.00000000  0.03644178       0.003
   0.02251865  0.01300250  0.03644178       0.006
   0.04503729  0.02600500  0.03644178       0.006
   0.06755594  0.03900750  0.03644178       0.006
   0.09007459  0.05201000  0.03644178       0.006
   0.00000117  0.02600297  0.03644178       0.006
   0.02251982  0.03900547  0.03644178       0.006
   0.04503847  0.05200797  0.03644178       0.006
   0.06755711  0.06501047  0.03644178       0.006
   0.09007576  0.07801297  0.03644178       0.006
  -0.09007341 -0.02600703  0.03644178       0.006
  -0.06755477 -0.01300453  0.03644178       0.006
  -0.04503612 -0.00000203  0.03644178       0.006
  -0.02251747  0.01300047  0.03644178       0.006
   0.00000234  0.05200594  0.03644178       0.006
   0.02252099  0.06500844  0.03644178       0.006
   0.04503964  0.07801094  0.03644178       0.006
   0.06755828  0.09101344  0.03644178       0.006
   0.09007693  0.10401594  0.03644178       0.006
  -0.09007224 -0.00000406  0.03644178       0.006
  -0.06755360  0.01299844  0.03644178       0.006
  -0.04503495  0.02600094  0.03644178       0.006
  -0.02251630  0.03900344  0.03644178       0.006
   0.00000352  0.07800891  0.03644178       0.006
   0.02252216  0.09101141  0.03644178       0.006
   0.04504081  0.10401391  0.03644178       0.006
   0.06755946  0.11701641  0.03644178       0.006
   0.09007810  0.13001891  0.03644178       0.006
  -0.09007107  0.02599891  0.03644178       0.006
  -0.06755242  0.03900141  0.03644178       0.006
  -0.04503378  0.05200391  0.03644178       0.006
  -0.02251513  0.06500641  0.03644178       0.006
   0.00000469  0.10401188  0.03644178       0.006
   0.02252333  0.11701438  0.03644178       0.006
   0.04504198  0.13001688  0.03644178       0.006
   0.06756063  0.14301938  0.03644178       0.006
   0.09007927  0.15602188  0.03644178       0.006
  -0.09006990  0.05200188  0.03644178       0.006
  -0.06755125  0.06500438  0.03644178       0.006
  -0.04503261  0.07800688  0.03644178       0.006
  -0.02251396  0.09100938  0.03644178       0.006
 
 k-points in reciprocal lattice and weights: B4C B11C-CBC                            
   0.00000000  0.00000000  0.00000000       0.003
   0.11111111  0.00000000  0.00000000       0.006
   0.22222222 -0.00000000  0.00000000       0.006
   0.33333333 -0.00000000  0.00000000       0.006
   0.44444444 -0.00000000  0.00000000       0.006
  -0.00000000  0.11111111  0.00000000       0.006
   0.11111111  0.11111111  0.00000000       0.006
   0.22222222  0.11111111  0.00000000       0.006
   0.33333333  0.11111111  0.00000000       0.006
   0.44444444  0.11111111  0.00000000       0.006
  -0.44444444  0.11111111  0.00000000       0.006
  -0.33333333  0.11111111  0.00000000       0.006
  -0.22222222  0.11111111  0.00000000       0.006
  -0.11111111  0.11111111  0.00000000       0.006
  -0.00000000  0.22222222  0.00000000       0.006
   0.11111111  0.22222222  0.00000000       0.006
   0.22222222  0.22222222  0.00000000       0.006
   0.33333333  0.22222222  0.00000000       0.006
   0.44444444  0.22222222  0.00000000       0.006
  -0.44444444  0.22222222  0.00000000       0.006
  -0.33333333  0.22222222  0.00000000       0.006
  -0.22222222  0.22222222  0.00000000       0.006
  -0.11111111  0.22222222  0.00000000       0.006
   0.00000000  0.33333333  0.00000000       0.006
   0.11111111  0.33333333  0.00000000       0.006
   0.22222222  0.33333333  0.00000000       0.006
   0.33333333  0.33333333  0.00000000       0.006
   0.44444444  0.33333333  0.00000000       0.006
  -0.44444444  0.33333333  0.00000000       0.006
  -0.33333333  0.33333333  0.00000000       0.006
  -0.22222222  0.33333333  0.00000000       0.006
  -0.11111111  0.33333333  0.00000000       0.006
  -0.00000000  0.44444444  0.00000000       0.006
   0.11111111  0.44444444  0.00000000       0.006
   0.22222222  0.44444444  0.00000000       0.006
   0.33333333  0.44444444  0.00000000       0.006
   0.44444444  0.44444444  0.00000000       0.006
  -0.44444444  0.44444444  0.00000000       0.006
  -0.33333333  0.44444444  0.00000000       0.006
  -0.22222222  0.44444444  0.00000000       0.006
  -0.11111111  0.44444444  0.00000000       0.006
   0.00000000  0.00000000  0.25000000       0.006
   0.11111111  0.00000000  0.25000000       0.006
   0.22222222 -0.00000000  0.25000000       0.006
   0.33333333 -0.00000000  0.25000000       0.006
   0.44444444 -0.00000000  0.25000000       0.006
  -0.44444444  0.00000000  0.25000000       0.006
  -0.33333333  0.00000000  0.25000000       0.006
  -0.22222222  0.00000000  0.25000000       0.006
  -0.11111111  0.00000000  0.25000000       0.006
  -0.00000000  0.11111111  0.25000000       0.006
   0.11111111  0.11111111  0.25000000       0.006
   0.22222222  0.11111111  0.25000000       0.006
   0.33333333  0.11111111  0.25000000       0.006
   0.44444444  0.11111111  0.25000000       0.006
  -0.44444444  0.11111111  0.25000000       0.006
  -0.33333333  0.11111111  0.25000000       0.006
  -0.22222222  0.11111111  0.25000000       0.006
  -0.11111111  0.11111111  0.25000000       0.006
  -0.00000000  0.22222222  0.25000000       0.006
   0.11111111  0.22222222  0.25000000       0.006
   0.22222222  0.22222222  0.25000000       0.006
   0.33333333  0.22222222  0.25000000       0.006
   0.44444444  0.22222222  0.25000000       0.006
  -0.44444444  0.22222222  0.25000000       0.006
  -0.33333333  0.22222222  0.25000000       0.006
  -0.22222222  0.22222222  0.25000000       0.006
  -0.11111111  0.22222222  0.25000000       0.006
   0.00000000  0.33333333  0.25000000       0.006
   0.11111111  0.33333333  0.25000000       0.006
   0.22222222  0.33333333  0.25000000       0.006
   0.33333333  0.33333333  0.25000000       0.006
   0.44444444  0.33333333  0.25000000       0.006
  -0.44444444  0.33333333  0.25000000       0.006
  -0.33333333  0.33333333  0.25000000       0.006
  -0.22222222  0.33333333  0.25000000       0.006
  -0.11111111  0.33333333  0.25000000       0.006
  -0.00000000  0.44444444  0.25000000       0.006
   0.11111111  0.44444444  0.25000000       0.006
   0.22222222  0.44444444  0.25000000       0.006
   0.33333333  0.44444444  0.25000000       0.006
   0.44444444  0.44444444  0.25000000       0.006
  -0.44444444  0.44444444  0.25000000       0.006
  -0.33333333  0.44444444  0.25000000       0.006
  -0.22222222  0.44444444  0.25000000       0.006
  -0.11111111  0.44444444  0.25000000       0.006
   0.00000000 -0.44444444  0.25000000       0.006
   0.11111111 -0.44444444  0.25000000       0.006
   0.22222222 -0.44444444  0.25000000       0.006
   0.33333333 -0.44444444  0.25000000       0.006
   0.44444444 -0.44444444  0.25000000       0.006
  -0.44444444 -0.44444444  0.25000000       0.006
  -0.33333333 -0.44444444  0.25000000       0.006
  -0.22222222 -0.44444444  0.25000000       0.006
  -0.11111111 -0.44444444  0.25000000       0.006
   0.00000000 -0.33333333  0.25000000       0.006
   0.11111111 -0.33333333  0.25000000       0.006
   0.22222222 -0.33333333  0.25000000       0.006
   0.33333333 -0.33333333  0.25000000       0.006
   0.44444444 -0.33333333  0.25000000       0.006
  -0.44444444 -0.33333333  0.25000000       0.006
  -0.33333333 -0.33333333  0.25000000       0.006
  -0.22222222 -0.33333333  0.25000000       0.006
  -0.11111111 -0.33333333  0.25000000       0.006
   0.00000000 -0.22222222  0.25000000       0.006
   0.11111111 -0.22222222  0.25000000       0.006
   0.22222222 -0.22222222  0.25000000       0.006
   0.33333333 -0.22222222  0.25000000       0.006
   0.44444444 -0.22222222  0.25000000       0.006
  -0.44444444 -0.22222222  0.25000000       0.006
  -0.33333333 -0.22222222  0.25000000       0.006
  -0.22222222 -0.22222222  0.25000000       0.006
  -0.11111111 -0.22222222  0.25000000       0.006
   0.00000000 -0.11111111  0.25000000       0.006
   0.11111111 -0.11111111  0.25000000       0.006
   0.22222222 -0.11111111  0.25000000       0.006
   0.33333333 -0.11111111  0.25000000       0.006
   0.44444444 -0.11111111  0.25000000       0.006
  -0.44444444 -0.11111111  0.25000000       0.006
  -0.33333333 -0.11111111  0.25000000       0.006
  -0.22222222 -0.11111111  0.25000000       0.006
  -0.11111111 -0.11111111  0.25000000       0.006
   0.00000000  0.00000000  0.50000000       0.003
   0.11111111  0.00000000  0.50000000       0.006
   0.22222222 -0.00000000  0.50000000       0.006
   0.33333333 -0.00000000  0.50000000       0.006
   0.44444444 -0.00000000  0.50000000       0.006
  -0.00000000  0.11111111  0.50000000       0.006
   0.11111111  0.11111111  0.50000000       0.006
   0.22222222  0.11111111  0.50000000       0.006
   0.33333333  0.11111111  0.50000000       0.006
   0.44444444  0.11111111  0.50000000       0.006
  -0.44444444  0.11111111  0.50000000       0.006
  -0.33333333  0.11111111  0.50000000       0.006
  -0.22222222  0.11111111  0.50000000       0.006
  -0.11111111  0.11111111  0.50000000       0.006
  -0.00000000  0.22222222  0.50000000       0.006
   0.11111111  0.22222222  0.50000000       0.006
   0.22222222  0.22222222  0.50000000       0.006
   0.33333333  0.22222222  0.50000000       0.006
   0.44444444  0.22222222  0.50000000       0.006
  -0.44444444  0.22222222  0.50000000       0.006
  -0.33333333  0.22222222  0.50000000       0.006
  -0.22222222  0.22222222  0.50000000       0.006
  -0.11111111  0.22222222  0.50000000       0.006
   0.00000000  0.33333333  0.50000000       0.006
   0.11111111  0.33333333  0.50000000       0.006
   0.22222222  0.33333333  0.50000000       0.006
   0.33333333  0.33333333  0.50000000       0.006
   0.44444444  0.33333333  0.50000000       0.006
  -0.44444444  0.33333333  0.50000000       0.006
  -0.33333333  0.33333333  0.50000000       0.006
  -0.22222222  0.33333333  0.50000000       0.006
  -0.11111111  0.33333333  0.50000000       0.006
  -0.00000000  0.44444444  0.50000000       0.006
   0.11111111  0.44444444  0.50000000       0.006
   0.22222222  0.44444444  0.50000000       0.006
   0.33333333  0.44444444  0.50000000       0.006
   0.44444444  0.44444444  0.50000000       0.006
  -0.44444444  0.44444444  0.50000000       0.006
  -0.33333333  0.44444444  0.50000000       0.006
  -0.22222222  0.44444444  0.50000000       0.006
  -0.11111111  0.44444444  0.50000000       0.006
 
 position of ions in fractional coordinates (direct lattice) 
   0.49999985  0.00000017  0.12500000
   0.99999985  0.00000017  0.12500000
   0.49999985  0.50000017  0.12500000
   0.99999985  0.50000017  0.12500000
   0.49999985  0.00000017  0.62500000
   0.99999985  0.00000017  0.62500000
   0.49999985  0.50000017  0.62500000
   0.99999985  0.50000017  0.62500000
   0.00000017  0.49999985  0.37500000
   0.50000017  0.49999985  0.37500000
   0.00000017  0.99999985  0.37500000
   0.50000017  0.99999985  0.37500000
   0.00000017  0.49999985  0.87500000
   0.50000017  0.49999985  0.87500000
   0.00000017  0.99999985  0.87500000
   0.50000017  0.99999985  0.87500000
   0.16733530  0.33335053  0.12568583
   0.66664946  0.33335053  0.12500000
   0.16664946  0.83335053  0.12500000
   0.66664946  0.83335053  0.12500000
   0.16664946  0.33335053  0.62500000
   0.66664946  0.33335053  0.62500000
   0.16664946  0.83335053  0.62500000
   0.66664946  0.83335053  0.62500000
   0.33335053  0.16664946  0.37500000
   0.83335053  0.16664946  0.37500000
   0.33335053  0.66664946  0.37500000
   0.83335053  0.66664946  0.37500000
   0.33335053  0.16664946  0.87500000
   0.83335053  0.16664946  0.87500000
   0.33335053  0.66664946  0.87500000
   0.83335053  0.66664946  0.87500000
 
 position of ions in cartesian coordinates  (Angst):
   2.46715426 -0.00011045  1.71506429
   4.93430971 -0.00022165  1.71506429
   1.23348024  2.13645323  1.71506429
   3.70063568  2.13634203  1.71506429
   2.46715426 -0.00011045  8.57532145
   4.93430971 -0.00022165  8.57532145
   1.23348024  2.13645323  8.57532145
   3.70063568  2.13634203  8.57532145
  -1.23367279  2.13656304  5.14519287
   1.23348265  2.13645184  5.14519287
  -2.46734681  4.27312673  5.14519287
  -0.00019137  4.27301553  5.14519287
  -1.23367279  2.13656304 12.00545003
   1.23348265  2.13645184 12.00545003
  -2.46734681  4.27312673 12.00545003
  -0.00019137  4.27301553 12.00545003
   0.00319261  1.42441204  1.72447427
   2.46696394  1.42430100  1.71506429
  -1.23386552  3.56097589  1.71506429
   1.23328992  3.56086469  1.71506429
  -0.00019150  1.42441220  8.57532145
   2.46696394  1.42430100  8.57532145
  -1.23386552  3.56097589  8.57532145
   1.23328992  3.56086469  8.57532145
   1.23367290  0.71204025  5.14519287
   3.70082834  0.71192905  5.14519287
  -0.00000112  2.84860394  5.14519287
   2.46715432  2.84849274  5.14519287
   1.23367290  0.71204025 12.00545003
   3.70082834  0.71192905 12.00545003
  -0.00000112  2.84860394 12.00545003
   2.46715432  2.84849274 12.00545003
 


--------------------------------------------------------------------------------------------------------


 k-point  1 :   0.0000 0.0000 0.0000  plane waves:    9607
 k-point  2 :   0.1111 0.0000 0.0000  plane waves:    9633
 k-point  3 :   0.2222-0.0000 0.0000  plane waves:    9641
 k-point  4 :   0.3333-0.0000 0.0000  plane waves:    9657
 k-point  5 :   0.4444-0.0000 0.0000  plane waves:    9671
 k-point  6 :  -0.0000 0.1111 0.0000  plane waves:    9633
 k-point  7 :   0.1111 0.1111 0.0000  plane waves:    9624
 k-point  8 :   0.2222 0.1111 0.0000  plane waves:    9658
 k-point  9 :   0.3333 0.1111 0.0000  plane waves:    9654
 k-point 10 :   0.4444 0.1111 0.0000  plane waves:    9670
 k-point 11 :  -0.4444 0.1111 0.0000  plane waves:    9654
 k-point 12 :  -0.3333 0.1111 0.0000  plane waves:    9658
 k-point 13 :  -0.2222 0.1111 0.0000  plane waves:    9624
 k-point 14 :  -0.1111 0.1111 0.0000  plane waves:    9633
 k-point 15 :  -0.0000 0.2222 0.0000  plane waves:    9641
 k-point 16 :   0.1111 0.2222 0.0000  plane waves:    9658
 k-point 17 :   0.2222 0.2222 0.0000  plane waves:    9646
 k-point 18 :   0.3333 0.2222 0.0000  plane waves:    9670
 k-point 19 :   0.4444 0.2222 0.0000  plane waves:    9670
 k-point 20 :  -0.4444 0.2222 0.0000  plane waves:    9646
 k-point 21 :  -0.3333 0.2222 0.0000  plane waves:    9658
 k-point 22 :  -0.2222 0.2222 0.0000  plane waves:    9641
 k-point 23 :  -0.1111 0.2222 0.0000  plane waves:    9624
 k-point 24 :   0.0000 0.3333 0.0000  plane waves:    9657
 k-point 25 :   0.1111 0.3333 0.0000  plane waves:    9654
 k-point 26 :   0.2222 0.3333 0.0000  plane waves:    9670
 k-point 27 :   0.3333 0.3333 0.0000  plane waves:    9696
 k-point 28 :   0.4444 0.3333 0.0000  plane waves:    9668
 k-point 29 :  -0.4444 0.3333 0.0000  plane waves:    9654
 k-point 30 :  -0.3333 0.3333 0.0000  plane waves:    9661
 k-point 31 :  -0.2222 0.3333 0.0000  plane waves:    9658
 k-point 32 :  -0.1111 0.3333 0.0000  plane waves:    9658
 k-point 33 :  -0.0000 0.4444 0.0000  plane waves:    9671
 k-point 34 :   0.1111 0.4444 0.0000  plane waves:    9670
 k-point 35 :   0.2222 0.4444 0.0000  plane waves:    9670
 k-point 36 :   0.3333 0.4444 0.0000  plane waves:    9668
 k-point 37 :   0.4444 0.4444 0.0000  plane waves:    9670
 k-point 38 :  -0.4444 0.4444 0.0000  plane waves:    9667
 k-point 39 :  -0.3333 0.4444 0.0000  plane waves:    9654
 k-point 40 :  -0.2222 0.4444 0.0000  plane waves:    9646
 k-point 41 :  -0.1111 0.4444 0.0000  plane waves:    9654
 k-point 42 :   0.0000 0.0000 0.2500  plane waves:    9571
 k-point 43 :   0.1111 0.0000 0.2500  plane waves:    9623
 k-point 44 :   0.2222-0.0000 0.2500  plane waves:    9653
 k-point 45 :   0.3333-0.0000 0.2500  plane waves:    9673
 k-point 46 :   0.4444-0.0000 0.2500  plane waves:    9667
 k-point 47 :  -0.4444 0.0000 0.2500  plane waves:    9667
 k-point 48 :  -0.3333 0.0000 0.2500  plane waves:    9673
 k-point 49 :  -0.2222 0.0000 0.2500  plane waves:    9653
 k-point 50 :  -0.1111 0.0000 0.2500  plane waves:    9623
 k-point 51 :  -0.0000 0.1111 0.2500  plane waves:    9623
 k-point 52 :   0.1111 0.1111 0.2500  plane waves:    9638
 k-point 53 :   0.2222 0.1111 0.2500  plane waves:    9651
 k-point 54 :   0.3333 0.1111 0.2500  plane waves:    9664
 k-point 55 :   0.4444 0.1111 0.2500  plane waves:    9682
 k-point 56 :  -0.4444 0.1111 0.2500  plane waves:    9663
 k-point 57 :  -0.3333 0.1111 0.2500  plane waves:    9652
 k-point 58 :  -0.2222 0.1111 0.2500  plane waves:    9641
 k-point 59 :  -0.1111 0.1111 0.2500  plane waves:    9623
 k-point 60 :  -0.0000 0.2222 0.2500  plane waves:    9653
 k-point 61 :   0.1111 0.2222 0.2500  plane waves:    9651
 k-point 62 :   0.2222 0.2222 0.2500  plane waves:    9648
 k-point 63 :   0.3333 0.2222 0.2500  plane waves:    9655
 k-point 64 :   0.4444 0.2222 0.2500  plane waves:    9655
 k-point 65 :  -0.4444 0.2222 0.2500  plane waves:    9648
 k-point 66 :  -0.3333 0.2222 0.2500  plane waves:    9651
 k-point 67 :  -0.2222 0.2222 0.2500  plane waves:    9653
 k-point 68 :  -0.1111 0.2222 0.2500  plane waves:    9641
 k-point 69 :   0.0000 0.3333 0.2500  plane waves:    9673
 k-point 70 :   0.1111 0.3333 0.2500  plane waves:    9664
 k-point 71 :   0.2222 0.3333 0.2500  plane waves:    9655
 k-point 72 :   0.3333 0.3333 0.2500  plane waves:    9669
 k-point 73 :   0.4444 0.3333 0.2500  plane waves:    9655
 k-point 74 :  -0.4444 0.3333 0.2500  plane waves:    9664
 k-point 75 :  -0.3333 0.3333 0.2500  plane waves:    9672
 k-point 76 :  -0.2222 0.3333 0.2500  plane waves:    9651
 k-point 77 :  -0.1111 0.3333 0.2500  plane waves:    9652
 k-point 78 :  -0.0000 0.4444 0.2500  plane waves:    9667
 k-point 79 :   0.1111 0.4444 0.2500  plane waves:    9682
 k-point 80 :   0.2222 0.4444 0.2500  plane waves:    9655
 k-point 81 :   0.3333 0.4444 0.2500  plane waves:    9655
 k-point 82 :   0.4444 0.4444 0.2500  plane waves:    9682
 k-point 83 :  -0.4444 0.4444 0.2500  plane waves:    9665
 k-point 84 :  -0.3333 0.4444 0.2500  plane waves:    9664
 k-point 85 :  -0.2222 0.4444 0.2500  plane waves:    9648
 k-point 86 :  -0.1111 0.4444 0.2500  plane waves:    9663
 k-point 87 :   0.0000-0.4444 0.2500  plane waves:    9667
 k-point 88 :   0.1111-0.4444 0.2500  plane waves:    9663
 k-point 89 :   0.2222-0.4444 0.2500  plane waves:    9648
 k-point 90 :   0.3333-0.4444 0.2500  plane waves:    9664
 k-point 91 :   0.4444-0.4444 0.2500  plane waves:    9665
 k-point 92 :  -0.4444-0.4444 0.2500  plane waves:    9682
 k-point 93 :  -0.3333-0.4444 0.2500  plane waves:    9655
 k-point 94 :  -0.2222-0.4444 0.2500  plane waves:    9655
 k-point 95 :  -0.1111-0.4444 0.2500  plane waves:    9682
 k-point 96 :   0.0000-0.3333 0.2500  plane waves:    9673
 k-point 97 :   0.1111-0.3333 0.2500  plane waves:    9652
 k-point 98 :   0.2222-0.3333 0.2500  plane waves:    9651
 k-point 99 :   0.3333-0.3333 0.2500  plane waves:    9672
 k-point ** :   0.4444-0.3333 0.2500  plane waves:    9664
 k-point ** :  -0.4444-0.3333 0.2500  plane waves:    9655
 k-point ** :  -0.3333-0.3333 0.2500  plane waves:    9669
 k-point ** :  -0.2222-0.3333 0.2500  plane waves:    9655
 k-point ** :  -0.1111-0.3333 0.2500  plane waves:    9664
 k-point ** :   0.0000-0.2222 0.2500  plane waves:    9653
 k-point ** :   0.1111-0.2222 0.2500  plane waves:    9641
 k-point ** :   0.2222-0.2222 0.2500  plane waves:    9653
 k-point ** :   0.3333-0.2222 0.2500  plane waves:    9651
 k-point ** :   0.4444-0.2222 0.2500  plane waves:    9648
 k-point ** :  -0.4444-0.2222 0.2500  plane waves:    9655
 k-point ** :  -0.3333-0.2222 0.2500  plane waves:    9655
 k-point ** :  -0.2222-0.2222 0.2500  plane waves:    9648
 k-point ** :  -0.1111-0.2222 0.2500  plane waves:    9651
 k-point ** :   0.0000-0.1111 0.2500  plane waves:    9623
 k-point ** :   0.1111-0.1111 0.2500  plane waves:    9623
 k-point ** :   0.2222-0.1111 0.2500  plane waves:    9641
 k-point ** :   0.3333-0.1111 0.2500  plane waves:    9652
 k-point ** :   0.4444-0.1111 0.2500  plane waves:    9663
 k-point ** :  -0.4444-0.1111 0.2500  plane waves:    9682
 k-point ** :  -0.3333-0.1111 0.2500  plane waves:    9664
 k-point ** :  -0.2222-0.1111 0.2500  plane waves:    9651
 k-point ** :  -0.1111-0.1111 0.2500  plane waves:    9638
 k-point ** :   0.0000 0.0000 0.5000  plane waves:    9658
 k-point ** :   0.1111 0.0000 0.5000  plane waves:    9622
 k-point ** :   0.2222-0.0000 0.5000  plane waves:    9654
 k-point ** :   0.3333-0.0000 0.5000  plane waves:    9666
 k-point ** :   0.4444-0.0000 0.5000  plane waves:    9662
 k-point ** :  -0.0000 0.1111 0.5000  plane waves:    9622
 k-point ** :   0.1111 0.1111 0.5000  plane waves:    9634
 k-point ** :   0.2222 0.1111 0.5000  plane waves:    9648
 k-point ** :   0.3333 0.1111 0.5000  plane waves:    9662
 k-point ** :   0.4444 0.1111 0.5000  plane waves:    9660
 k-point ** :  -0.4444 0.1111 0.5000  plane waves:    9662
 k-point ** :  -0.3333 0.1111 0.5000  plane waves:    9646
 k-point ** :  -0.2222 0.1111 0.5000  plane waves:    9634
 k-point ** :  -0.1111 0.1111 0.5000  plane waves:    9616
 k-point ** :  -0.0000 0.2222 0.5000  plane waves:    9654
 k-point ** :   0.1111 0.2222 0.5000  plane waves:    9648
 k-point ** :   0.2222 0.2222 0.5000  plane waves:    9652
 k-point ** :   0.3333 0.2222 0.5000  plane waves:    9658
 k-point ** :   0.4444 0.2222 0.5000  plane waves:    9660
 k-point ** :  -0.4444 0.2222 0.5000  plane waves:    9652
 k-point ** :  -0.3333 0.2222 0.5000  plane waves:    9650
 k-point ** :  -0.2222 0.2222 0.5000  plane waves:    9652
 k-point ** :  -0.1111 0.2222 0.5000  plane waves:    9634
 k-point ** :   0.0000 0.3333 0.5000  plane waves:    9666
 k-point ** :   0.1111 0.3333 0.5000  plane waves:    9662
 k-point ** :   0.2222 0.3333 0.5000  plane waves:    9658
 k-point ** :   0.3333 0.3333 0.5000  plane waves:    9654
 k-point ** :   0.4444 0.3333 0.5000  plane waves:    9658
 k-point ** :  -0.4444 0.3333 0.5000  plane waves:    9662
 k-point ** :  -0.3333 0.3333 0.5000  plane waves:    9666
 k-point ** :  -0.2222 0.3333 0.5000  plane waves:    9650
 k-point ** :  -0.1111 0.3333 0.5000  plane waves:    9646
 k-point ** :  -0.0000 0.4444 0.5000  plane waves:    9662
 k-point ** :   0.1111 0.4444 0.5000  plane waves:    9660
 k-point ** :   0.2222 0.4444 0.5000  plane waves:    9660
 k-point ** :   0.3333 0.4444 0.5000  plane waves:    9658
 k-point ** :   0.4444 0.4444 0.5000  plane waves:    9660
 k-point ** :  -0.4444 0.4444 0.5000  plane waves:    9660
 k-point ** :  -0.3333 0.4444 0.5000  plane waves:    9662
 k-point ** :  -0.2222 0.4444 0.5000  plane waves:    9652
 k-point ** :  -0.1111 0.4444 0.5000  plane waves:    9662

 maximum and minimum number of plane-waves per node :      9696     9571

 maximum number of plane-waves:      9696
 maximum index in each direction: 
   IXMAX=   10   IYMAX=   10   IZMAX=   27
   IXMIN=  -10   IYMIN=  -10   IZMIN=  -27

 WARNING: aliasing errors must be expected set NGX to  42 to avoid them
 WARNING: aliasing errors must be expected set NGY to  42 to avoid them
 NGZ is ok and might be reduce to 110
 aliasing errors are usually negligible using standard VASP settings
 and one can safely disregard these warnings

 serial   3D FFT for wavefunctions
 parallel 3D FFT for charge:
    minimum data exchange during FFTs selected (reduces bandwidth)


 total amount of memory used by VASP on root node   528062. kBytes
========================================================================

   base      :      30000. kBytes
   nonl-proj :     106113. kBytes
   fftplans  :       9104. kBytes
   grid      :      19307. kBytes
   one-center:         98. kBytes
   wavefun   :     363440. kBytes
 
     INWAV:  cpu time    0.00: real time    0.00
 Broyden mixing: mesh for mixing (old mesh)
   NGX = 19   NGY = 19   NGZ = 55
  (NGX  = 80   NGY  = 80   NGZ  =224)
  gives a total of  19855 points

 initial charge density was supplied:
 charge density of overlapping atoms calculated
 number of electron     128.0000000 magnetization 
 keeping initial charge density in first step


--------------------------------------------------------------------------------------------------------


 Maximum index for augmentation-charges         1455 (set IRDMAX)


--------------------------------------------------------------------------------------------------------


 First call to EWALD:  gamma=   0.268
 Maximum number of real-space cells 4x 4x 2
 Maximum number of reciprocal cells 2x 2x 5

 FEWALD executed in parallel
    FEWALD:  cpu time    0.00: real time    0.00


----------------------------------------- Iteration    1(   1)  ---------------------------------------


    POTLOK:  cpu time    0.23: real time    0.24
    SETDIJ:  cpu time    0.02: real time    0.02
     EDDAV:  cpu time  170.69: real time  170.79
 BZINTS: Fermi energy: 15.702801;128.000000 electrons
         Band energy:  33.068753;  BLOECHL correction: -0.111265
       DOS:  cpu time    0.22: real time    0.22
    --------------------------------------------
      LOOP:  cpu time  171.16: real time  171.26

 eigenvalue-minimisations  : 27384
 total energy-change (2. order) : 0.6002987E+03  (-0.7149271E+04)
 number of electron     128.0000000 magnetization 
 augmentation part      128.0000000 magnetization 

 Free energy of the ion-electron system (eV)
  ---------------------------------------------------
  alpha Z        PSCENC =       288.41670776
  Ewald energy   TEWEN  =     -3576.14970295
  -Hartree energ DENC   =     -1259.73406859
  -exchange      EXHF   =         0.00000000
  -V(xc)+E(xc)   XCENC  =       442.70312271
  PAW double counting   =      1210.60617908    -1247.42152856
  entropy T*S    EENTRO =         0.00000000
  eigenvalues    EBANDS =        33.06875328
  atomic energy  EATOM  =      4708.80920826
  ---------------------------------------------------
  free energy    TOTEN  =       600.29867100 eV

  energy without entropy =      600.29867100  energy(sigma->0) =      600.29867100


--------------------------------------------------------------------------------------------------------




----------------------------------------- Iteration    1(   2)  ---------------------------------------


     EDDAV:  cpu time  198.66: real time  198.76
 BZINTS: Fermi energy:  3.640217;128.000000 electrons
         Band energy:-829.390959;  BLOECHL correction: -0.001273
       DOS:  cpu time    0.16: real time    0.16
    --------------------------------------------
      LOOP:  cpu time  198.83: real time  198.93

 eigenvalue-minimisations  : 34164
 total energy-change (2. order) :-0.8624597E+03  (-0.8316247E+03)
 number of electron     128.0000000 magnetization 
 augmentation part      128.0000000 magnetization 

 Free energy of the ion-electron system (eV)
  ---------------------------------------------------
  alpha Z        PSCENC =       288.41670776
  Ewald energy   TEWEN  =     -3576.14970295
  -Hartree energ DENC   =     -1259.73406859
  -exchange      EXHF   =         0.00000000
  -V(xc)+E(xc)   XCENC  =       442.70312271
  PAW double counting   =      1210.60617908    -1247.42152856
  entropy T*S    EENTRO =         0.00000000
  eigenvalues    EBANDS =      -829.39095910
  atomic energy  EATOM  =      4708.80920826
  ---------------------------------------------------
  free energy    TOTEN  =      -262.16104139 eV

  energy without entropy =     -262.16104139  energy(sigma->0) =     -262.16104139


--------------------------------------------------------------------------------------------------------




----------------------------------------- Iteration    1(   3)  ---------------------------------------


     EDDAV:  cpu time  201.96: real time  202.06
 BZINTS: Fermi energy:  2.950870;128.000000 electrons
         Band energy:-880.048144;  BLOECHL correction: -0.000000
       DOS:  cpu time    0.11: real time    0.11
    --------------------------------------------
      LOOP:  cpu time  202.07: real time  202.18

 eigenvalue-minimisations  : 33384
 total energy-change (2. order) :-0.5065718E+02  (-0.5018332E+02)
 number of electron     128.0000000 magnetization 
 augmentation part      128.0000000 magnetization 

 Free energy of the ion-electron system (eV)
  ---------------------------------------------------
  alpha Z        PSCENC =       288.41670776
  Ewald energy   TEWEN  =     -3576.14970295
  -Hartree energ DENC   =     -1259.73406859
  -exchange      EXHF   =         0.00000000
  -V(xc)+E(xc)   XCENC  =       442.70312271
  PAW double counting   =      1210.60617908    -1247.42152856
  entropy T*S    EENTRO =         0.00000000
  eigenvalues    EBANDS =      -880.04814357
  atomic energy  EATOM  =      4708.80920826
  ---------------------------------------------------
  free energy    TOTEN  =      -312.81822585 eV

  energy without entropy =     -312.81822585  energy(sigma->0) =     -312.81822585


--------------------------------------------------------------------------------------------------------




----------------------------------------- Iteration    1(   4)  ---------------------------------------


     EDDAV:  cpu time  201.68: real time  201.78
 BZINTS: Fermi energy:  2.942340;128.000000 electrons
         Band energy:-881.017457;  BLOECHL correction: -0.000001
       DOS:  cpu time    0.10: real time    0.10
    --------------------------------------------
      LOOP:  cpu time  201.78: real time  201.89

 eigenvalue-minimisations  : 35004
 total energy-change (2. order) :-0.9693134E+00  (-0.9674597E+00)
 number of electron     128.0000000 magnetization 
 augmentation part      128.0000000 magnetization 

 Free energy of the ion-electron system (eV)
  ---------------------------------------------------
  alpha Z        PSCENC =       288.41670776
  Ewald energy   TEWEN  =     -3576.14970295
  -Hartree energ DENC   =     -1259.73406859
  -exchange      EXHF   =         0.00000000
  -V(xc)+E(xc)   XCENC  =       442.70312271
  PAW double counting   =      1210.60617908    -1247.42152856
  entropy T*S    EENTRO =         0.00000000
  eigenvalues    EBANDS =      -881.01745696
  atomic energy  EATOM  =      4708.80920826
  ---------------------------------------------------
  free energy    TOTEN  =      -313.78753924 eV

  energy without entropy =     -313.78753924  energy(sigma->0) =     -313.78753924


--------------------------------------------------------------------------------------------------------




----------------------------------------- Iteration    1(   5)  ---------------------------------------


     EDDAV:  cpu time  206.25: real time  206.36
 BZINTS: Fermi energy:  2.942211;128.000000 electrons
         Band energy:-881.046212;  BLOECHL correction: -0.000001
       DOS:  cpu time    0.10: real time    0.10
    CHARGE:  cpu time    8.58: real time    8.59
    MIXING:  cpu time    0.01: real time    0.01
    --------------------------------------------
      LOOP:  cpu time  214.94: real time  215.06

 eigenvalue-minimisations  : 35196
 total energy-change (2. order) :-0.2875490E-01  (-0.2874227E-01)
 number of electron     128.0000010 magnetization 
 augmentation part        3.3972781 magnetization 

 Broyden mixing:
  rms(total) = 0.22045E+01    rms(broyden)= 0.22042E+01
  rms(prec ) = 0.25906E+01
  weight for this iteration     100.00

 Free energy of the ion-electron system (eV)
  ---------------------------------------------------
  alpha Z        PSCENC =       288.41670776
  Ewald energy   TEWEN  =     -3576.14970295
  -Hartree energ DENC   =     -1259.73406859
  -exchange      EXHF   =         0.00000000
  -V(xc)+E(xc)   XCENC  =       442.70312271
  PAW double counting   =      1210.60617908    -1247.42152856
  entropy T*S    EENTRO =         0.00000000
  eigenvalues    EBANDS =      -881.04621186
  atomic energy  EATOM  =      4708.80920826
  ---------------------------------------------------
  free energy    TOTEN  =      -313.81629414 eV

  energy without entropy =     -313.81629414  energy(sigma->0) =     -313.81629414


--------------------------------------------------------------------------------------------------------




----------------------------------------- Iteration    1(   6)  ---------------------------------------


    POTLOK:  cpu time    0.23: real time    0.23
    SETDIJ:  cpu time    0.01: real time    0.02
     EDDAV:  cpu time  197.24: real time  197.34
 BZINTS: Fermi energy:  3.720349;128.000000 electrons
         Band energy:-738.799236;  BLOECHL correction: -0.000002
       DOS:  cpu time    0.12: real time    0.12
    CHARGE:  cpu time    8.87: real time    8.88
    MIXING:  cpu time    0.01: real time    0.01
    --------------------------------------------
      LOOP:  cpu time  206.49: real time  206.60

 eigenvalue-minimisations  : 31296
 total energy-change (2. order) : 0.1447961E+02  (-0.1491752E+01)
 number of electron     128.0000009 magnetization 
 augmentation part        3.2413694 magnetization 

 Broyden mixing:
  rms(total) = 0.11566E+01    rms(broyden)= 0.11566E+01
  rms(prec ) = 0.13507E+01
  weight for this iteration     100.00

 eigenvalues of (default mixing * dielectric matrix)
  average eigenvalue GAMMA=   2.0337
  2.0337

 Free energy of the ion-electron system (eV)
  ---------------------------------------------------
  alpha Z        PSCENC =       288.41670776
  Ewald energy   TEWEN  =     -3576.14970295
  -Hartree energ DENC   =     -1392.96449665
  -exchange      EXHF   =         0.00000000
  -V(xc)+E(xc)   XCENC  =       451.09120359
  PAW double counting   =      1640.99583558    -1680.73619883
  entropy T*S    EENTRO =         0.00000000
  eigenvalues    EBANDS =      -738.79923638
  atomic energy  EATOM  =      4708.80920826
  ---------------------------------------------------
  free energy    TOTEN  =      -299.33667961 eV

  energy without entropy =     -299.33667961  energy(sigma->0) =     -299.33667961


--------------------------------------------------------------------------------------------------------




----------------------------------------- Iteration    1(   7)  ---------------------------------------


    POTLOK:  cpu time    0.24: real time    0.24
    SETDIJ:  cpu time    0.02: real time    0.02
     EDDAV:  cpu time  186.62: real time  186.72
 BZINTS: Fermi energy:  4.478535;128.000000 electrons
         Band energy:-593.145278;  BLOECHL correction:  0.000000
       DOS:  cpu time    0.06: real time    0.06
    CHARGE:  cpu time    6.85: real time    6.86
    MIXING:  cpu time    0.01: real time    0.01
    --------------------------------------------
      LOOP:  cpu time  193.80: real time  193.90

 eigenvalue-minimisations  : 30828
 total energy-change (2. order) : 0.4611510E+01  (-0.1582553E+01)
 number of electron     128.0000008 magnetization 
 augmentation part        3.0754917 magnetization 

 Broyden mixing:
  rms(total) = 0.19555E+00    rms(broyden)= 0.19539E+00
  rms(prec ) = 0.21095E+00
  weight for this iteration     100.00

 eigenvalues of (default mixing * dielectric matrix)
  average eigenvalue GAMMA=   2.1290
  2.1290  2.1290

 Free energy of the ion-electron system (eV)
  ---------------------------------------------------
  alpha Z        PSCENC =       288.41670776
  Ewald energy   TEWEN  =     -3576.14970295
  -Hartree energ DENC   =     -1541.18865792
  -exchange      EXHF   =         0.00000000
  -V(xc)+E(xc)   XCENC  =       460.65728470
  PAW double counting   =      2178.15822218    -2220.28295333
  entropy T*S    EENTRO =         0.00000000
  eigenvalues    EBANDS =      -593.14527797
  atomic energy  EATOM  =      4708.80920826
  ---------------------------------------------------
  free energy    TOTEN  =      -294.72516927 eV

  energy without entropy =     -294.72516927  energy(sigma->0) =     -294.72516927


--------------------------------------------------------------------------------------------------------




----------------------------------------- Iteration    1(   8)  ---------------------------------------


    POTLOK:  cpu time    0.20: real time    0.20
    SETDIJ:  cpu time    0.01: real time    0.01
     EDDAV:  cpu time  193.63: real time  193.73
 BZINTS: Fermi energy:  4.449177;128.000000 electrons
         Band energy:-595.551582;  BLOECHL correction: -0.000000
       DOS:  cpu time    0.06: real time    0.06
    CHARGE:  cpu time    8.49: real time    8.50
    MIXING:  cpu time    0.01: real time    0.01
    --------------------------------------------
      LOOP:  cpu time  202.41: real time  202.51

 eigenvalue-minimisations  : 31656
 total energy-change (2. order) :-0.6449736E-01  (-0.4710813E-01)
 number of electron     128.0000008 magnetization 
 augmentation part        3.0682852 magnetization 

 Broyden mixing:
  rms(total) = 0.53451E-01    rms(broyden)= 0.53426E-01
  rms(prec ) = 0.69330E-01
  weight for this iteration     100.00

 eigenvalues of (default mixing * dielectric matrix)
  average eigenvalue GAMMA=   1.6936
  2.3953  2.0338  0.6518

 Free energy of the ion-electron system (eV)
  ---------------------------------------------------
  alpha Z        PSCENC =       288.41670776
  Ewald energy   TEWEN  =     -3576.14970295
  -Hartree energ DENC   =     -1539.43913971
  -exchange      EXHF   =         0.00000000
  -V(xc)+E(xc)   XCENC  =       460.55887693
  PAW double counting   =      2204.71666925    -2246.15070439
  entropy T*S    EENTRO =         0.00000000
  eigenvalues    EBANDS =      -595.55158178
  atomic energy  EATOM  =      4708.80920826
  ---------------------------------------------------
  free energy    TOTEN  =      -294.78966663 eV

  energy without entropy =     -294.78966663  energy(sigma->0) =     -294.78966663


--------------------------------------------------------------------------------------------------------




----------------------------------------- Iteration    1(   9)  ---------------------------------------


    POTLOK:  cpu time    0.23: real time    0.23
    SETDIJ:  cpu time    0.01: real time    0.02
     EDDAV:  cpu time  194.41: real time  194.51
 BZINTS: Fermi energy:  4.459764;128.000000 electrons
         Band energy:-594.194062;  BLOECHL correction:  0.000000
       DOS:  cpu time    0.06: real time    0.06
    CHARGE:  cpu time    8.53: real time    8.53
    MIXING:  cpu time    0.01: real time    0.01
    --------------------------------------------
      LOOP:  cpu time  203.26: real time  203.36

 eigenvalue-minimisations  : 31848
 total energy-change (2. order) :-0.3169738E-02  (-0.3577938E-02)
 number of electron     128.0000008 magnetization 
 augmentation part        3.0657798 magnetization 

 Broyden mixing:
  rms(total) = 0.22779E-01    rms(broyden)= 0.22778E-01
  rms(prec ) = 0.38508E-01
  weight for this iteration     100.00

 eigenvalues of (default mixing * dielectric matrix)
  average eigenvalue GAMMA=   1.5204
  2.4267  2.0163  0.8193  0.8193

 Free energy of the ion-electron system (eV)
  ---------------------------------------------------
  alpha Z        PSCENC =       288.41670776
  Ewald energy   TEWEN  =     -3576.14970295
  -Hartree energ DENC   =     -1541.03748039
  -exchange      EXHF   =         0.00000000
  -V(xc)+E(xc)   XCENC  =       460.67523632
  PAW double counting   =      2216.10436941    -2257.41711278
  entropy T*S    EENTRO =         0.00000000
  eigenvalues    EBANDS =      -594.19406201
  atomic energy  EATOM  =      4708.80920826
  ---------------------------------------------------
  free energy    TOTEN  =      -294.79283636 eV

  energy without entropy =     -294.79283636  energy(sigma->0) =     -294.79283636


--------------------------------------------------------------------------------------------------------




----------------------------------------- Iteration    1(  10)  ---------------------------------------


    POTLOK:  cpu time    0.24: real time    0.24
    SETDIJ:  cpu time    0.01: real time    0.02
     EDDAV:  cpu time  232.47: real time  232.59
 BZINTS: Fermi energy:  4.465366;128.000000 electrons
         Band energy:-593.467457;  BLOECHL correction:  0.000000
       DOS:  cpu time    0.08: real time    0.08
    CHARGE:  cpu time    8.86: real time    8.86
    MIXING:  cpu time    0.01: real time    0.01
    --------------------------------------------
      LOOP:  cpu time  241.66: real time  241.79

 eigenvalue-minimisations  : 41328
 total energy-change (2. order) : 0.1169520E-02  (-0.1418452E-02)
 number of electron     128.0000008 magnetization 
 augmentation part        3.0650610 magnetization 

 Broyden mixing:
  rms(total) = 0.12659E-01    rms(broyden)= 0.12647E-01
  rms(prec ) = 0.20964E-01
  weight for this iteration     100.00

 eigenvalues of (default mixing * dielectric matrix)
  average eigenvalue GAMMA=   1.4694
  2.5626  1.9169  1.4597  0.7038  0.7038

 Free energy of the ion-electron system (eV)
  ---------------------------------------------------
[...]
     80      11.9709      0.00000
     81      12.5423      0.00000
     82      12.5437      0.00000
     83      12.8144      0.00000
     84      12.8170      0.00000

 k-point   162 :      -0.2222    0.4444    0.5000
  band No.  band energies     occupation 
      1     -14.2115      2.00000
      2     -14.2113      2.00000
      3     -14.0428      2.00000
      4     -14.0425      2.00000
      5     -12.2813      2.00000
      6     -12.2788      2.00000
      7     -12.2782      2.00000
      8     -12.2756      2.00000
      9     -12.1337      2.00000
     10     -12.1312      2.00000
     11     -12.1306      2.00000
     12     -12.1279      2.00000
     13      -9.0439      2.00000
     14      -9.0422      2.00000
     15      -8.9823      2.00000
     16      -8.9807      2.00000
     17      -8.0705      2.00000
     18      -8.0671      2.00000
     19      -8.0344      2.00000
     20      -8.0316      2.00000
     21      -5.0633      2.00000
     22      -5.0614      2.00000
     23      -5.0596      2.00000
     24      -5.0567      2.00000
     25      -4.9906      2.00000
     26      -4.9888      2.00000
     27      -4.9871      2.00000
     28      -4.9838      2.00000
     29      -4.7564      2.00000
     30      -4.7544      2.00000
     31      -4.6951      2.00000
     32      -4.6929      2.00000
     33      -2.6509      2.00000
     34      -2.6500      2.00000
     35      -2.1447      2.00000
     36      -2.1424      2.00000
     37      -2.1397      2.00000
     38      -2.1391      2.00000
     39      -2.1043      2.00000
     40      -2.1027      2.00000
     41      -2.0999      2.00000
     42      -2.0991      2.00000
     43      -1.4689      2.00000
     44      -1.4677      2.00000
     45      -1.2034      2.00000
     46      -1.2000      2.00000
     47      -1.1806      2.00000
     48      -1.1758      2.00000
     49      -0.3905      2.00000
     50      -0.3880      2.00000
     51      -0.3877      2.00000
     52      -0.3854      2.00000
     53      -0.2439      2.00000
     54      -0.2387      2.00000
     55      -0.2256      2.00000
     56      -0.2226      2.00000
     57       0.6517      2.00000
     58       0.6541      2.00000
     59       0.6543      2.00000
     60       0.6569      2.00000
     61       2.9412      2.00000
     62       2.9438      2.00000
     63       3.3657      2.00000
     64       3.3679      2.00000
     65       5.6675      0.00000
     66       5.6714      0.00000
     67       5.6989      0.00000
     68       5.7021      0.00000
     69       8.9624      0.00000
     70       8.9638      0.00000
     71       8.9652      0.00000
     72       8.9673      0.00000
     73       9.4382      0.00000
     74       9.4401      0.00000
     75       9.4413      0.00000
     76       9.4434      0.00000
     77      10.3503      0.00000
     78      10.3523      0.00000
     79      12.6474      0.00000
     80      12.6502      0.00000
     81      12.6514      0.00000
     82      12.6521      0.00000
     83      13.1213      0.00000
     84      13.1255      0.00000

 k-point   163 :      -0.1111    0.4444    0.5000
  band No.  band energies     occupation 
      1     -14.1388      2.00000
      2     -14.1387      2.00000
      3     -13.9709      2.00000
      4     -13.9706      2.00000
      5     -12.8441      2.00000
      6     -12.8439      2.00000
      7     -12.6903      2.00000
      8     -12.6900      2.00000
      9     -11.5822      2.00000
     10     -11.5821      2.00000
     11     -11.4425      2.00000
     12     -11.4422      2.00000
     13      -9.7924      2.00000
     14      -9.7920      2.00000
     15      -9.6772      2.00000
     16      -9.6768      2.00000
     17      -7.3083      2.00000
     18      -7.3067      2.00000
     19      -7.2287      2.00000
     20      -7.2271      2.00000
     21      -5.6475      2.00000
     22      -5.6460      2.00000
     23      -5.5767      2.00000
     24      -5.5752      2.00000
     25      -4.6498      2.00000
     26      -4.6481      2.00000
     27      -4.5921      2.00000
     28      -4.5903      2.00000
     29      -4.3981      2.00000
     30      -4.3979      2.00000
     31      -4.3283      2.00000
     32      -4.3280      2.00000
     33      -3.2105      2.00000
     34      -3.2088      2.00000
     35      -3.1635      2.00000
     36      -3.1619      2.00000
     37      -2.5644      2.00000
     38      -2.5635      2.00000
     39      -1.5438      2.00000
     40      -1.5425      2.00000
     41      -1.5029      2.00000
     42      -1.5015      2.00000
     43      -1.3859      2.00000
     44      -1.3849      2.00000
     45      -1.2879      2.00000
     46      -1.2873      2.00000
     47      -1.2559      2.00000
     48      -1.2552      2.00000
     49      -1.0421      2.00000
     50      -1.0412      2.00000
     51      -0.1613      2.00000
     52      -0.1597      2.00000
     53      -0.1363      2.00000
     54      -0.1350      2.00000
     55       0.0463      2.00000
     56       0.0474      2.00000
     57       0.4079      2.00000
     58       0.4086      2.00000
     59       1.3864      2.00000
     60       1.3874      2.00000
     61       2.3289      2.00000
     62       2.3301      2.00000
     63       3.0417      2.00000
     64       3.0432      2.00000
     65       6.0152      0.00000
     66       6.0177      0.00000
     67       6.3879      0.00000
     68       6.3896      0.00000
     69       8.0319      0.00000
     70       8.0334      0.00000
     71       8.4619      0.00000
     72       8.4630      0.00000
     73       9.8608      0.00000
     74       9.8635      0.00000
     75      10.3532      0.00000
     76      10.3559      0.00000
     77      10.4334      0.00000
     78      10.4359      0.00000
     79      11.9680      0.00000
     80      11.9710      0.00000
     81      12.5392      0.00000
     82      12.5398      0.00000
     83      12.8112      0.00000
     84      12.8167      0.00000


--------------------------------------------------------------------------------------------------------


 soft charge-density along one line, spin component           1
         0         1         2         3         4         5         6         7         8         9
 total charge-density along one line
 
 pseudopotential strength for first ion, spin component:           1
  9.786   0.006  -0.000  -0.000   0.000   0.000   0.000  -0.000
  0.006  -0.002  -0.000  -0.000  -0.000   0.000   0.000  -0.000
 -0.000  -0.000  -3.955   0.000   0.000  -0.015   0.000   0.000
 -0.000  -0.000   0.000  -3.949   0.000   0.000  -0.012   0.000
  0.000  -0.000   0.000   0.000  -3.955   0.000   0.000  -0.015
  0.000   0.000  -0.015   0.000   0.000  -0.764   0.000   0.000
  0.000   0.000   0.000  -0.012   0.000   0.000  -0.764  -0.000
 -0.000  -0.000   0.000   0.000  -0.015   0.000  -0.000  -0.764
 total augmentation occupancy for first ion, spin component:           1
  1.469  -1.106  -0.000  -0.000   0.000  -0.000   0.000   0.000
 -1.106   1.037   0.000  -0.000  -0.000   0.000  -0.000  -0.000
 -0.000   0.000   1.223   0.000  -0.000   0.225   0.000  -0.000
 -0.000  -0.000   0.000   0.928  -0.000  -0.000   0.103  -0.000
  0.000  -0.000  -0.000  -0.000   1.223  -0.000  -0.000   0.225
 -0.000   0.000   0.225  -0.000  -0.000   0.047  -0.000  -0.000
  0.000  -0.000   0.000   0.103  -0.000  -0.000   0.013  -0.000
  0.000  -0.000  -0.000  -0.000   0.225  -0.000  -0.000   0.047


------------------------ aborting loop because EDIFF is reached ----------------------------------------


    CHARGE:  cpu time    9.53: real time    9.53
    FORLOC:  cpu time    0.06: real time    0.06
    FORNL :  cpu time   58.62: real time   58.65
    STRESS:  cpu time  114.95: real time  115.01
    FORHAR:  cpu time    0.10: real time    0.10
    MIXING:  cpu time    0.01: real time    0.01
    OFIELD:  cpu time    0.00: real time    0.00

 ---------------------------------------------------------------------------------------------

         DFTD3 V3.0 Rev 1        
 IVDW         = 11
 DF pbe       
 parameters
 VDW_S6       =    1.0000
 VDW_S8       =    0.7220
 VDW_SR       =    1.2170
 rs18     =    1.0000
 alpha6   =   14.0000
 alpha8   =   16.0000
 k1-k3    =   16.0000    1.3333   -4.0000
 VDW_RADIUS   =   50.2022 A
 VDW_CNRADIUS =   21.1671 A
 Edisp (eV)   -2.97534

 E6    (eV) :    -1.8904
 E8    (eV) :    -1.0850
 % E8        : 36.47
    FORVDW:  cpu time    0.52: real time    0.53

  FORCE on cell =-STRESS in cart. coord.  units (eV):
  Direction    XX          YY          ZZ          XY          YZ          ZX
  --------------------------------------------------------------------------------------
  Alpha Z   288.41671   288.41671   288.41671
  Ewald     725.12194   724.72383 -5026.01338     0.39618    -0.00004    -0.00793
  Hartree  1362.68990  1362.64214 -1182.01701     0.06311     0.00001    -0.00171
  E(xc)    -467.35234  -467.35450  -484.72106     0.00103     0.00002    -0.00001
  Local   -3705.37343 -3705.00187  4321.08007    -0.38506    -0.00002     0.00774
  n-local  -112.30382  -112.31908  -102.53254    -0.00786    -0.00002    -0.00007
  augment   -12.34988   -12.34920   -11.32209    -0.00057     0.00000     0.00002
  Kinetic  1920.70861  1920.84917  2201.41294     0.01241     0.00026     0.00241
  Fock        0.00000     0.00000     0.00000     0.00000     0.00000     0.00000
  vdW        -0.55502    -0.55445    -4.17630     0.00033     0.00000    -0.00001
  -------------------------------------------------------------------------------------
  Total      -0.99735    -0.94725     0.12734     0.07958     0.00021     0.00044
  in kB      -5.52366    -5.24621     0.70524     0.44077     0.00114     0.00243
  external pressure =       -3.35 kB  Pullay stress =        0.00 kB


 VOLUME and BASIS-vectors are now :
 -----------------------------------------------------------------------------
  energy-cutoff  :      600.00
  volume of cell :      289.29
      direct lattice vectors                 reciprocal lattice vectors
     4.934310885 -0.000222400  0.000000000     0.202667819  0.117022500  0.000000000
    -2.467348046  4.273127376  0.000000000     0.000010548  0.234026730  0.000000000
     0.000000000  0.000000000 13.720514317     0.000000000  0.000000000  0.072883565

  length of vectors
     4.934310890  4.934310890 13.720514317     0.234026730  0.234026730  0.072883565


 FORCES acting on ions
    electron-ion (+dipol)            ewald-force                    non-local-force                 convergence-correction
 -----------------------------------------------------------------------------------------------
   -.782E-01 0.690E-03 0.331E+00   0.725E-01 0.132E-02 -.324E+00   -.172E-02 0.118E-02 0.883E-02   0.538E-04 0.933E-05 -.545E-02
   0.227E+00 -.673E-02 0.854E+00   -.231E+00 0.962E-02 -.881E+00   0.229E-01 0.908E-03 0.776E-01   0.269E-04 0.550E-05 -.545E-02
   -.320E+00 -.316E+00 0.858E+00   0.369E+00 0.348E+00 -.885E+00   0.152E-01 -.332E-02 0.779E-01   0.444E-04 0.211E-04 -.545E-02
   -.330E+00 0.321E+00 0.851E+00   0.380E+00 -.350E+00 -.876E+00   0.142E-01 0.614E-02 0.774E-01   0.402E-04 0.166E-05 -.545E-02
   0.611E-03 0.472E-03 -.100E+00   -.262E-02 0.152E-02 0.939E-01   -.161E-02 0.118E-02 -.149E-02   -.106E-03 0.161E-04 0.592E-02
   0.686E-03 0.479E-03 -.101E+00   -.271E-02 0.152E-02 0.943E-01   -.161E-02 0.118E-02 -.145E-02   -.922E-04 0.138E-04 0.592E-02
   0.640E-03 0.450E-03 -.101E+00   -.266E-02 0.155E-02 0.943E-01   -.161E-02 0.118E-02 -.146E-02   -.917E-04 0.109E-04 0.592E-02
   0.652E-03 0.493E-03 -.101E+00   -.266E-02 0.150E-02 0.943E-01   -.161E-02 0.118E-02 -.145E-02   -.983E-04 0.180E-04 0.592E-02
   0.190E-01 -.899E-02 -.923E-01   -.156E-01 0.703E-02 0.929E-01   0.199E-02 -.113E-02 0.202E-02   0.115E-04 -.158E-04 -.518E-03
   -.179E-01 -.130E-01 -.105E+00   0.214E-01 0.112E-01 0.106E+00   0.200E-02 -.116E-02 0.176E-02   0.912E-05 -.271E-04 -.516E-03
   0.406E-02 0.210E-01 -.988E-01   -.753E-03 -.229E-01 0.996E-01   0.202E-02 -.116E-02 0.189E-02   0.203E-04 -.297E-04 -.517E-03
   -.218E-02 -.333E-03 -.761E-01   0.575E-02 -.155E-02 0.770E-01   0.193E-02 -.115E-02 0.116E-02   0.253E-05 -.300E-04 -.517E-03
   -.174E-01 0.122E-01 -.106E+00   0.211E-01 -.141E-01 0.106E+00   0.211E-02 -.113E-02 0.172E-02   -.233E-04 -.504E-04 0.176E-05
   0.191E-01 0.822E-02 -.929E-01   -.154E-01 -.100E-01 0.930E-01   0.210E-02 -.115E-02 0.198E-02   -.146E-04 -.294E-04 0.139E-05
   0.433E-02 -.213E-01 -.993E-01   -.668E-03 0.195E-01 0.995E-01   0.213E-02 -.113E-02 0.185E-02   -.342E-04 -.326E-04 0.882E-06
   -.185E-02 -.292E-03 -.768E-01   0.568E-02 -.155E-02 0.772E-01   0.205E-02 -.114E-02 0.113E-02   -.226E-05 -.305E-04 0.287E-05
   0.741E+00 0.240E-02 -.177E+01   -.850E+00 -.474E-02 0.182E+01   -.900E-01 -.121E-02 -.181E+00   -.157E-03 -.524E-04 -.546E-02
   -.193E+00 0.193E-04 0.393E+00   0.216E+00 -.155E-02 -.370E+00   0.205E-01 -.113E-02 -.239E-01   -.108E-03 -.526E-04 -.545E-02
   -.216E-01 0.988E-01 0.393E+00   0.212E-01 -.114E+00 -.370E+00   0.999E-02 -.714E-02 -.239E-01   -.133E-03 -.665E-04 -.546E-02
   -.214E-01 -.991E-01 0.393E+00   0.211E-01 0.111E+00 -.371E+00   0.990E-02 0.509E-02 -.239E-01   -.130E-03 -.410E-04 -.545E-02
   -.138E-02 -.378E-05 -.101E+00   0.260E-02 -.153E-02 0.947E-01   0.135E-02 -.103E-02 0.501E-03   0.198E-03 -.768E-04 0.592E-02
   -.155E-02 -.958E-05 -.100E+00   0.277E-02 -.153E-02 0.940E-01   0.135E-02 -.103E-02 0.380E-03   0.185E-03 -.724E-04 0.592E-02
   -.146E-02 0.399E-04 -.100E+00   0.268E-02 -.158E-02 0.940E-01   0.135E-02 -.103E-02 0.380E-03   0.193E-03 -.695E-04 0.592E-02
   -.147E-02 -.537E-04 -.100E+00   0.268E-02 -.148E-02 0.940E-01   0.135E-02 -.103E-02 0.381E-03   0.199E-03 -.779E-04 0.592E-02
   -.199E-01 0.128E-01 -.105E+00   0.160E-01 -.112E-01 0.106E+00   -.191E-02 0.965E-03 -.487E-03   -.415E-04 0.768E-04 -.512E-03
   0.176E-01 0.872E-02 -.922E-01   -.209E-01 -.702E-02 0.929E-01   -.220E-02 0.893E-03 -.722E-04   -.436E-04 0.766E-04 -.516E-03
   0.243E-02 -.218E-01 -.988E-01   -.608E-02 0.229E-01 0.996E-01   -.199E-02 0.118E-02 -.295E-03   -.420E-04 0.775E-04 -.511E-03
   -.393E-02 -.830E-04 -.764E-01   0.438E-03 0.156E-02 0.770E-01   -.216E-02 0.101E-02 -.338E-03   -.412E-04 0.774E-04 -.513E-03
   0.174E-01 -.883E-02 -.929E-01   -.207E-01 0.100E-01 0.930E-01   -.215E-02 0.112E-02 -.132E-03   0.417E-04 0.879E-04 0.502E-05
   -.197E-01 -.128E-01 -.106E+00   0.158E-01 0.141E-01 0.106E+00   -.187E-02 0.104E-02 -.478E-03   0.442E-04 0.875E-04 0.193E-05
   0.229E-02 0.213E-01 -.993E-01   -.598E-02 -.195E-01 0.995E-01   -.195E-02 0.833E-03 -.317E-03   0.461E-04 0.883E-04 0.590E-05
   -.389E-02 -.140E-03 -.771E-01   0.357E-03 0.156E-02 0.772E-01   -.211E-02 0.100E-02 -.350E-03   0.413E-04 0.868E-04 0.442E-05
 -----------------------------------------------------------------------------------------------
   0.184E-04 -.109E-04 0.471E-02   -.335E-14 -.134E-13 -.755E-14   -.352E-05 0.144E-04 -.460E-02   -.496E-06 0.613E-06 -.368E-03
 
 
 POSITION                                       TOTAL-FORCE (eV/Angst)
 -----------------------------------------------------------------------------------
      2.46715     -0.00011      1.71506        -0.007349      0.003201      0.010592
      4.93431     -0.00022      1.71506         0.019500      0.003809      0.045996
      1.23348      2.13645      1.71506         0.064195      0.029042      0.045570
      3.70064      2.13634      1.71506         0.063960     -0.022428      0.046374
      2.46715     -0.00011      8.57532        -0.003726      0.003189     -0.001811
      4.93431     -0.00022      8.57532        -0.003723      0.003191     -0.001797
      1.23348      2.13645      8.57532        -0.003725      0.003187     -0.001799
      3.70064      2.13634      8.57532        -0.003722      0.003188     -0.001795
     -1.23367      2.13656      5.14519         0.005400     -0.003110      0.002108
      1.23348      2.13645      5.14519         0.005490     -0.002988      0.002229
     -2.46735      4.27313      5.14519         0.005341     -0.003106      0.002167
     -0.00019      4.27302      5.14519         0.005510     -0.003063      0.001606
     -1.23367      2.13656     12.00545         0.005859     -0.003063      0.002159
      1.23348      2.13645     12.00545         0.005766     -0.002995      0.002034
     -2.46735      4.27313     12.00545         0.005756     -0.002970      0.002095
     -0.00019      4.27302     12.00545         0.005881     -0.003013      0.001544
      0.00319      1.42441      1.72447        -0.200087     -0.003610     -0.135738
      2.46696      1.42430      1.71506         0.044577     -0.002707     -0.007174
     -1.23387      3.56098      1.71506         0.009538     -0.022947     -0.007234
      1.23329      3.56086      1.71506         0.009636      0.017467     -0.007130
     -0.00019      1.42441      8.57532         0.002763     -0.002646      0.000237
      2.46696      1.42430      8.57532         0.002759     -0.002647      0.000137
     -1.23387      3.56098      8.57532         0.002762     -0.002645      0.000137
      1.23329      3.56086      8.57532         0.002760     -0.002648      0.000137
      1.23367      0.71204      5.14519        -0.005828      0.002655     -0.000066
      3.70083      0.71193      5.14519        -0.005522      0.002670      0.000076
     -0.00000      2.84860      5.14519        -0.005688      0.002399     -0.000009
      2.46715      2.84849      5.14519        -0.005689      0.002569     -0.000209
      1.23367      0.71204     12.00545        -0.005451      0.002417     -0.000016
      3.70083      0.71193     12.00545        -0.005753      0.002417     -0.000096
     -0.00000      2.84860     12.00545        -0.005600      0.002676     -0.000068
      2.46715      2.84849     12.00545        -0.005591      0.002509     -0.000257
 -----------------------------------------------------------------------------------
    total drift:                                0.000014      0.000004     -0.000258


--------------------------------------------------------------------------------------------------------



  FREE ENERGIE OF THE ION-ELECTRON SYSTEM (eV)
  ---------------------------------------------------
  free  energy   TOTEN  =      -297.76793873 eV

  energy  without entropy=     -297.76793873  energy(sigma->0) =     -297.76793873
 


--------------------------------------------------------------------------------------------------------


    POTLOK:  cpu time    0.25: real time    0.25


--------------------------------------------------------------------------------------------------------


     LOOP+:  cpu time 4717.60: real time 4720.11
    4ORBIT:  cpu time    0.00: real time    0.00
 BZINTS: Fermi energy:  4.476362;128.000000 electrons
         Band energy:-592.079962;  BLOECHL correction: -0.000004

 total amount of memory used by VASP on root node   528062. kBytes
========================================================================

   base      :      30000. kBytes
   nonl-proj :     106113. kBytes
   fftplans  :       9104. kBytes
   grid      :      19307. kBytes
   one-center:         98. kBytes
   wavefun   :     363440. kBytes
 
  
  
 General timing and accounting informations for this job:
 ========================================================
  
                  Total CPU time used (sec):     4764.188
                            User time (sec):     4072.768
                          System time (sec):      691.420
                         Elapsed time (sec):     4766.960
  
                   Maximum memory used (kb):      635628.
                   Average memory used (kb):           0.
  
                          Minor page faults:     77229148
                          Major page faults:            0
                 Voluntary context switches:         1152
