  32  32   0   0
  0.4431505E+01  0.4934311E-09  0.4934311E-09  0.6725742E-09  0.5000000E-15
  1.000000000000000E-004
  CAR 
 graphite                                
     25.84544603    -13.32858684  301     15.61245345      1.00000000
    -13.329  0.0000E+00  0.0000E+00
    -13.198  0.0000E+00  0.0000E+00
    -13.067  0.0000E+00  0.0000E+00
    -12.937  0.0000E+00  0.0000E+00
    -12.806  0.0000E+00  0.0000E+00
    -12.676  0.0000E+00  0.0000E+00
    -12.545  0.0000E+00  0.0000E+00
    -12.415  0.0000E+00  0.0000E+00
    -12.284  0.0000E+00  0.0000E+00
    -12.153  0.0000E+00  0.0000E+00
    -12.023  0.0000E+00  0.0000E+00
    -11.892  0.0000E+00  0.0000E+00
    -11.762  0.0000E+00  0.0000E+00
    -11.631  0.0000E+00  0.0000E+00
    -11.500  0.0000E+00  0.0000E+00
    -11.370  0.0000E+00  0.0000E+00
    -11.239  0.2501E+00  0.8251E-02
    -11.109  0.6097E+00  0.6634E-01
    -10.978  0.7574E+00  0.1556E+00
    -10.848  0.8925E+00  0.2626E+00
    -10.717  0.1061E+01  0.3908E+00
    -10.586  0.1161E+01  0.5370E+00
    -10.456  0.1260E+01  0.6949E+00
    -10.325  0.1364E+01  0.8664E+00
    -10.195  0.1440E+01  0.1050E+01
    -10.064  0.1535E+01  0.1243E+01
     -9.934  0.1724E+01  0.1457E+01
     -9.803  0.1861E+01  0.1688E+01
     -9.672  0.1880E+01  0.1938E+01
     -9.542  0.1722E+01  0.2166E+01
     -9.411  0.2128E+01  0.2415E+01
     -9.281  0.2238E+01  0.2706E+01
     -9.150  0.2485E+01  0.2997E+01
     -9.019  0.2734E+01  0.3354E+01
     -8.889  0.1696E+01  0.3626E+01
     -8.758  0.1358E+01  0.3809E+01
     -8.628  0.1693E+01  0.4006E+01
     -8.497  0.2380E+01  0.4262E+01
     -8.367  0.3064E+01  0.4630E+01
     -8.236  0.2644E+01  0.5017E+01
     -8.105  0.2548E+01  0.5346E+01
     -7.975  0.2536E+01  0.5678E+01
     -7.844  0.2573E+01  0.6011E+01
     -7.714  0.2990E+01  0.6362E+01
     -7.583  0.3119E+01  0.6762E+01
     -7.452  0.3357E+01  0.7188E+01
     -7.322  0.3194E+01  0.7620E+01
     -7.191  0.2905E+01  0.8018E+01
     -7.061  0.2561E+01  0.8372E+01
     -6.930  0.2549E+01  0.8703E+01
     -6.800  0.2680E+01  0.9042E+01
     -6.669  0.3311E+01  0.9427E+01
     -6.538  0.3364E+01  0.9861E+01
     -6.408  0.3814E+01  0.1033E+02
     -6.277  0.3703E+01  0.1083E+02
     -6.147  0.3352E+01  0.1129E+02
     -6.016  0.3344E+01  0.1172E+02
     -5.886  0.3232E+01  0.1216E+02
     -5.755  0.3659E+01  0.1260E+02
     -5.624  0.3690E+01  0.1309E+02
     -5.494  0.3616E+01  0.1356E+02
     -5.363  0.3530E+01  0.1403E+02
     -5.233  0.3811E+01  0.1452E+02
     -5.102  0.3719E+01  0.1502E+02
     -4.971  0.3554E+01  0.1549E+02
     -4.841  0.3823E+01  0.1597E+02
     -4.710  0.4172E+01  0.1649E+02
     -4.580  0.4376E+01  0.1705E+02
     -4.449  0.4571E+01  0.1764E+02
     -4.319  0.4953E+01  0.1826E+02
     -4.188  0.4600E+01  0.1891E+02
     -4.057  0.3012E+01  0.1940E+02
     -3.927  0.1968E+01  0.1971E+02
     -3.796  0.1363E+01  0.1994E+02
     -3.666  0.1299E+01  0.2011E+02
     -3.535  0.1724E+01  0.2030E+02
     -3.404  0.3627E+01  0.2066E+02
     -3.274  0.5398E+01  0.2121E+02
     -3.143  0.5888E+01  0.2195E+02
     -3.013  0.5774E+01  0.2271E+02
     -2.882  0.4806E+01  0.2342E+02
     -2.752  0.4204E+01  0.2400E+02
     -2.621  0.3941E+01  0.2453E+02
     -2.490  0.3728E+01  0.2504E+02
     -2.360  0.3966E+01  0.2553E+02
     -2.229  0.4286E+01  0.2608E+02
     -2.099  0.4530E+01  0.2664E+02
     -1.968  0.4270E+01  0.2721E+02
     -1.838  0.4481E+01  0.2777E+02
     -1.707  0.4460E+01  0.2835E+02
     -1.576  0.5085E+01  0.2900E+02
     -1.446  0.5041E+01  0.2964E+02
     -1.315  0.5178E+01  0.3031E+02
     -1.185  0.5014E+01  0.3099E+02
     -1.054  0.4802E+01  0.3164E+02
     -0.923  0.4092E+01  0.3221E+02
     -0.793  0.4062E+01  0.3274E+02
     -0.662  0.4571E+01  0.3329E+02
     -0.532  0.5446E+01  0.3394E+02
     -0.401  0.5615E+01  0.3467E+02
     -0.271  0.5834E+01  0.3542E+02
     -0.140  0.6209E+01  0.3620E+02
     -0.009  0.6424E+01  0.3704E+02
      0.121  0.6178E+01  0.3786E+02
      0.252  0.6213E+01  0.3866E+02
      0.382  0.6064E+01  0.3947E+02
      0.513  0.5682E+01  0.4025E+02
      0.643  0.4987E+01  0.4094E+02
      0.774  0.4279E+01  0.4156E+02
      0.905  0.3904E+01  0.4210E+02
      1.035  0.3727E+01  0.4257E+02
      1.166  0.4442E+01  0.4311E+02
      1.296  0.4602E+01  0.4370E+02
      1.427  0.6070E+01  0.4441E+02
      1.558  0.6465E+01  0.4526E+02
      1.688  0.6149E+01  0.4608E+02
      1.819  0.6274E+01  0.4689E+02
      1.949  0.6395E+01  0.4772E+02
      2.080  0.5882E+01  0.4852E+02
      2.210  0.6252E+01  0.4930E+02
      2.341  0.6225E+01  0.5012E+02
      2.472  0.5740E+01  0.5090E+02
      2.602  0.6538E+01  0.5168E+02
      2.733  0.6235E+01  0.5254E+02
      2.863  0.7537E+01  0.5343E+02
      2.994  0.8102E+01  0.5445E+02
      3.125  0.7743E+01  0.5551E+02
      3.255  0.5659E+01  0.5634E+02
      3.386  0.5441E+01  0.5704E+02
      3.516  0.6099E+01  0.5781E+02
      3.647  0.7384E+01  0.5868E+02
      3.777  0.8274E+01  0.5968E+02
      3.908  0.8383E+01  0.6075E+02
      4.039  0.9321E+01  0.6192E+02
      4.169  0.9900E+01  0.6315E+02
      4.300  0.7140E+01  0.6428E+02
      4.430  0.7431E+01  0.6515E+02
      4.561  0.1023E+02  0.6634E+02
      4.691  0.9761E+01  0.6760E+02
      4.822  0.8954E+01  0.6885E+02
      4.953  0.7907E+01  0.6993E+02
      5.083  0.7641E+01  0.7090E+02
      5.214  0.8522E+01  0.7198E+02
      5.344  0.6270E+01  0.7296E+02
      5.475  0.6197E+01  0.7376E+02
      5.606  0.6686E+01  0.7463E+02
      5.736  0.6790E+01  0.7551E+02
      5.867  0.7089E+01  0.7641E+02
      5.997  0.7349E+01  0.7735E+02
      6.128  0.7587E+01  0.7832E+02
      6.258  0.7044E+01  0.7929E+02
      6.389  0.7537E+01  0.8026E+02
      6.520  0.7597E+01  0.8128E+02
      6.650  0.8748E+01  0.8241E+02
      6.781  0.6021E+01  0.8343E+02
      6.911  0.5495E+01  0.8416E+02
      7.042  0.6445E+01  0.8493E+02
      7.172  0.7758E+01  0.8586E+02
      7.303  0.8006E+01  0.8685E+02
      7.434  0.8043E+01  0.8791E+02
      7.564  0.6477E+01  0.8891E+02
      7.695  0.5466E+01  0.8963E+02
      7.825  0.7123E+01  0.9046E+02
      7.956  0.8128E+01  0.9152E+02
      8.087  0.7162E+01  0.9252E+02
      8.217  0.6594E+01  0.9342E+02
      8.348  0.6232E+01  0.9424E+02
      8.478  0.6840E+01  0.9508E+02
      8.609  0.6136E+01  0.9595E+02
      8.739  0.5641E+01  0.9672E+02
      8.870  0.6010E+01  0.9747E+02
      9.001  0.7197E+01  0.9833E+02
      9.131  0.7380E+01  0.9931E+02
      9.262  0.6383E+01  0.1002E+03
      9.392  0.6255E+01  0.1010E+03
      9.523  0.6055E+01  0.1018E+03
      9.654  0.6044E+01  0.1026E+03
      9.784  0.5655E+01  0.1034E+03
      9.915  0.5074E+01  0.1041E+03
     10.045  0.4382E+01  0.1047E+03
     10.176  0.4823E+01  0.1053E+03
     10.306  0.5481E+01  0.1060E+03
     10.437  0.5179E+01  0.1067E+03
     10.568  0.5552E+01  0.1074E+03
     10.698  0.5201E+01  0.1081E+03
     10.829  0.3914E+01  0.1087E+03
     10.959  0.3376E+01  0.1092E+03
     11.090  0.2600E+01  0.1095E+03
     11.220  0.2176E+01  0.1099E+03
     11.351  0.2232E+01  0.1101E+03
     11.482  0.2396E+01  0.1104E+03
     11.612  0.2667E+01  0.1108E+03
     11.743  0.2855E+01  0.1111E+03
     11.873  0.3004E+01  0.1115E+03
     12.004  0.3133E+01  0.1119E+03
     12.135  0.3122E+01  0.1123E+03
     12.265  0.2905E+01  0.1127E+03
     12.396  0.2726E+01  0.1131E+03
     12.526  0.3024E+01  0.1134E+03
     12.657  0.3520E+01  0.1139E+03
     12.787  0.3547E+01  0.1143E+03
     12.918  0.3959E+01  0.1148E+03
     13.049  0.4624E+01  0.1154E+03
     13.179  0.3917E+01  0.1159E+03
     13.310  0.3895E+01  0.1164E+03
     13.440  0.3438E+01  0.1169E+03
     13.571  0.3231E+01  0.1174E+03
     13.701  0.2856E+01  0.1177E+03
     13.832  0.2906E+01  0.1181E+03
     13.963  0.3253E+01  0.1185E+03
     14.093  0.3974E+01  0.1190E+03
     14.224  0.4895E+01  0.1196E+03
     14.354  0.5534E+01  0.1203E+03
     14.485  0.5830E+01  0.1210E+03
     14.616  0.5429E+01  0.1217E+03
     14.746  0.5233E+01  0.1225E+03
     14.877  0.5530E+01  0.1232E+03
     15.007  0.5342E+01  0.1239E+03
     15.138  0.4116E+01  0.1245E+03
     15.268  0.4548E+01  0.1250E+03
     15.399  0.8162E+01  0.1258E+03
     15.530  0.1051E+02  0.1271E+03
     15.660  0.8161E+01  0.1284E+03
     15.791  0.7676E+01  0.1294E+03
     15.921  0.9012E+01  0.1305E+03
     16.052  0.1104E+02  0.1318E+03
     16.183  0.9461E+01  0.1331E+03
     16.313  0.9312E+01  0.1343E+03
     16.444  0.1050E+02  0.1356E+03
     16.574  0.9499E+01  0.1370E+03
     16.705  0.8522E+01  0.1381E+03
     16.835  0.8060E+01  0.1392E+03
     16.966  0.9516E+01  0.1403E+03
     17.097  0.1091E+02  0.1416E+03
     17.227  0.1017E+02  0.1430E+03
     17.358  0.7993E+01  0.1442E+03
     17.488  0.6957E+01  0.1451E+03
     17.619  0.7223E+01  0.1460E+03
     17.749  0.6684E+01  0.1470E+03
     17.880  0.6020E+01  0.1478E+03
     18.011  0.6426E+01  0.1486E+03
     18.141  0.6583E+01  0.1494E+03
     18.272  0.6107E+01  0.1503E+03
     18.402  0.6093E+01  0.1510E+03
     18.533  0.5900E+01  0.1518E+03
     18.664  0.5700E+01  0.1526E+03
     18.794  0.7654E+01  0.1536E+03
     18.925  0.5070E+01  0.1543E+03
     19.055  0.4713E+01  0.1550E+03
     19.186  0.4191E+01  0.1555E+03
     19.316  0.3803E+01  0.1560E+03
     19.447  0.3795E+01  0.1565E+03
     19.578  0.3500E+01  0.1570E+03
     19.708  0.3045E+01  0.1574E+03
     19.839  0.2464E+01  0.1578E+03
     19.969  0.2265E+01  0.1581E+03
     20.100  0.2181E+01  0.1584E+03
     20.231  0.2302E+01  0.1587E+03
     20.361  0.2223E+01  0.1590E+03
     20.492  0.2271E+01  0.1593E+03
     20.622  0.2876E+01  0.1596E+03
     20.753  0.3360E+01  0.1600E+03
     20.883  0.3765E+01  0.1605E+03
     21.014  0.3920E+01  0.1610E+03
     21.145  0.3452E+01  0.1615E+03
     21.275  0.2691E+01  0.1619E+03
     21.406  0.2449E+01  0.1622E+03
     21.536  0.2526E+01  0.1625E+03
     21.667  0.2601E+01  0.1629E+03
     21.797  0.2617E+01  0.1632E+03
     21.928  0.2579E+01  0.1635E+03
     22.059  0.2718E+01  0.1639E+03
     22.189  0.2910E+01  0.1642E+03
     22.320  0.3145E+01  0.1646E+03
     22.450  0.3380E+01  0.1651E+03
     22.581  0.3817E+01  0.1655E+03
     22.712  0.4264E+01  0.1661E+03
     22.842  0.4471E+01  0.1666E+03
     22.973  0.3357E+01  0.1671E+03
     23.103  0.2466E+01  0.1675E+03
     23.234  0.1171E+01  0.1678E+03
     23.364  0.7142E+00  0.1679E+03
     23.495  0.3962E+00  0.1680E+03
     23.626  0.1473E+00  0.1680E+03
     23.756  0.1517E-01  0.1680E+03
     23.887  0.0000E+00  0.1680E+03
     24.017  0.0000E+00  0.1680E+03
     24.148  0.0000E+00  0.1680E+03
     24.278  0.0000E+00  0.1680E+03
     24.409  0.0000E+00  0.1680E+03
     24.540  0.0000E+00  0.1680E+03
     24.670  0.0000E+00  0.1680E+03
     24.801  0.0000E+00  0.1680E+03
     24.931  0.0000E+00  0.1680E+03
     25.062  0.0000E+00  0.1680E+03
     25.193  0.0000E+00  0.1680E+03
     25.323  0.0000E+00  0.1680E+03
     25.454  0.0000E+00  0.1680E+03
     25.584  0.0000E+00  0.1680E+03
     25.715  0.0000E+00  0.1680E+03
     25.845  0.0000E+00  0.1680E+03
