       N       E                     dE             d eps       ncg     rms          rms(c)
DAV:   1     0.491155052020E+03    0.49116E+03   -0.78707E+04 27384   0.173E+03
DAV:   2    -0.184309697975E+03   -0.67546E+03   -0.64212E+03 34452   0.312E+02
DAV:   3    -0.219421665527E+03   -0.35112E+02   -0.33901E+02 33324   0.626E+01
DAV:   4    -0.220045389512E+03   -0.62372E+00   -0.61798E+00 32820   0.844E+00
DAV:   5    -0.220059631962E+03   -0.14242E-01   -0.14251E-01 34068   0.105E+00    0.217E+01
DAV:   6    -0.210583246847E+03    0.94764E+01   -0.60659E+00 30792   0.871E+00    0.117E+01
DAV:   7    -0.207296532952E+03    0.32867E+01   -0.69400E+00 29760   0.945E+00    0.137E+00
DAV:   8    -0.207304378444E+03   -0.78455E-02   -0.28968E-01 33576   0.185E+00    0.925E-01
DAV:   9    -0.207304600686E+03   -0.22224E-03   -0.53962E-02 34188   0.786E-01    0.367E-01
DAV:  10    -0.207304893222E+03   -0.29254E-03   -0.20357E-02 34212   0.365E-01    0.225E-01
DAV:  11    -0.207304918239E+03   -0.25017E-04   -0.57052E-03 33612   0.183E-01    0.764E-02
DAV:  12    -0.207304982985E+03   -0.64746E-04   -0.95613E-04 33840   0.797E-02    0.602E-02
DAV:  13    -0.207304987580E+03   -0.45954E-05   -0.47429E-04 35028   0.448E-02    0.376E-02
DAV:  14    -0.207305017822E+03   -0.30242E-04   -0.16942E-04 35472   0.281E-02    0.283E-02
DAV:  15    -0.207305016829E+03    0.99330E-06   -0.92297E-05 34704   0.173E-02    0.133E-02
DAV:  16    -0.207305017437E+03   -0.60808E-06   -0.14407E-05 30936   0.101E-02    0.524E-03
DAV:  17    -0.207305012504E+03    0.49332E-05   -0.47044E-06 18708   0.450E-03    0.486E-03
DAV:  18    -0.207305013553E+03   -0.10490E-05   -0.16735E-06 18360   0.231E-03    0.198E-03
DAV:  19    -0.207305013727E+03   -0.17415E-06   -0.37489E-07 18156   0.134E-03
   1 F= -.21186355E+03 E0= -.21186355E+03  d E =0.000000E+00
