32   
4    

1    
  0.0030389092291615  -0.0000001369701965   0.0095270683149727
  -0.1830460900    0.0037317200   -0.1360087400
   0.0367955700    0.0029787200   -0.0069748400
   0.0052559900   -0.0152454100   -0.0069111500
   0.0051605400    0.0212300300   -0.0070550200
  -0.0081551400    0.0029987800    0.0004382200
  -0.0081515200    0.0029989200    0.0004407900
  -0.0081528100    0.0029983300    0.0004407700
  -0.0081529700    0.0029999800    0.0004407900
   0.0043475500   -0.0027977000   -0.0004784300
   0.0043219500   -0.0028431100   -0.0004860100
   0.0043733200   -0.0027997200   -0.0004820800
   0.0042977200   -0.0028184400   -0.0004044500
   0.0050913800   -0.0024106800   -0.0006408600
   0.0051114800   -0.0024547800   -0.0006341600
   0.0051393100   -0.0024502600   -0.0006373200
   0.0050622900   -0.0024391200   -0.0005277200
  -0.0044870800   -0.0028206400    0.0121041300
   0.0195430800   -0.0034275700    0.0490274200
   0.0597419800    0.0203638100    0.0493686800
   0.0597587900   -0.0260643400    0.0486463900
   0.0079751200   -0.0029201500   -0.0001544400
   0.0079752500   -0.0029199300   -0.0001527300
   0.0079755500   -0.0029200000   -0.0001536600
   0.0079753400   -0.0029202200   -0.0001520400
  -0.0042744500    0.0026336700    0.0002184300
  -0.0041882500    0.0026674200    0.0002309600
  -0.0042611800    0.0025791900    0.0002292000
  -0.0041978100    0.0026255700    0.0000329200
  -0.0046784500    0.0023261000    0.0001119700
  -0.0047395000    0.0023611000    0.0001005200
  -0.0047395000    0.0023971500    0.0001052400
  -0.0046774400    0.0023615900   -0.0000827800

1    
 -0.0030389092291615   0.0000001369701965  -0.0095270683149727
   0.1721380100    0.0036268500    0.1362049800
  -0.0476669600    0.0029461200    0.0068855900
  -0.0159629200    0.0212401800    0.0069499800
  -0.0160549100   -0.0153189600    0.0068408400
  -0.0024138400    0.0030555500   -0.0004871800
  -0.0024211200    0.0030583500   -0.0004898100
  -0.0024183600    0.0030576400   -0.0004900900
  -0.0024184300    0.0030560500   -0.0004898400
   0.0045282900   -0.0031923600    0.0005299700
   0.0045456000   -0.0031459600    0.0005371800
   0.0044972600   -0.0031839400    0.0005330400
   0.0045774000   -0.0031744800    0.0004228700
   0.0052653800   -0.0025175800    0.0006382900
   0.0052438700   -0.0024721200    0.0006297900
   0.0052167500   -0.0024750000    0.0006342700
   0.0052941000   -0.0024873700    0.0005569800
   0.0149365300   -0.0029715400   -0.0120308700
  -0.0091186400   -0.0035603400   -0.0489816400
  -0.0492431100   -0.0261512800   -0.0486331200
  -0.0492955800    0.0202092000   -0.0492909000
   0.0023261800   -0.0029996900    0.0001454000
   0.0023260500   -0.0029990200    0.0001442800
   0.0023272500   -0.0030004100    0.0001427600
   0.0023237300   -0.0029979000    0.0001444700
  -0.0046376800    0.0031351200   -0.0002399900
  -0.0046955800    0.0030989600   -0.0002481500
  -0.0046348700    0.0031668600   -0.0002445400
  -0.0047002500    0.0031329000   -0.0000548200
  -0.0050077600    0.0025071400   -0.0001183400
  -0.0049239400    0.0024736400   -0.0001080200
  -0.0049354300    0.0024176600   -0.0001128700
  -0.0049970100    0.0024657400    0.0000795200

17   
  0.0030389092291615  -0.0000001369701965   0.0095270683149727
  -0.0165351000    0.0031147500    0.0119903000
   0.0074924800    0.0036971400    0.0488957100
   0.0476852100    0.0263309200    0.0485486900
   0.0477459400   -0.0201139100    0.0492031300
   0.0021906000    0.0031093200   -0.0000448300
   0.0021915600    0.0031093500   -0.0000432900
   0.0021924200    0.0031123300   -0.0000456300
   0.0021904500    0.0031112600   -0.0000413900
   0.0043574100   -0.0024421200    0.0002269700
   0.0043916600   -0.0024000200    0.0002499100
   0.0043392400   -0.0024464200    0.0002381800
   0.0044062100   -0.0024309000    0.0000458700
   0.0046202400   -0.0022536100    0.0001318400
   0.0045773800   -0.0022371500    0.0001103500
   0.0045866500   -0.0022258400    0.0001211000
   0.0046307200   -0.0022422300   -0.0000689300
  -0.1702816600   -0.0035687100   -0.1368322500
   0.0495117500   -0.0028976600   -0.0076516600
   0.0179459400   -0.0211065600   -0.0077149300
   0.0180393600    0.0152927900   -0.0076047100
  -0.0023991800   -0.0029984800    0.0000770900
  -0.0023990700   -0.0029972500    0.0000541400
  -0.0023989000   -0.0029988000    0.0000540000
  -0.0023987800   -0.0030000400    0.0000541200
  -0.0044491200    0.0023442100    0.0000392200
  -0.0043136600    0.0023711600    0.0000907600
  -0.0044036300    0.0022447900    0.0000609200
  -0.0043582900    0.0023193000    0.0000088700
  -0.0047276400    0.0020011300   -0.0000142500
  -0.0048604400    0.0020230500   -0.0000292000
  -0.0048112100    0.0021245500   -0.0000344500
  -0.0047584900    0.0020536400   -0.0000756500

17   
 -0.0030389092291615   0.0000001369701965  -0.0095270683149727
   0.0059246400    0.0030794100   -0.0120705000
  -0.0181158500    0.0036776600   -0.0490477400
  -0.0582526900   -0.0200728000   -0.0493826400
  -0.0582635900    0.0262795100   -0.0486751000
  -0.0119853100    0.0030968100    0.0002428600
  -0.0119857000    0.0030958300    0.0002411900
  -0.0119855800    0.0030970200    0.0002384700
  -0.0119867200    0.0030968800    0.0002435200
   0.0043262300   -0.0024965000   -0.0003357100
   0.0042957300   -0.0025263900   -0.0003551900
   0.0043364700   -0.0024871000   -0.0003452400
   0.0042783600   -0.0025029000   -0.0001565800
   0.0044449600   -0.0023937100   -0.0000635400
   0.0044750400   -0.0024326400   -0.0000397400
   0.0044932900   -0.0024391600   -0.0000518000
   0.0044286900   -0.0024222100    0.0001393900
   0.1811095200   -0.0037395600    0.1363356300
  -0.0386565100   -0.0029967900    0.0075599300
  -0.0072118500    0.0151771200    0.0074953400
  -0.0071151500   -0.0211912300    0.0076424400
   0.0117613500   -0.0029629300    0.0001119700
   0.0117612200   -0.0029631500    0.0001345200
   0.0117606800   -0.0029630500    0.0001343700
   0.0117608900   -0.0029629400    0.0001346000
  -0.0041756500    0.0024357700   -0.0001747200
  -0.0043085400    0.0024115400   -0.0002064400
  -0.0042213200    0.0025381800   -0.0001889100
  -0.0042714900    0.0024628000   -0.0001389300
  -0.0042221300    0.0023267400    0.0001072800
  -0.0040873000    0.0023024100    0.0001557600
  -0.0041339000    0.0021988900    0.0001323400
  -0.0041777600    0.0022765200    0.0001831600
