32   
4    

1    
  0.0034663406093891   0.0000000021910760   0.0093800044125627
  -0.3034095800    0.0023182000   -0.0028581600
   0.0327295600    0.0000984300   -0.0015396300
  -0.0045187500   -0.0214991700   -0.0015194200
  -0.0045274400    0.0215160600   -0.0015556500
  -0.0004645000    0.0000613600    0.0479318700
   0.0008709100    0.0000186900    0.0180661100
   0.0016577900    0.0004909800    0.0181652300
   0.0015558300   -0.0003588800    0.0179690100
  -0.0054154000   -0.0000490600   -0.0731338300
  -0.0065578100    0.0017804400   -0.0098943100
  -0.0030524300    0.0020043100   -0.0109870700
   0.0001697600   -0.0039022700   -0.0087737600
  -0.0055039000   -0.0000465300   -0.0702483400
  -0.0064774000   -0.0019948800   -0.0096370100
   0.0003082400    0.0038978700   -0.0085943000
  -0.0030135800   -0.0020205700   -0.0107071000
   0.0455426700   -0.0002634600   -0.0220134900
   0.0003528900   -0.0000687300   -0.0076888800
   0.1283912300   -0.0480606500   -0.0227182600
   0.1252173800    0.0457844600   -0.0213403800
  -0.0016120000   -0.0001354300   -0.0176436000
   0.0013336900   -0.0000713700    0.0039830100
  -0.0018104300    0.0000547300   -0.0176474200
  -0.0016780500   -0.0000989600   -0.0176350500
   0.0319742400    0.0206187500    0.0484155400
  -0.0212091500    0.0102427700    0.0252769800
  -0.0020476600    0.0001002600    0.0040317000
  -0.0036040500   -0.0306883800    0.0368799200
  -0.0210728500   -0.0100557100    0.0258112000
   0.0314039200   -0.0200939800    0.0484127400
  -0.0020060900    0.0001017100    0.0041125400
  -0.0035270500    0.0303190300    0.0370797800

1    
 -0.0034663406093891  -0.0000000021910760  -0.0093800044125627
   0.3032071800    0.0023138700    0.0028572300
  -0.0329298300    0.0000990800    0.0015391400
   0.0043255400    0.0215146900    0.0015541300
   0.0043179300   -0.0214985000    0.0015191300
   0.0002631700    0.0000611300   -0.0479315700
  -0.0010719200    0.0000188000   -0.0180658600
  -0.0017570400   -0.0003587800   -0.0179691900
  -0.0018586100    0.0004905200   -0.0181630300
   0.0057090700   -0.0000460100    0.0702486900
   0.0066827400   -0.0019941000    0.0096368600
   0.0032186000   -0.0020206800    0.0107081800
  -0.0001031600    0.0038972500    0.0085931500
   0.0056192100   -0.0000496100    0.0731341100
   0.0067639500    0.0017806200    0.0098943000
   0.0000354900   -0.0039020300    0.0087748000
   0.0032580300    0.0020048000    0.0109863900
  -0.0453159400   -0.0002632700    0.0220136400
  -0.0001251200   -0.0000684600    0.0076889600
  -0.1249933600    0.0457863400    0.0213431400
  -0.1281609400   -0.0480591800    0.0227159100
   0.0018383500   -0.0001359300    0.0176434200
  -0.0011062000   -0.0000713400   -0.0039835700
   0.0019047400   -0.0000985900    0.0176350900
   0.0020385000    0.0000545600    0.0176472700
  -0.0316350300   -0.0200936600   -0.0484116200
   0.0208426500   -0.0100562700   -0.0258128900
   0.0017742100    0.0001014800   -0.0041124600
   0.0032963200    0.0303190800   -0.0370801900
   0.0209772400    0.0102424500   -0.0252749800
  -0.0322058000    0.0206189400   -0.0484172000
   0.0018165700    0.0001005500   -0.0040319000
   0.0033734700   -0.0306877600   -0.0368790900

17   
  0.0034663406093891   0.0000000021910760   0.0093800044125627
   0.0453644800   -0.0001446400   -0.0220765300
   0.0000846100    0.0000792700   -0.0078034000
   0.1246185500   -0.0455327800   -0.0209913400
   0.1285488200    0.0482669200   -0.0232013000
  -0.0017883500    0.0000856500   -0.0175943800
   0.0010693200    0.0000563800    0.0040381800
  -0.0019454700    0.0001386100   -0.0175327900
  -0.0019901400   -0.0000665500   -0.0176532300
  -0.0034897400   -0.0198022400    0.0369417700
  -0.0018595700   -0.0000784800    0.0040460500
  -0.0115493900    0.0046396400    0.0190411400
   0.0227077800    0.0151130100    0.0551291300
  -0.0030596200    0.0194590800    0.0370260400
  -0.0019254100   -0.0000750700    0.0041456200
   0.0222809600   -0.0146486300    0.0542973600
  -0.0114630400   -0.0048671600    0.0194772300
  -0.3294544500   -0.0025394700   -0.1907185200
   0.0269804200   -0.0000018800    0.0004655400
  -0.0061453500   -0.0192067200    0.0005034400
  -0.0060699000    0.0189963100    0.0004291800
   0.0028359500   -0.0000670900   -0.0078311100
   0.0013872400   -0.0001092200    0.0036853100
  -0.0002748200   -0.0010080700    0.0036053000
  -0.0003117700    0.0009294300    0.0037641800
   0.0168450000   -0.0105339900    0.0208324400
  -0.0058469300   -0.0024596200    0.0054036400
  -0.0014916900    0.0132033500    0.0131639000
  -0.0068956500   -0.0000181400   -0.0001031000
  -0.0060972800    0.0028362400    0.0056655600
   0.0168773900    0.0105365500    0.0208467500
  -0.0012753000   -0.0131663800    0.0132125800
  -0.0066666400   -0.0000143000   -0.0002146400

17   
 -0.0034663406093891  -0.0000000021910760  -0.0093800044125627
  -0.0455699900   -0.0001463000    0.0220759700
  -0.0002811000    0.0000795800    0.0078020200
  -0.1287540200    0.0482674200    0.0232018900
  -0.1248163800   -0.0455271600    0.0209871700
   0.0015846700    0.0000849900    0.0175942200
  -0.0012673900    0.0000561900   -0.0040371500
   0.0017889400   -0.0000670500    0.0176560300
   0.0017455800    0.0001411400    0.0175356000
   0.0032611500    0.0194555000   -0.0370258400
   0.0021334900   -0.0000768000   -0.0041468600
   0.0116653700   -0.0048655600   -0.0194794500
  -0.0220742300   -0.0146453000   -0.0542949200
   0.0036937500   -0.0197994000   -0.0369417500
   0.0020665900   -0.0000763800   -0.0040460100
  -0.0225011900    0.0151098400   -0.0551300800
   0.0117535400    0.0046361800   -0.0190405500
   0.3296800600   -0.0025432400    0.1907193500
  -0.0267520500    0.0000000100   -0.0004643000
   0.0062957000    0.0189945300   -0.0004287900
   0.0063728300   -0.0192073300   -0.0005034400
  -0.0026126800   -0.0000661900    0.0078308500
  -0.0011575100   -0.0001088100   -0.0036865800
   0.0005392200    0.0009275900   -0.0037628100
   0.0005016600   -0.0010075700   -0.0036059200
  -0.0171092100    0.0105378000   -0.0208478300
   0.0058673700    0.0028372400   -0.0056657200
   0.0010435900   -0.0131678600   -0.0132133900
   0.0064367200   -0.0000158900    0.0002138000
   0.0056148300   -0.0024590900   -0.0054017100
  -0.0170761400   -0.0105347300   -0.0208346600
   0.0012596500    0.0132035400   -0.0131638900
   0.0066671600   -0.0000169000    0.0001047400
