mesh: [     9,     9,     4 ]
nqpoint: 50     
reciprocal_lattice:
- [   0.40533564,   0.23404500,   0.00000000 ] # a*
- [   0.00002110,   0.46805346,   0.00000000 ] # b*
- [   0.00000000,   0.00000000,   0.12928911 ] # c*
natom:   4      
lattice:
- [     2.467155442383188,    -0.000111200019553,     0.000000000000000 ] # a
- [    -1.233674023183305,     2.136563688137034,     0.000000000000000 ] # b
- [     0.000000000000000,     0.000000000000000,     7.734603659000000 ] # c
points:
- symbol: C  # 1
  coordinates: [  0.999999697166835,  0.000000349172772,  0.250000000000000 ]
  mass: 12.010700
- symbol: C  # 2
  coordinates: [  0.000000349172772,  0.999999697166835,  0.750000000000000 ]
  mass: 12.010700
- symbol: C  # 3
  coordinates: [  0.333298929956719,  0.666701052703672,  0.250000000000000 ]
  mass: 12.010700
- symbol: C  # 4
  coordinates: [  0.666701052703672,  0.333298929956719,  0.750000000000000 ]
  mass: 12.010700
phonon:
- q-position: [    0.0000000,    0.0000000,    0.1250000 ]
  weight: 2    
  band:
  - # 1
    frequency:    -3.1734573646
  - # 2
    frequency:    -2.3088704377
  - # 3
    frequency:    -1.6213355644
  - # 4
    frequency:    -0.9350503842
  - # 5
    frequency:     0.8118995918
  - # 6
    frequency:     1.3419823844
  - # 7
    frequency:    25.8642625843
  - # 8
    frequency:    26.1061829587
  - # 9
    frequency:    40.6553858707
  - # 10
    frequency:    40.7468406832
  - # 11
    frequency:    40.9541400129
  - # 12
    frequency:    40.9973928261

- q-position: [    0.1111111,    0.0000000,    0.1250000 ]
  weight: 8    
  band:
  - # 1
    frequency:     3.4603511199
  - # 2
    frequency:     3.9335589695
  - # 3
    frequency:     5.8835976179
  - # 4
    frequency:     6.1374461905
  - # 5
    frequency:    11.0868309911
  - # 6
    frequency:    11.4241498246
  - # 7
    frequency:    25.2838627033
  - # 8
    frequency:    25.5069779827
  - # 9
    frequency:    40.8469880725
  - # 10
    frequency:    41.1266736441
  - # 11
    frequency:    41.3651827031
  - # 12
    frequency:    41.5833327111

- q-position: [    0.2222222,    0.0000000,    0.1250000 ]
  weight: 8    
  band:
  - # 1
    frequency:     7.5810227250
  - # 2
    frequency:     7.6752624980
  - # 3
    frequency:    11.5733523985
  - # 4
    frequency:    11.7078383324
  - # 5
    frequency:    21.8828267421
  - # 6
    frequency:    22.0761016795
  - # 7
    frequency:    23.6740855855
  - # 8
    frequency:    23.8449882263
  - # 9
    frequency:    41.2370522856
  - # 10
    frequency:    41.4374208914
  - # 11
    frequency:    42.6484777908
  - # 12
    frequency:    42.8129538671

- q-position: [    0.3333333,    0.0000000,    0.1250000 ]
  weight: 8    
  band:
  - # 1
    frequency:    10.9837597337
  - # 2
    frequency:    11.0159696453
  - # 3
    frequency:    15.9432352054
  - # 4
    frequency:    16.0211612890
  - # 5
    frequency:    21.4143604823
  - # 6
    frequency:    21.5142549352
  - # 7
    frequency:    30.9752006237
  - # 8
    frequency:    31.0980608517
  - # 9
    frequency:    41.5952591700
  - # 10
    frequency:    41.7012775245
  - # 11
    frequency:    43.2140767097
  - # 12
    frequency:    43.3076789034

- q-position: [    0.4444444,    0.0000000,    0.1250000 ]
  weight: 8    
  band:
  - # 1
    frequency:    13.5245090621
  - # 2
    frequency:    13.5858580929
  - # 3
    frequency:    18.3807312910
  - # 4
    frequency:    18.4066011493
  - # 5
    frequency:    19.2449010068
  - # 6
    frequency:    19.2884511794
  - # 7
    frequency:    37.7444037224
  - # 8
    frequency:    37.8042971619
  - # 9
    frequency:    41.7798681365
  - # 10
    frequency:    41.8090805669
  - # 11
    frequency:    41.8313128016
  - # 12
    frequency:    41.8603703119

- q-position: [    0.1111111,    0.1111111,    0.1250000 ]
  weight: 4    
  band:
  - # 1
    frequency:     6.8543254142
  - # 2
    frequency:     7.0033436328
  - # 3
    frequency:    10.4313486583
  - # 4
    frequency:    10.5229230358
  - # 5
    frequency:    18.6088959715
  - # 6
    frequency:    18.8814654098
  - # 7
    frequency:    24.1040717543
  - # 8
    frequency:    24.2930162591
  - # 9
    frequency:    41.3278222785
  - # 10
    frequency:    41.5597157224
  - # 11
    frequency:    42.2917856166
  - # 12
    frequency:    42.4645695864

- q-position: [    0.2222222,    0.1111111,    0.1250000 ]
  weight: 8    
  band:
  - # 1
    frequency:    10.2216078269
  - # 2
    frequency:    10.2235860338
  - # 3
    frequency:    15.6729506181
  - # 4
    frequency:    15.7810829231
  - # 5
    frequency:    22.0854530215
  - # 6
    frequency:    22.2124745302
  - # 7
    frequency:    26.9732459897
  - # 8
    frequency:    27.1584537572
  - # 9
    frequency:    41.9293493687
  - # 10
    frequency:    42.0600335564
  - # 11
    frequency:    43.0855230773
  - # 12
    frequency:    43.2206269301

- q-position: [    0.3333333,    0.1111111,    0.1250000 ]
  weight: 8    
  band:
  - # 1
    frequency:    13.0082268146
  - # 2
    frequency:    13.0666920132
  - # 3
    frequency:    19.5061502711
  - # 4
    frequency:    19.5990225622
  - # 5
    frequency:    19.7506385124
  - # 6
    frequency:    19.8086153902
  - # 7
    frequency:    34.1679672732
  - # 8
    frequency:    34.2851957023
  - # 9
    frequency:    41.9986506274
  - # 10
    frequency:    42.0759661252
  - # 11
    frequency:    42.8673908023
  - # 12
    frequency:    42.9145327896

- q-position: [   -0.5555556,    0.1111111,    0.1250000 ]
  weight: 8    
  band:
  - # 1
    frequency:    14.2586910963
  - # 2
    frequency:    14.3214813711
  - # 3
    frequency:    18.5254143381
  - # 4
    frequency:    18.5490086271
  - # 5
    frequency:    21.1074199753
  - # 6
    frequency:    21.1645370904
  - # 7
    frequency:    39.2476049519
  - # 8
    frequency:    39.2886017426
  - # 9
    frequency:    39.6952557092
  - # 10
    frequency:    39.7023051168
  - # 11
    frequency:    42.5930186476
  - # 12
    frequency:    42.6120180142

- q-position: [   -0.4444444,    0.1111111,    0.1250000 ]
  weight: 8    
  band:
  - # 1
    frequency:    12.3874298249
  - # 2
    frequency:    12.4524066692
  - # 3
    frequency:    20.1004454682
  - # 4
    frequency:    20.1121663749
  - # 5
    frequency:    20.1476640771
  - # 6
    frequency:    20.2000877983
  - # 7
    frequency:    34.5430005929
  - # 8
    frequency:    34.5886261377
  - # 9
    frequency:    41.7408818123
  - # 10
    frequency:    41.8037548991
  - # 11
    frequency:    42.6052938317
  - # 12
    frequency:    42.6364153119

- q-position: [   -0.3333333,    0.1111111,    0.1250000 ]
  weight: 8    
  band:
  - # 1
    frequency:     9.4325031270
  - # 2
    frequency:     9.4441867727
  - # 3
    frequency:    16.5565201534
  - # 4
    frequency:    16.6144237269
  - # 5
    frequency:    22.4348623789
  - # 6
    frequency:    22.5562402465
  - # 7
    frequency:    27.4261959617
  - # 8
    frequency:    27.5092383949
  - # 9
    frequency:    41.5940779845
  - # 10
    frequency:    41.7282220150
  - # 11
    frequency:    42.8435503613
  - # 12
    frequency:    42.9565927231

- q-position: [   -0.2222222,    0.1111111,    0.1250000 ]
  weight: 8    
  band:
  - # 1
    frequency:     6.0168715047
  - # 2
    frequency:     6.1847522372
  - # 3
    frequency:    11.0636779189
  - # 4
    frequency:    11.3202915819
  - # 5
    frequency:    19.2680976505
  - # 6
    frequency:    19.3219321011
  - # 7
    frequency:    24.3295039851
  - # 8
    frequency:    24.5143117569
  - # 9
    frequency:    41.1345883885
  - # 10
    frequency:    41.3219109146
  - # 11
    frequency:    42.0509910024
  - # 12
    frequency:    42.2644607767

- q-position: [   -0.1111111,    0.1111111,    0.1250000 ]
  weight: 4    
  band:
  - # 1
    frequency:     2.8608739949
  - # 2
    frequency:     3.4220783668
  - # 3
    frequency:     5.5078772179
  - # 4
    frequency:     6.2851338082
  - # 5
    frequency:    11.8545061321
  - # 6
    frequency:    11.8901596060
  - # 7
    frequency:    25.3613553734
  - # 8
    frequency:    25.5829586720
  - # 9
    frequency:    40.8819832410
  - # 10
    frequency:    41.0730777747
  - # 11
    frequency:    41.1694753665
  - # 12
    frequency:    41.4801426827

- q-position: [    0.2222222,    0.2222222,    0.1250000 ]
  weight: 4    
  band:
  - # 1
    frequency:    12.8249693512
  - # 2
    frequency:    12.8818478817
  - # 3
    frequency:    19.9297906203
  - # 4
    frequency:    19.9931691178
  - # 5
    frequency:    21.4486263498
  - # 6
    frequency:    21.5271057853
  - # 7
    frequency:    31.7310000579
  - # 8
    frequency:    31.8753014158
  - # 9
    frequency:    42.3960266994
  - # 10
    frequency:    42.5026006851
  - # 11
    frequency:    42.9363431474
  - # 12
    frequency:    42.9689750540

- q-position: [    0.3333333,    0.2222222,    0.1250000 ]
  weight: 8    
  band:
  - # 1
    frequency:    14.9233318812
  - # 2
    frequency:    14.9875952872
  - # 3
    frequency:    17.8727966062
  - # 4
    frequency:    17.8777791813
  - # 5
    frequency:    25.4183180603
  - # 6
    frequency:    25.4840493885
  - # 7
    frequency:    36.0041293458
  - # 8
    frequency:    36.0963406336
  - # 9
    frequency:    40.1105782057
  - # 10
    frequency:    40.1755799394
  - # 11
    frequency:    43.5414949823
  - # 12
    frequency:    43.5661313044

- q-position: [   -0.5555556,    0.2222222,    0.1250000 ]
  weight: 8    
  band:
  - # 1
    frequency:    14.2288720440
  - # 2
    frequency:    14.3019070784
  - # 3
    frequency:    18.4270616129
  - # 4
    frequency:    18.4361367390
  - # 5
    frequency:    25.8581384217
  - # 6
    frequency:    25.9057145686
  - # 7
    frequency:    36.3525240609
  - # 8
    frequency:    36.3693948519
  - # 9
    frequency:    39.7206718254
  - # 10
    frequency:    39.7623047389
  - # 11
    frequency:    43.3950356188
  - # 12
    frequency:    43.4240620465

- q-position: [   -0.4444444,    0.2222222,    0.1250000 ]
  weight: 8    
  band:
  - # 1
    frequency:    11.8147297364
  - # 2
    frequency:    11.8822758099
  - # 3
    frequency:    20.5487796494
  - # 4
    frequency:    20.6031507720
  - # 5
    frequency:    22.3635461501
  - # 6
    frequency:    22.3930446506
  - # 7
    frequency:    32.2592482785
  - # 8
    frequency:    32.2766301398
  - # 9
    frequency:    41.9356588822
  - # 10
    frequency:    42.0103468015
  - # 11
    frequency:    42.5974263169
  - # 12
    frequency:    42.6378405464

- q-position: [   -0.3333333,    0.2222222,    0.1250000 ]
  weight: 8    
  band:
  - # 1
    frequency:     9.1810117337
  - # 2
    frequency:     9.2025590655
  - # 3
    frequency:    16.3757105571
  - # 4
    frequency:    16.5259652608
  - # 5
    frequency:    22.5389583241
  - # 6
    frequency:    22.6579552806
  - # 7
    frequency:    27.7934510411
  - # 8
    frequency:    27.8200894083
  - # 9
    frequency:    41.6814292564
  - # 10
    frequency:    41.7810011292
  - # 11
    frequency:    42.5843533951
  - # 12
    frequency:    42.7444044157

- q-position: [   -0.2222222,    0.2222222,    0.1250000 ]
  weight: 4    
  band:
  - # 1
    frequency:     6.8039362093
  - # 2
    frequency:     6.9095988999
  - # 3
    frequency:    11.6002334382
  - # 4
    frequency:    11.9307639712
  - # 5
    frequency:    22.7062934275
  - # 6
    frequency:    22.7504639071
  - # 7
    frequency:    23.9120813370
  - # 8
    frequency:    24.0783023533
  - # 9
    frequency:    41.2111215583
  - # 10
    frequency:    41.3533460435
  - # 11
    frequency:    42.2391622545
  - # 12
    frequency:    42.4717563967

- q-position: [   -0.6666667,    0.3333333,    0.1250000 ]
  weight: 4    
  band:
  - # 1
    frequency:    15.9549524576
  - # 2
    frequency:    15.9939176816
  - # 3
    frequency:    16.7382514813
  - # 4
    frequency:    16.7836699581
  - # 5
    frequency:    29.2174372744
  - # 6
    frequency:    29.2228356195
  - # 7
    frequency:    37.2700546219
  - # 8
    frequency:    37.3301265008
  - # 9
    frequency:    37.3396038568
  - # 10
    frequency:    37.3561652392
  - # 11
    frequency:    43.9403921536
  - # 12
    frequency:    43.9775392166

- q-position: [   -0.5555556,    0.3333333,    0.1250000 ]
  weight: 8    
  band:
  - # 1
    frequency:    14.2104578212
  - # 2
    frequency:    14.2807948407
  - # 3
    frequency:    18.4451398116
  - # 4
    frequency:    18.4514116979
  - # 5
    frequency:    25.9826398250
  - # 6
    frequency:    26.0052553482
  - # 7
    frequency:    36.2364462137
  - # 8
    frequency:    36.2457104685
  - # 9
    frequency:    39.7728978503
  - # 10
    frequency:    39.7975822904
  - # 11
    frequency:    43.3927993593
  - # 12
    frequency:    43.4121474789

- q-position: [   -0.4444444,    0.3333333,    0.1250000 ]
  weight: 8    
  band:
  - # 1
    frequency:    12.2866230903
  - # 2
    frequency:    12.3545527147
  - # 3
    frequency:    19.9917299880
  - # 4
    frequency:    20.0323004413
  - # 5
    frequency:    20.2118084591
  - # 6
    frequency:    20.2621750012
  - # 7
    frequency:    34.7378414326
  - # 8
    frequency:    34.7656542319
  - # 9
    frequency:    41.7679369519
  - # 10
    frequency:    41.8126431755
  - # 11
    frequency:    42.4631313001
  - # 12
    frequency:    42.5281653447

- q-position: [   -0.3333333,    0.3333333,    0.1250000 ]
  weight: 4    
  band:
  - # 1
    frequency:    10.3846170194
  - # 2
    frequency:    10.4278934696
  - # 3
    frequency:    16.0186056923
  - # 4
    frequency:    16.1483233742
  - # 5
    frequency:    21.7142368670
  - # 6
    frequency:    21.8077425332
  - # 7
    frequency:    31.6146689520
  - # 8
    frequency:    31.6562417369
  - # 9
    frequency:    41.5602912492
  - # 10
    frequency:    41.6318218183
  - # 11
    frequency:    42.7668549353
  - # 12
    frequency:    42.9071174918

- q-position: [   -0.5555556,    0.4444444,    0.1250000 ]
  weight: 4    
  band:
  - # 1
    frequency:    14.1695084105
  - # 2
    frequency:    14.2306127572
  - # 3
    frequency:    18.5978912340
  - # 4
    frequency:    18.6216381829
  - # 5
    frequency:    21.2580713051
  - # 6
    frequency:    21.2693774604
  - # 7
    frequency:    39.2587270170
  - # 8
    frequency:    39.2714204574
  - # 9
    frequency:    39.6678828544
  - # 10
    frequency:    39.6811800728
  - # 11
    frequency:    42.5631033133
  - # 12
    frequency:    42.5638827222

- q-position: [   -0.4444444,    0.4444444,    0.1250000 ]
  weight: 4    
  band:
  - # 1
    frequency:    13.3860769014
  - # 2
    frequency:    13.4505362490
  - # 3
    frequency:    18.3983853671
  - # 4
    frequency:    18.4163622530
  - # 5
    frequency:    19.3453387369
  - # 6
    frequency:    19.3868083844
  - # 7
    frequency:    37.9791188370
  - # 8
    frequency:    38.0055409850
  - # 9
    frequency:    41.6251409240
  - # 10
    frequency:    41.6868370338
  - # 11
    frequency:    41.7724816954
  - # 12
    frequency:    41.7866125795

- q-position: [    0.0000000,    0.0000000,    0.3750000 ]
  weight: 2    
  band:
  - # 1
    frequency:    -3.4331866051
  - # 2
    frequency:    -2.9494208831
  - # 3
    frequency:    -2.8637158483
  - # 4
    frequency:    -2.6287393900
  - # 5
    frequency:     1.4943603616
  - # 6
    frequency:     1.8128048180
  - # 7
    frequency:    26.0180142907
  - # 8
    frequency:    26.1185319654
  - # 9
    frequency:    35.9041107620
  - # 10
    frequency:    35.9135044764
  - # 11
    frequency:    35.9962217004
  - # 12
    frequency:    36.0647258713

- q-position: [    0.1111111,    0.0000000,    0.3750000 ]
  weight: 8    
  band:
  - # 1
    frequency:     3.6151713818
  - # 2
    frequency:     3.7959636629
  - # 3
    frequency:     5.9140360212
  - # 4
    frequency:     6.0348457945
  - # 5
    frequency:    10.9365360777
  - # 6
    frequency:    11.1115013966
  - # 7
    frequency:    25.4247118631
  - # 8
    frequency:    25.5173917909
  - # 9
    frequency:    36.6591116535
  - # 10
    frequency:    36.7832864185
  - # 11
    frequency:    37.2455622120
  - # 12
    frequency:    37.3387973799

- q-position: [    0.2222222,    0.0000000,    0.3750000 ]
  weight: 8    
  band:
  - # 1
    frequency:     7.6313230868
  - # 2
    frequency:     7.6691472070
  - # 3
    frequency:    11.7595235742
  - # 4
    frequency:    11.8208081905
  - # 5
    frequency:    21.8853209287
  - # 6
    frequency:    21.9762828536
  - # 7
    frequency:    23.7795979922
  - # 8
    frequency:    23.8505300716
  - # 9
    frequency:    38.4828353812
  - # 10
    frequency:    38.5694195906
  - # 11
    frequency:    40.0375536377
  - # 12
    frequency:    40.1051074339

- q-position: [    0.3333333,    0.0000000,    0.3750000 ]
  weight: 8    
  band:
  - # 1
    frequency:    10.9970586434
  - # 2
    frequency:    11.0105623293
  - # 3
    frequency:    16.0859787362
  - # 4
    frequency:    16.1193919099
  - # 5
    frequency:    21.4725198410
  - # 6
    frequency:    21.5139216397
  - # 7
    frequency:    31.1500622511
  - # 8
    frequency:    31.2032058022
  - # 9
    frequency:    40.4318072938
  - # 10
    frequency:    40.4760162771
  - # 11
    frequency:    42.0294129421
  - # 12
    frequency:    42.0669146328

- q-position: [    0.4444444,    0.0000000,    0.3750000 ]
  weight: 8    
  band:
  - # 1
    frequency:    13.5426646040
  - # 2
    frequency:    13.5680776629
  - # 3
    frequency:    18.4069251032
  - # 4
    frequency:    18.4176557557
  - # 5
    frequency:    19.2631414128
  - # 6
    frequency:    19.2811712784
  - # 7
    frequency:    37.9014786202
  - # 8
    frequency:    37.9261455360
  - # 9
    frequency:    41.5755515487
  - # 10
    frequency:    41.5874343973
  - # 11
    frequency:    41.6442253945
  - # 12
    frequency:    41.6562294042

- q-position: [    0.1111111,    0.1111111,    0.3750000 ]
  weight: 4    
  band:
  - # 1
    frequency:     6.9262080368
  - # 2
    frequency:     6.9858197868
  - # 3
    frequency:    10.1743587884
  - # 4
    frequency:    10.2137206885
  - # 5
    frequency:    18.4461706866
  - # 6
    frequency:    18.5746219913
  - # 7
    frequency:    24.2199358942
  - # 8
    frequency:    24.2983843343
  - # 9
    frequency:    38.3150110772
  - # 10
    frequency:    38.4158895205
  - # 11
    frequency:    39.2760873315
  - # 12
    frequency:    39.3439767224

- q-position: [    0.2222222,    0.1111111,    0.3750000 ]
  weight: 8    
  band:
  - # 1
    frequency:    10.2358759996
  - # 2
    frequency:    10.2369832240
  - # 3
    frequency:    15.5563683645
  - # 4
    frequency:    15.6033769463
  - # 5
    frequency:    22.1586119778
  - # 6
    frequency:    22.2112930078
  - # 7
    frequency:    26.8772545337
  - # 8
    frequency:    26.9573009820
  - # 9
    frequency:    40.4286933156
  - # 10
    frequency:    40.4823492758
  - # 11
    frequency:    41.5633396145
  - # 12
    frequency:    41.6172004995

- q-position: [    0.3333333,    0.1111111,    0.3750000 ]
  weight: 8    
  band:
  - # 1
    frequency:    13.0284440385
  - # 2
    frequency:    13.0526679993
  - # 3
    frequency:    19.4668868189
  - # 4
    frequency:    19.5057978011
  - # 5
    frequency:    19.7781942503
  - # 6
    frequency:    19.8021093436
  - # 7
    frequency:    34.2000643687
  - # 8
    frequency:    34.2487189318
  - # 9
    frequency:    41.6801496611
  - # 10
    frequency:    41.7127742406
  - # 11
    frequency:    42.5255808214
  - # 12
    frequency:    42.5435177353

- q-position: [   -0.5555556,    0.1111111,    0.3750000 ]
  weight: 8    
  band:
  - # 1
    frequency:    14.2752676563
  - # 2
    frequency:    14.3013022724
  - # 3
    frequency:    18.5314232187
  - # 4
    frequency:    18.5412157695
  - # 5
    frequency:    21.2337801969
  - # 6
    frequency:    21.2572709844
  - # 7
    frequency:    39.1925584027
  - # 8
    frequency:    39.2120081410
  - # 9
    frequency:    39.8869971392
  - # 10
    frequency:    39.8950627044
  - # 11
    frequency:    42.6757891899
  - # 12
    frequency:    42.6831849268

- q-position: [   -0.4444444,    0.1111111,    0.3750000 ]
  weight: 8    
  band:
  - # 1
    frequency:    12.3985578109
  - # 2
    frequency:    12.4255058481
  - # 3
    frequency:    20.1795030532
  - # 4
    frequency:    20.2012342126
  - # 5
    frequency:    20.5522720766
  - # 6
    frequency:    20.5573143054
  - # 7
    frequency:    34.8600140195
  - # 8
    frequency:    34.8789884840
  - # 9
    frequency:    41.1482615802
  - # 10
    frequency:    41.1741923525
  - # 11
    frequency:    42.0200868109
  - # 12
    frequency:    42.0320136935

- q-position: [   -0.3333333,    0.1111111,    0.3750000 ]
  weight: 8    
  band:
  - # 1
    frequency:     9.4374615302
  - # 2
    frequency:     9.4424943643
  - # 3
    frequency:    17.2815137780
  - # 4
    frequency:    17.3063887318
  - # 5
    frequency:    22.5117562626
  - # 6
    frequency:    22.5620854838
  - # 7
    frequency:    27.6140610388
  - # 8
    frequency:    27.6520797815
  - # 9
    frequency:    39.7314230219
  - # 10
    frequency:    39.7888882377
  - # 11
    frequency:    41.0885235702
  - # 12
    frequency:    41.1327064404

- q-position: [   -0.2222222,    0.1111111,    0.3750000 ]
  weight: 8    
  band:
  - # 1
    frequency:     6.0962708594
  - # 2
    frequency:     6.1639998538
  - # 3
    frequency:    11.5783731557
  - # 4
    frequency:    11.7071936733
  - # 5
    frequency:    19.4943409398
  - # 6
    frequency:    19.5182754011
  - # 7
    frequency:    24.4475360515
  - # 8
    frequency:    24.5242537413
  - # 9
    frequency:    37.8205002848
  - # 10
    frequency:    37.9038436989
  - # 11
    frequency:    38.8657004567
  - # 12
    frequency:    38.9523997295

- q-position: [   -0.1111111,    0.1111111,    0.3750000 ]
  weight: 4    
  band:
  - # 1
    frequency:     3.1263627949
  - # 2
    frequency:     3.3475713375
  - # 3
    frequency:     5.5194388645
  - # 4
    frequency:     5.9369133007
  - # 5
    frequency:    12.1779466159
  - # 6
    frequency:    12.1928038876
  - # 7
    frequency:    25.5029074319
  - # 8
    frequency:    25.5949535890
  - # 9
    frequency:    36.6449458139
  - # 10
    frequency:    36.7245423402
  - # 11
    frequency:    36.9221853078
  - # 12
    frequency:    37.0658800928

- q-position: [    0.2222222,    0.2222222,    0.3750000 ]
  weight: 4    
  band:
  - # 1
    frequency:    12.8460790915
  - # 2
    frequency:    12.8696531336
  - # 3
    frequency:    19.9598426133
  - # 4
    frequency:    19.9860853325
  - # 5
    frequency:    21.4187091028
  - # 6
    frequency:    21.4512917492
  - # 7
    frequency:    31.6714267528
  - # 8
    frequency:    31.7312737920
  - # 9
    frequency:    41.9957754567
  - # 10
    frequency:    42.0404006157
  - # 11
    frequency:    42.5731223470
  - # 12
    frequency:    42.5866961562

- q-position: [    0.3333333,    0.2222222,    0.3750000 ]
  weight: 8    
  band:
  - # 1
    frequency:    14.9410515769
  - # 2
    frequency:    14.9677452649
  - # 3
    frequency:    17.8672375381
  - # 4
    frequency:    17.8693657136
  - # 5
    frequency:    25.5236754635
  - # 6
    frequency:    25.5506571644
  - # 7
    frequency:    36.1049127703
  - # 8
    frequency:    36.1431278785
  - # 9
    frequency:    40.4131835757
  - # 10
    frequency:    40.4407713191
  - # 11
    frequency:    43.7508021473
  - # 12
    frequency:    43.7601669553

- q-position: [   -0.5555556,    0.2222222,    0.3750000 ]
  weight: 8    
  band:
  - # 1
    frequency:    14.2363718969
  - # 2
    frequency:    14.2666977476
  - # 3
    frequency:    18.4328175833
  - # 4
    frequency:    18.4365842610
  - # 5
    frequency:    26.3535600598
  - # 6
    frequency:    26.3729956852
  - # 7
    frequency:    36.7263136319
  - # 8
    frequency:    36.7333687971
  - # 9
    frequency:    39.6097338167
  - # 10
    frequency:    39.6278336265
  - # 11
    frequency:    43.4937139396
  - # 12
    frequency:    43.5051215798

- q-position: [   -0.4444444,    0.2222222,    0.3750000 ]
  weight: 8    
  band:
  - # 1
    frequency:    11.8211527691
  - # 2
    frequency:    11.8491890681
  - # 3
    frequency:    20.5865107874
  - # 4
    frequency:    20.6090234448
  - # 5
    frequency:    23.1704567939
  - # 6
    frequency:    23.1831669667
  - # 7
    frequency:    32.5193859852
  - # 8
    frequency:    32.5277736728
  - # 9
    frequency:    41.0429068655
  - # 10
    frequency:    41.0751621789
  - # 11
    frequency:    41.9703539560
  - # 12
    frequency:    41.9854133720

- q-position: [   -0.3333333,    0.2222222,    0.3750000 ]
  weight: 8    
  band:
  - # 1
    frequency:     9.1844392101
  - # 2
    frequency:     9.1935727319
  - # 3
    frequency:    16.8639170571
  - # 4
    frequency:    16.9344092547
  - # 5
    frequency:    22.6169300592
  - # 6
    frequency:    22.6662696534
  - # 7
    frequency:    28.3261492415
  - # 8
    frequency:    28.3386720918
  - # 9
    frequency:    39.9125241610
  - # 10
    frequency:    39.9552672647
  - # 11
    frequency:    40.5961585124
  - # 12
    frequency:    40.6579026276

- q-position: [   -0.2222222,    0.2222222,    0.3750000 ]
  weight: 4    
  band:
  - # 1
    frequency:     6.8509610430
  - # 2
    frequency:     6.8936937350
  - # 3
    frequency:    11.7295900115
  - # 4
    frequency:    11.8921477900
  - # 5
    frequency:    23.4063484231
  - # 6
    frequency:    23.4244085193
  - # 7
    frequency:    24.0201341095
  - # 8
    frequency:    24.0890851159
  - # 9
    frequency:    38.4430345954
  - # 10
    frequency:    38.5045992452
  - # 11
    frequency:    39.2134636975
  - # 12
    frequency:    39.3174435135

- q-position: [   -0.6666667,    0.3333333,    0.3750000 ]
  weight: 4    
  band:
  - # 1
    frequency:    15.9512056829
  - # 2
    frequency:    15.9680503983
  - # 3
    frequency:    16.7486415450
  - # 4
    frequency:    16.7668011453
  - # 5
    frequency:    29.5706747527
  - # 6
    frequency:    29.5709586312
  - # 7
    frequency:    37.5096759639
  - # 8
    frequency:    37.5229840618
  - # 9
    frequency:    37.7504188114
  - # 10
    frequency:    37.7715904605
  - # 11
    frequency:    44.2529412388
  - # 12
    frequency:    44.2669251168

- q-position: [   -0.5555556,    0.3333333,    0.3750000 ]
  weight: 8    
  band:
  - # 1
    frequency:    14.2173228456
  - # 2
    frequency:    14.2465346126
  - # 3
    frequency:    18.4499359697
  - # 4
    frequency:    18.4525395061
  - # 5
    frequency:    26.6063155073
  - # 6
    frequency:    26.6152674827
  - # 7
    frequency:    36.4696060538
  - # 8
    frequency:    36.4737684031
  - # 9
    frequency:    39.7110372781
  - # 10
    frequency:    39.7215615088
  - # 11
    frequency:    43.4727532778
  - # 12
    frequency:    43.4803956188

- q-position: [   -0.4444444,    0.3333333,    0.3750000 ]
  weight: 8    
  band:
  - # 1
    frequency:    12.2963777210
  - # 2
    frequency:    12.3245594414
  - # 3
    frequency:    20.2445153011
  - # 4
    frequency:    20.2653428564
  - # 5
    frequency:    20.3212085568
  - # 6
    frequency:    20.3388769166
  - # 7
    frequency:    35.2255787897
  - # 8
    frequency:    35.2373648417
  - # 9
    frequency:    41.1191244520
  - # 10
    frequency:    41.1454822367
  - # 11
    frequency:    41.8506871326
  - # 12
    frequency:    41.8705709651

- q-position: [   -0.3333333,    0.3333333,    0.3750000 ]
  weight: 4    
  band:
  - # 1
    frequency:    10.3903750897
  - # 2
    frequency:    10.4085007925
  - # 3
    frequency:    16.1080360552
  - # 4
    frequency:    16.1670969544
  - # 5
    frequency:    21.7756692651
  - # 6
    frequency:    21.8144170407
  - # 7
    frequency:    32.3477225203
  - # 8
    frequency:    32.3647620384
  - # 9
    frequency:    40.4013781132
  - # 10
    frequency:    40.4317365951
  - # 11
    frequency:    41.1389476491
  - # 12
    frequency:    41.1994969170

- q-position: [   -0.5555556,    0.4444444,    0.3750000 ]
  weight: 4    
  band:
  - # 1
    frequency:    14.1843621819
  - # 2
    frequency:    14.2096990017
  - # 3
    frequency:    18.6048752504
  - # 4
    frequency:    18.6147276858
  - # 5
    frequency:    21.5100478974
  - # 6
    frequency:    21.5146684797
  - # 7
    frequency:    39.2637241446
  - # 8
    frequency:    39.2682257023
  - # 9
    frequency:    39.7679455617
  - # 10
    frequency:    39.7724590385
  - # 11
    frequency:    42.5988454715
  - # 12
    frequency:    42.5989532642

- q-position: [   -0.4444444,    0.4444444,    0.3750000 ]
  weight: 4    
  band:
  - # 1
    frequency:    13.4022493127
  - # 2
    frequency:    13.4289621940
  - # 3
    frequency:    18.4122880715
  - # 4
    frequency:    18.4200002714
  - # 5
    frequency:    19.3649308910
  - # 6
    frequency:    19.3820958213
  - # 7
    frequency:    38.3336390743
  - # 8
    frequency:    38.3444375706
  - # 9
    frequency:    41.1861854214
  - # 10
    frequency:    41.2120532353
  - # 11
    frequency:    41.6351063283
  - # 12
    frequency:    41.6409439247

