# Thermal properties / unit cell (natom)

unit:
  temperature:   K
  free_energy:   kJ/mol
  entropy:       J/K/mol
  heat_capacity: J/K/mol

natom:     4
num_modes: 3888
num_integrated_modes: 3456

zero_point_energy:      72.5940756
high_T_entropy:        190.9736547

thermal_properties:
- temperature:         0.0000000
  free_energy:        72.5940756
  entropy:             0.0000000
  heat_capacity:       0.0000000
  energy:             72.5940756

- temperature:        10.0000000
  free_energy:        72.5940754
  entropy:             0.0002644
  heat_capacity:       0.0023677
  energy:             72.5940780

- temperature:        20.0000000
  free_energy:        72.5940015
  entropy:             0.0231625
  heat_capacity:       0.1056918
  energy:             72.5944648

- temperature:        30.0000000
  free_energy:        72.5933847
  entropy:             0.1122420
  heat_capacity:       0.3741281
  energy:             72.5967520

- temperature:        40.0000000
  free_energy:        72.5915296
  entropy:             0.2691597
  heat_capacity:       0.7483015
  energy:             72.6022960

- temperature:        50.0000000
  free_energy:        72.5878131
  entropy:             0.4827056
  heat_capacity:       1.1925561
  energy:             72.6119484

- temperature:        60.0000000
  free_energy:        72.5817172
  entropy:             0.7438900
  heat_capacity:       1.6981525
  energy:             72.6263506

- temperature:        70.0000000
  free_energy:        72.5727940
  entropy:             1.0475503
  heat_capacity:       2.2670904
  energy:             72.6461225

- temperature:        80.0000000
  free_energy:        72.5606336
  entropy:             1.3910175
  heat_capacity:       2.9027863
  energy:             72.6719150

- temperature:        90.0000000
  free_energy:        72.5448456
  entropy:             1.7729321
  heat_capacity:       3.6077971
  energy:             72.7044095

- temperature:       100.0000000
  free_energy:        72.5250493
  entropy:             2.1925688
  heat_capacity:       4.3832943
  energy:             72.7443062

- temperature:       110.0000000
  free_energy:        72.5008701
  entropy:             2.6494342
  heat_capacity:       5.2284615
  energy:             72.7923079

- temperature:       120.0000000
  free_energy:        72.4719383
  entropy:             3.1429887
  heat_capacity:       6.1400024
  energy:             72.8490969

- temperature:       130.0000000
  free_energy:        72.4378906
  entropy:             3.6724574
  heat_capacity:       7.1121115
  energy:             72.9153100

- temperature:       140.0000000
  free_energy:        72.3983731
  entropy:             4.2367279
  heat_capacity:       8.1369242
  energy:             72.9915150

- temperature:       150.0000000
  free_energy:        72.3530449
  entropy:             4.8343249
  heat_capacity:       9.2052514
  energy:             73.0781936

- temperature:       160.0000000
  free_energy:        72.3015815
  entropy:             5.4634448
  heat_capacity:      10.3073770
  energy:             73.1757326

- temperature:       170.0000000
  free_energy:        72.2436778
  entropy:             6.1220245
  heat_capacity:      11.4337591
  energy:             73.2844219

- temperature:       180.0000000
  free_energy:        72.1790502
  entropy:             6.8078270
  heat_capacity:      12.5755584
  energy:             73.4044591

- temperature:       190.0000000
  free_energy:        72.1074382
  entropy:             7.5185270
  heat_capacity:      13.7249771
  energy:             73.5359584

- temperature:       200.0000000
  free_energy:        72.0286045
  entropy:             8.2517873
  heat_capacity:      14.8754292
  energy:             73.6789619

- temperature:       210.0000000
  free_energy:        71.9423349
  entropy:             9.0053217
  heat_capacity:      16.0215781
  energy:             73.8334525

- temperature:       220.0000000
  free_energy:        71.8484378
  entropy:             9.7769429
  heat_capacity:      17.1592799
  energy:             73.9993652

- temperature:       230.0000000
  free_energy:        71.7467426
  entropy:            10.5645954
  heat_capacity:      18.2854682
  energy:             74.1765996

- temperature:       240.0000000
  free_energy:        71.6370988
  entropy:            11.3663759
  heat_capacity:      19.3980070
  energy:             74.3650290

- temperature:       250.0000000
  free_energy:        71.5193738
  entropy:            12.1805431
  heat_capacity:      20.4955327
  energy:             74.5645096

- temperature:       260.0000000
  free_energy:        71.3934519
  entropy:            13.0055198
  heat_capacity:      21.5772996
  energy:             74.7748871

- temperature:       270.0000000
  free_energy:        71.2592322
  entropy:            13.8398888
  heat_capacity:      22.6430372
  energy:             74.9960021

- temperature:       280.0000000
  free_energy:        71.1166271
  entropy:            14.6823841
  heat_capacity:      23.6928249
  energy:             75.2276946

- temperature:       290.0000000
  free_energy:        70.9655612
  entropy:            15.5318806
  heat_capacity:      24.7269845
  energy:             75.4698065

- temperature:       300.0000000
  free_energy:        70.8059695
  entropy:            16.3873811
  heat_capacity:      25.7459932
  energy:             75.7221838

- temperature:       310.0000000
  free_energy:        70.6377965
  entropy:            17.2480041
  heat_capacity:      26.7504132
  energy:             75.9846778

- temperature:       320.0000000
  free_energy:        70.4609949
  entropy:            18.1129703
  heat_capacity:      27.7408383
  energy:             76.2571454

- temperature:       330.0000000
  free_energy:        70.2755249
  entropy:            18.9815907
  heat_capacity:      28.7178538
  energy:             76.5394498

- temperature:       340.0000000
  free_energy:        70.0813530
  entropy:            19.8532549
  heat_capacity:      29.6820087
  energy:             76.8314596

- temperature:       350.0000000
  free_energy:        69.8784515
  entropy:            20.7274209
  heat_capacity:      30.6337971
  energy:             77.1330488

- temperature:       360.0000000
  free_energy:        69.6667978
  entropy:            21.6036055
  heat_capacity:      31.5736470
  energy:             77.4440958

- temperature:       370.0000000
  free_energy:        69.4463741
  entropy:            22.4813758
  heat_capacity:      32.5019160
  energy:             77.7644831

- temperature:       380.0000000
  free_energy:        69.2171663
  entropy:            23.3603425
  heat_capacity:      33.4188909
  energy:             78.0940965

- temperature:       390.0000000
  free_energy:        68.9791644
  entropy:            24.2401529
  heat_capacity:      34.3247897
  energy:             78.4328240

- temperature:       400.0000000
  free_energy:        68.7323615
  entropy:            25.1204859
  heat_capacity:      35.2197679
  energy:             78.7805559

- temperature:       410.0000000
  free_energy:        68.4767539
  entropy:            26.0010473
  heat_capacity:      36.1039239
  energy:             79.1371833

- temperature:       420.0000000
  free_energy:        68.2123407
  entropy:            26.8815660
  heat_capacity:      36.9773070
  energy:             79.5025984

- temperature:       430.0000000
  free_energy:        67.9391236
  entropy:            27.7617907
  heat_capacity:      37.8399247
  energy:             79.8766936

- temperature:       440.0000000
  free_energy:        67.6571067
  entropy:            28.6414870
  heat_capacity:      38.6917503
  energy:             80.2593610

- temperature:       450.0000000
  free_energy:        67.3662963
  entropy:            29.5204357
  heat_capacity:      39.5327302
  energy:             80.6504924

- temperature:       460.0000000
  free_energy:        67.0667011
  entropy:            30.3984305
  heat_capacity:      40.3627905
  energy:             81.0499792

- temperature:       470.0000000
  free_energy:        66.7583316
  entropy:            31.2752766
  heat_capacity:      41.1818434
  energy:             81.4577116

- temperature:       480.0000000
  free_energy:        66.4412001
  entropy:            32.1507895
  heat_capacity:      41.9897925
  energy:             81.8735790

- temperature:       490.0000000
  free_energy:        66.1153208
  entropy:            33.0247944
  heat_capacity:      42.7865377
  energy:             82.2974701

- temperature:       500.0000000
  free_energy:        65.7807097
  entropy:            33.8971247
  heat_capacity:      43.5719793
  energy:             82.7292721

- temperature:       510.0000000
  free_energy:        65.4373844
  entropy:            34.7676220
  heat_capacity:      44.3460219
  energy:             83.1688716

- temperature:       520.0000000
  free_energy:        65.0853639
  entropy:            35.6361352
  heat_capacity:      45.1085766
  energy:             83.6161542

- temperature:       530.0000000
  free_energy:        64.7246688
  entropy:            36.5025204
  heat_capacity:      45.8595640
  energy:             84.0710046

- temperature:       540.0000000
  free_energy:        64.3553211
  entropy:            37.3666401
  heat_capacity:      46.5989157
  energy:             84.5333067

- temperature:       550.0000000
  free_energy:        63.9773440
  entropy:            38.2283636
  heat_capacity:      47.3265759
  energy:             85.0029440

- temperature:       560.0000000
  free_energy:        63.5907622
  entropy:            39.0875660
  heat_capacity:      48.0425020
  energy:             85.4797991

- temperature:       570.0000000
  free_energy:        63.1956015
  entropy:            39.9441286
  heat_capacity:      48.7466657
  energy:             85.9637548

- temperature:       580.0000000
  free_energy:        62.7918888
  entropy:            40.7979386
  heat_capacity:      49.4390531
  energy:             86.4546932

- temperature:       590.0000000
  free_energy:        62.3796522
  entropy:            41.6488887
  heat_capacity:      50.1196648
  energy:             86.9524966

- temperature:       600.0000000
  free_energy:        61.9589209
  entropy:            42.4968773
  heat_capacity:      50.7885159
  energy:             87.4570473

- temperature:       610.0000000
  free_energy:        61.5297249
  entropy:            43.3418081
  heat_capacity:      51.4456354
  energy:             87.9682278

- temperature:       620.0000000
  free_energy:        61.0920952
  entropy:            44.1835900
  heat_capacity:      52.0910660
  energy:             88.4859210

- temperature:       630.0000000
  free_energy:        60.6460639
  entropy:            45.0221373
  heat_capacity:      52.7248637
  energy:             89.0100104

- temperature:       640.0000000
  free_energy:        60.1916635
  entropy:            45.8573691
  heat_capacity:      53.3470967
  energy:             89.5403798

- temperature:       650.0000000
  free_energy:        59.7289278
  entropy:            46.6892096
  heat_capacity:      53.9578450
  energy:             90.0769140

- temperature:       660.0000000
  free_energy:        59.2578909
  entropy:            47.5175876
  heat_capacity:      54.5571996
  energy:             90.6194987

- temperature:       670.0000000
  free_energy:        58.7785878
  entropy:            48.3424366
  heat_capacity:      55.1452619
  energy:             91.1680204

- temperature:       680.0000000
  free_energy:        58.2910541
  entropy:            49.1636949
  heat_capacity:      55.7221424
  energy:             91.7223666

- temperature:       690.0000000
  free_energy:        57.7953261
  entropy:            49.9813047
  heat_capacity:      56.2879606
  energy:             92.2824263

- temperature:       700.0000000
  free_energy:        57.2914404
  entropy:            50.7952129
  heat_capacity:      56.8428435
  energy:             92.8480894

- temperature:       710.0000000
  free_energy:        56.7794343
  entropy:            51.6053703
  heat_capacity:      57.3869255
  energy:             93.4192472

- temperature:       720.0000000
  free_energy:        56.2593456
  entropy:            52.4117316
  heat_capacity:      57.9203471
  energy:             93.9957924

- temperature:       730.0000000
  free_energy:        55.7312125
  entropy:            53.2142556
  heat_capacity:      58.4432545
  energy:             94.5776191

- temperature:       740.0000000
  free_energy:        55.1950734
  entropy:            54.0129047
  heat_capacity:      58.9557989
  energy:             95.1646229

- temperature:       750.0000000
  free_energy:        54.6509674
  entropy:            54.8076448
  heat_capacity:      59.4581357
  energy:             95.7567010

- temperature:       760.0000000
  free_energy:        54.0989337
  entropy:            55.5984454
  heat_capacity:      59.9504239
  energy:             96.3537521

- temperature:       770.0000000
  free_energy:        53.5390117
  entropy:            56.3852790
  heat_capacity:      60.4328257
  energy:             96.9556766

- temperature:       780.0000000
  free_energy:        52.9712414
  entropy:            57.1681216
  heat_capacity:      60.9055056
  energy:             97.5623763

- temperature:       790.0000000
  free_energy:        52.3956627
  entropy:            57.9469521
  heat_capacity:      61.3686301
  energy:             98.1737548

- temperature:       800.0000000
  free_energy:        51.8123158
  entropy:            58.7217522
  heat_capacity:      61.8223675
  energy:             98.7897176

- temperature:       810.0000000
  free_energy:        51.2212411
  entropy:            59.4925066
  heat_capacity:      62.2668868
  energy:             99.4101714

- temperature:       820.0000000
  free_energy:        50.6224792
  entropy:            60.2592024
  heat_capacity:      62.7023578
  energy:            100.0350251

- temperature:       830.0000000
  free_energy:        50.0160706
  entropy:            61.0218294
  heat_capacity:      63.1289506
  energy:            100.6641890

- temperature:       840.0000000
  free_energy:        49.4020562
  entropy:            61.7803797
  heat_capacity:      63.5468350
  energy:            101.2975751

- temperature:       850.0000000
  free_energy:        48.7804766
  entropy:            62.5348478
  heat_capacity:      63.9561806
  energy:            101.9350972

- temperature:       860.0000000
  free_energy:        48.1513728
  entropy:            63.2852302
  heat_capacity:      64.3571563
  energy:            102.5766708

- temperature:       870.0000000
  free_energy:        47.5147857
  entropy:            64.0315257
  heat_capacity:      64.7499299
  energy:            103.2222130

- temperature:       880.0000000
  free_energy:        46.8707559
  entropy:            64.7737349
  heat_capacity:      65.1346681
  energy:            103.8716426

- temperature:       890.0000000
  free_energy:        46.2193246
  entropy:            65.5118602
  heat_capacity:      65.5115361
  energy:            104.5248802

- temperature:       900.0000000
  free_energy:        45.5605323
  entropy:            66.2459059
  heat_capacity:      65.8806976
  energy:            105.1818477

- temperature:       910.0000000
  free_energy:        44.8944200
  entropy:            66.9758779
  heat_capacity:      66.2423145
  energy:            105.8424690

- temperature:       920.0000000
  free_energy:        44.2210283
  entropy:            67.7017837
  heat_capacity:      66.5965467
  energy:            106.5066694

- temperature:       930.0000000
  free_energy:        43.5403979
  entropy:            68.4236322
  heat_capacity:      66.9435520
  energy:            107.1743758

- temperature:       940.0000000
  free_energy:        42.8525692
  entropy:            69.1414337
  heat_capacity:      67.2834861
  energy:            107.8455168

- temperature:       950.0000000
  free_energy:        42.1575827
  entropy:            69.8551998
  heat_capacity:      67.6165025
  energy:            108.5200225

- temperature:       960.0000000
  free_energy:        41.4554786
  entropy:            70.5649435
  heat_capacity:      67.9427522
  energy:            109.1978243

- temperature:       970.0000000
  free_energy:        40.7462972
  entropy:            71.2706787
  heat_capacity:      68.2623838
  energy:            109.8788555

- temperature:       980.0000000
  free_energy:        40.0300783
  entropy:            71.9724205
  heat_capacity:      68.5755435
  energy:            110.5630504

- temperature:       990.0000000
  free_energy:        39.3068620
  entropy:            72.6701851
  heat_capacity:      68.8823747
  energy:            111.2503452

- temperature:      1000.0000000
  free_energy:        38.5766878
  entropy:            73.3639895
  heat_capacity:      69.1830185
  energy:            111.9406773
