# Thermal properties / unit cell (natom)

unit:
  temperature:   K
  free_energy:   kJ/mol
  entropy:       J/K/mol
  heat_capacity: J/K/mol

natom:     4
num_modes: 3888
num_integrated_modes: 3872

zero_point_energy:      64.7392709
high_T_entropy:        230.9711934

thermal_properties:
- temperature:         0.0000000
  free_energy:        64.7392709
  entropy:             0.0000000
  heat_capacity:       0.0000000
  energy:             64.7392709

- temperature:        10.0000000
  free_energy:        64.7392591
  entropy:             0.0062181
  heat_capacity:       0.0226167
  energy:             64.7393212

- temperature:        20.0000000
  free_energy:        64.7390220
  entropy:             0.0468706
  heat_capacity:       0.1150853
  energy:             64.7399594

- temperature:        30.0000000
  free_energy:        64.7381999
  entropy:             0.1246947
  heat_capacity:       0.3008621
  energy:             64.7419408

- temperature:        40.0000000
  free_energy:        64.7363684
  entropy:             0.2501278
  heat_capacity:       0.6050901
  energy:             64.7463735

- temperature:        50.0000000
  free_energy:        64.7330221
  entropy:             0.4280521
  heat_capacity:       1.0242084
  energy:             64.7544247

- temperature:        60.0000000
  free_energy:        64.7276263
  entropy:             0.6603013
  heat_capacity:       1.5594953
  energy:             64.7672443

- temperature:        70.0000000
  free_energy:        64.7196298
  entropy:             0.9484464
  heat_capacity:       2.2166548
  energy:             64.7860211

- temperature:        80.0000000
  free_energy:        64.7084653
  entropy:             1.2941738
  heat_capacity:       3.0001787
  energy:             64.8119992

- temperature:        90.0000000
  free_energy:        64.6935498
  entropy:             1.6988329
  heat_capacity:       3.9095564
  energy:             64.8464448

- temperature:       100.0000000
  free_energy:        64.6742902
  entropy:             2.1630034
  heat_capacity:       4.9388431
  energy:             64.8905905

- temperature:       110.0000000
  free_energy:        64.6500925
  entropy:             2.6863207
  heat_capacity:       6.0778792
  energy:             64.9455878

- temperature:       120.0000000
  free_energy:        64.6203708
  entropy:             3.2675033
  heat_capacity:       7.3137970
  energy:             65.0124712

- temperature:       130.0000000
  free_energy:        64.5845563
  entropy:             3.9044836
  heat_capacity:       8.6323654
  energy:             65.0921392

- temperature:       140.0000000
  free_energy:        64.5421040
  entropy:             4.5945831
  heat_capacity:      10.0190986
  energy:             65.1853457

- temperature:       150.0000000
  free_energy:        64.4924980
  entropy:             5.3346937
  heat_capacity:      11.4601199
  energy:             65.2927020

- temperature:       160.0000000
  free_energy:        64.4352547
  entropy:             6.1214498
  heat_capacity:      12.9427675
  energy:             65.4146866

- temperature:       170.0000000
  free_energy:        64.3699251
  entropy:             6.9513758
  heat_capacity:      14.4559481
  energy:             65.5516589

- temperature:       180.0000000
  free_energy:        64.2960948
  entropy:             7.8210059
  heat_capacity:      15.9902651
  energy:             65.7038759

- temperature:       190.0000000
  free_energy:        64.2133838
  entropy:             8.7269731
  heat_capacity:      17.5379748
  energy:             65.8715087

- temperature:       200.0000000
  free_energy:        64.1214449
  entropy:             9.6660705
  heat_capacity:      19.0928264
  energy:             66.0546590

- temperature:       210.0000000
  free_energy:        64.0199621
  entropy:            10.6352871
  heat_capacity:      20.6498399
  energy:             66.2533723

- temperature:       220.0000000
  free_energy:        63.9086481
  entropy:            11.6318256
  heat_capacity:      22.2050655
  energy:             66.4676498

- temperature:       230.0000000
  free_energy:        63.7872431
  entropy:            12.6531045
  heat_capacity:      23.7553531
  energy:             66.6974571

- temperature:       240.0000000
  free_energy:        63.6555115
  entropy:            13.6967513
  heat_capacity:      25.2981499
  energy:             66.9427318

- temperature:       250.0000000
  free_energy:        63.5132408
  entropy:            14.7605891
  heat_capacity:      26.8313346
  energy:             67.2033881

- temperature:       260.0000000
  free_energy:        63.3602391
  entropy:            15.8426203
  heat_capacity:      28.3530885
  energy:             67.4793204

- temperature:       270.0000000
  free_energy:        63.1963339
  entropy:            16.9410092
  heat_capacity:      29.8618018
  energy:             67.7704063

- temperature:       280.0000000
  free_energy:        63.0213701
  entropy:            18.0540643
  heat_capacity:      31.3560088
  energy:             68.0765081

- temperature:       290.0000000
  free_energy:        62.8352089
  entropy:            19.1802231
  heat_capacity:      32.8343467
  energy:             68.3974736

- temperature:       300.0000000
  free_energy:        62.6377268
  entropy:            20.3180369
  heat_capacity:      34.2955327
  energy:             68.7331378

- temperature:       310.0000000
  free_energy:        62.4288138
  entropy:            21.4661588
  heat_capacity:      35.7383534
  energy:             69.0833230

- temperature:       320.0000000
  free_energy:        62.2083734
  entropy:            22.6233326
  heat_capacity:      37.1616624
  energy:             69.4478398

- temperature:       330.0000000
  free_energy:        61.9763209
  entropy:            23.7883840
  heat_capacity:      38.5643839
  energy:             69.8264877

- temperature:       340.0000000
  free_energy:        61.7325831
  entropy:            24.9602129
  heat_capacity:      39.9455175
  energy:             70.2190555

- temperature:       350.0000000
  free_energy:        61.4770975
  entropy:            26.1377870
  heat_capacity:      41.3041455
  energy:             70.6253230

- temperature:       360.0000000
  free_energy:        61.2098115
  entropy:            27.3201366
  heat_capacity:      42.6394379
  energy:             71.0450607

- temperature:       370.0000000
  free_energy:        60.9306819
  entropy:            28.5063502
  heat_capacity:      43.9506581
  energy:             71.4780315

- temperature:       380.0000000
  free_energy:        60.6396745
  entropy:            29.6955710
  heat_capacity:      45.2371653
  energy:             71.9239914

- temperature:       390.0000000
  free_energy:        60.3367632
  entropy:            30.8869934
  heat_capacity:      46.4984169
  energy:             72.3826906

- temperature:       400.0000000
  free_energy:        60.0219298
  entropy:            32.0798608
  heat_capacity:      47.7339676
  energy:             72.8538741

- temperature:       410.0000000
  free_energy:        59.6951635
  entropy:            33.2734624
  heat_capacity:      48.9434687
  energy:             73.3372831

- temperature:       420.0000000
  free_energy:        59.3564603
  entropy:            34.4671320
  heat_capacity:      50.1266645
  energy:             73.8326558

- temperature:       430.0000000
  free_energy:        59.0058227
  entropy:            35.6602452
  heat_capacity:      51.2833888
  energy:             74.3397281

- temperature:       440.0000000
  free_energy:        58.6432592
  entropy:            36.8522177
  heat_capacity:      52.4135599
  energy:             74.8582350

- temperature:       450.0000000
  free_energy:        58.2687840
  entropy:            38.0425041
  heat_capacity:      53.5171752
  energy:             75.3879108

- temperature:       460.0000000
  free_energy:        57.8824165
  entropy:            39.2305952
  heat_capacity:      54.5943055
  energy:             75.9284902

- temperature:       470.0000000
  free_energy:        57.4841810
  entropy:            40.4160172
  heat_capacity:      55.6450887
  energy:             76.4797091

- temperature:       480.0000000
  free_energy:        57.0741065
  entropy:            41.5983299
  heat_capacity:      56.6697238
  energy:             77.0413049

- temperature:       490.0000000
  free_energy:        56.6522261
  entropy:            42.7771248
  heat_capacity:      57.6684646
  energy:             77.6130173

- temperature:       500.0000000
  free_energy:        56.2185770
  entropy:            43.9520237
  heat_capacity:      58.6416139
  energy:             78.1945888

- temperature:       510.0000000
  free_energy:        55.7731998
  entropy:            45.1226776
  heat_capacity:      59.5895175
  energy:             78.7857654

- temperature:       520.0000000
  free_energy:        55.3161387
  entropy:            46.2887647
  heat_capacity:      60.5125587
  energy:             79.3862963

- temperature:       530.0000000
  free_energy:        54.8474407
  entropy:            47.4499893
  heat_capacity:      61.4111532
  energy:             79.9959351

- temperature:       540.0000000
  free_energy:        54.3671560
  entropy:            48.6060803
  heat_capacity:      62.2857440
  energy:             80.6144394

- temperature:       550.0000000
  free_energy:        53.8753371
  entropy:            49.7567899
  heat_capacity:      63.1367971
  energy:             81.2415715

- temperature:       560.0000000
  free_energy:        53.3720389
  entropy:            50.9018921
  heat_capacity:      63.9647972
  energy:             81.8770985

- temperature:       570.0000000
  free_energy:        52.8573186
  entropy:            52.0411818
  heat_capacity:      64.7702436
  energy:             82.5207922

- temperature:       580.0000000
  free_energy:        52.3312352
  entropy:            53.1744735
  heat_capacity:      65.5536475
  energy:             83.1724299

- temperature:       590.0000000
  free_energy:        51.7938497
  entropy:            54.3015996
  heat_capacity:      66.3155279
  energy:             83.8317934

- temperature:       600.0000000
  free_energy:        51.2452243
  entropy:            55.4224102
  heat_capacity:      67.0564094
  energy:             84.4986704

- temperature:       610.0000000
  free_energy:        50.6854230
  entropy:            56.5367712
  heat_capacity:      67.7768196
  energy:             85.1728534

- temperature:       620.0000000
  free_energy:        50.1145108
  entropy:            57.6445638
  heat_capacity:      68.4772866
  energy:             85.8541403

- temperature:       630.0000000
  free_energy:        49.5325539
  entropy:            58.7456833
  heat_capacity:      69.1583372
  energy:             86.5423344

- temperature:       640.0000000
  free_energy:        48.9396197
  entropy:            59.8400382
  heat_capacity:      69.8204954
  energy:             87.2372441

- temperature:       650.0000000
  free_energy:        48.3357760
  entropy:            60.9275494
  heat_capacity:      70.4642802
  energy:             87.9386831

- temperature:       660.0000000
  free_energy:        47.7210917
  entropy:            62.0081492
  heat_capacity:      71.0902052
  energy:             88.6464702

- temperature:       670.0000000
  free_energy:        47.0956362
  entropy:            63.0817807
  heat_capacity:      71.6987767
  energy:             89.3604293

- temperature:       680.0000000
  free_energy:        46.4594795
  entropy:            64.1483971
  heat_capacity:      72.2904932
  energy:             90.0803895

- temperature:       690.0000000
  free_energy:        45.8126918
  entropy:            65.2079606
  heat_capacity:      72.8658445
  energy:             90.8061846

- temperature:       700.0000000
  free_energy:        45.1553439
  entropy:            66.2604423
  heat_capacity:      73.4253107
  energy:             91.5376535

- temperature:       710.0000000
  free_energy:        44.4875066
  entropy:            67.3058209
  heat_capacity:      73.9693625
  energy:             92.2746395

- temperature:       720.0000000
  free_energy:        43.8092512
  entropy:            68.3440829
  heat_capacity:      74.4984597
  energy:             93.0169909

- temperature:       730.0000000
  free_energy:        43.1206487
  entropy:            69.3752214
  heat_capacity:      75.0130518
  energy:             93.7645603

- temperature:       740.0000000
  free_energy:        42.4217705
  entropy:            70.3992358
  heat_capacity:      75.5135771
  energy:             94.5172050

- temperature:       750.0000000
  free_energy:        41.7126877
  entropy:            71.4161316
  heat_capacity:      76.0004629
  energy:             95.2747864

- temperature:       760.0000000
  free_energy:        40.9934716
  entropy:            72.4259192
  heat_capacity:      76.4741254
  energy:             96.0371702

- temperature:       770.0000000
  free_energy:        40.2641930
  entropy:            73.4286145
  heat_capacity:      76.9349693
  energy:             96.8042262

- temperature:       780.0000000
  free_energy:        39.5249228
  entropy:            74.4242376
  heat_capacity:      77.3833882
  energy:             97.5758282

- temperature:       790.0000000
  free_energy:        38.7757317
  entropy:            75.4128127
  heat_capacity:      77.8197644
  energy:             98.3518538

- temperature:       800.0000000
  free_energy:        38.0166900
  entropy:            76.3943682
  heat_capacity:      78.2444693
  energy:             99.1321845

- temperature:       810.0000000
  free_energy:        37.2478677
  entropy:            77.3689356
  heat_capacity:      78.6578632
  energy:             99.9167055

- temperature:       820.0000000
  free_energy:        36.4693345
  entropy:            78.3365498
  heat_capacity:      79.0602953
  energy:            100.7053053

- temperature:       830.0000000
  free_energy:        35.6811597
  entropy:            79.2972485
  heat_capacity:      79.4521046
  energy:            101.4978760

- temperature:       840.0000000
  free_energy:        34.8834124
  entropy:            80.2510722
  heat_capacity:      79.8336193
  energy:            102.2943131

- temperature:       850.0000000
  free_energy:        34.0761611
  entropy:            81.1980636
  heat_capacity:      80.2051574
  energy:            103.0945151

- temperature:       860.0000000
  free_energy:        33.2594738
  entropy:            82.1382677
  heat_capacity:      80.5670269
  energy:            103.8983840

- temperature:       870.0000000
  free_energy:        32.4334182
  entropy:            83.0717313
  heat_capacity:      80.9195260
  energy:            104.7058244

- temperature:       880.0000000
  free_energy:        31.5980614
  entropy:            83.9985032
  heat_capacity:      81.2629433
  energy:            105.5167442

- temperature:       890.0000000
  free_energy:        30.7534702
  entropy:            84.9186334
  heat_capacity:      81.5975580
  energy:            106.3310540

- temperature:       900.0000000
  free_energy:        29.8997107
  entropy:            85.8321736
  heat_capacity:      81.9236402
  energy:            107.1486669

- temperature:       910.0000000
  free_energy:        29.0368486
  entropy:            86.7391765
  heat_capacity:      82.2414513
  energy:            107.9694992

- temperature:       920.0000000
  free_energy:        28.1649488
  entropy:            87.6396961
  heat_capacity:      82.5512441
  energy:            108.7934692

- temperature:       930.0000000
  free_energy:        27.2840761
  entropy:            88.5337872
  heat_capacity:      82.8532629
  energy:            109.6204982

- temperature:       940.0000000
  free_energy:        26.3942943
  entropy:            89.4215054
  heat_capacity:      83.1477440
  energy:            110.4505094

- temperature:       950.0000000
  free_energy:        25.4956670
  entropy:            90.3029070
  heat_capacity:      83.4349159
  energy:            111.2834287

- temperature:       960.0000000
  free_energy:        24.5882570
  entropy:            91.1780490
  heat_capacity:      83.7149996
  energy:            112.1191841

- temperature:       970.0000000
  free_energy:        23.6721267
  entropy:            92.0469887
  heat_capacity:      83.9882084
  energy:            112.9577057

- temperature:       980.0000000
  free_energy:        22.7473377
  entropy:            92.9097839
  heat_capacity:      84.2547489
  energy:            113.7989260

- temperature:       990.0000000
  free_energy:        21.8139513
  entropy:            93.7664928
  heat_capacity:      84.5148204
  energy:            114.6427792

- temperature:      1000.0000000
  free_energy:        20.8720280
  entropy:            94.6171735
  heat_capacity:      84.7686159
  energy:            115.4892015
