   4   4   0   0
  0.4874656E+01  0.2467155E-09  0.2467155E-09  0.3699158E-09  0.5000000E-15
  1.000000000000000E-004
  CAR 
 graphite                                
     28.27202763    -13.51590893  301     13.72328607      1.00000000
    -13.516  0.0000E+00  0.0000E+00
    -13.377  0.0000E+00  0.0000E+00
    -13.237  0.0000E+00  0.0000E+00
    -13.098  0.0000E+00  0.0000E+00
    -12.959  0.0000E+00  0.0000E+00
    -12.819  0.0000E+00  0.0000E+00
    -12.680  0.0000E+00  0.0000E+00
    -12.541  0.0000E+00  0.0000E+00
    -12.402  0.0000E+00  0.0000E+00
    -12.262  0.0000E+00  0.0000E+00
    -12.123  0.0000E+00  0.0000E+00
    -11.984  0.0000E+00  0.0000E+00
    -11.844  0.0000E+00  0.0000E+00
    -11.705  0.0000E+00  0.0000E+00
    -11.566  0.0000E+00  0.0000E+00
    -11.427  0.1898E-03  0.6285E-05
    -11.287  0.4087E-03  0.5156E-04
    -11.148  0.5339E-03  0.1186E-03
    -11.009  0.6578E-03  0.2008E-03
    -10.869  0.7538E-03  0.3006E-03
    -10.730  0.8186E-03  0.4099E-03
    -10.591  0.9031E-03  0.5296E-03
    -10.451  0.9735E-03  0.6608E-03
    -10.312  0.1041E-02  0.8008E-03
    -10.173  0.1106E-02  0.9506E-03
    -10.034  0.1167E-02  0.1109E-02
     -9.894  0.1215E-02  0.1275E-02
     -9.755  0.1265E-02  0.1447E-02
     -9.616  0.1321E-02  0.1628E-02
     -9.476  0.1378E-02  0.1816E-02
     -9.337  0.1436E-02  0.2012E-02
     -9.198  0.1478E-02  0.2215E-02
     -9.059  0.1520E-02  0.2424E-02
     -8.919  0.1565E-02  0.2638E-02
     -8.780  0.1611E-02  0.2860E-02
     -8.641  0.1659E-02  0.3087E-02
     -8.501  0.1702E-02  0.3321E-02
     -8.362  0.1744E-02  0.3561E-02
     -8.223  0.1789E-02  0.3808E-02
     -8.083  0.1835E-02  0.4060E-02
     -7.944  0.1877E-02  0.4318E-02
     -7.805  0.1920E-02  0.4583E-02
     -7.666  0.1959E-02  0.4853E-02
     -7.526  0.1998E-02  0.5129E-02
     -7.387  0.2039E-02  0.5410E-02
     -7.248  0.2081E-02  0.5697E-02
     -7.108  0.2125E-02  0.5990E-02
     -6.969  0.2172E-02  0.6289E-02
     -6.830  0.2221E-02  0.6595E-02
     -6.691  0.2268E-02  0.6908E-02
     -6.551  0.2319E-02  0.7227E-02
     -6.412  0.2377E-02  0.7554E-02
     -6.273  0.2448E-02  0.7890E-02
     -6.133  0.2532E-02  0.8236E-02
     -5.994  0.2749E-02  0.8600E-02
     -5.855  0.2792E-02  0.8992E-02
     -5.715  0.2710E-02  0.9374E-02
     -5.576  0.2870E-02  0.9762E-02
     -5.437  0.2666E-02  0.1015E-01
     -5.298  0.2613E-02  0.1051E-01
     -5.158  0.2564E-02  0.1088E-01
     -5.019  0.2487E-02  0.1123E-01
     -4.880  0.2546E-02  0.1157E-01
     -4.740  0.2479E-02  0.1193E-01
     -4.601  0.2435E-02  0.1227E-01
     -4.462  0.2442E-02  0.1261E-01
     -4.323  0.2636E-02  0.1296E-01
     -4.183  0.2728E-02  0.1334E-01
     -4.044  0.2794E-02  0.1372E-01
     -3.905  0.2946E-02  0.1412E-01
     -3.765  0.3247E-02  0.1455E-01
     -3.626  0.3289E-02  0.1501E-01
     -3.487  0.3428E-02  0.1548E-01
     -3.348  0.3453E-02  0.1595E-01
     -3.208  0.3203E-02  0.1642E-01
     -3.069  0.3090E-02  0.1686E-01
     -2.930  0.3199E-02  0.1730E-01
     -2.790  0.2911E-02  0.1773E-01
     -2.651  0.2781E-02  0.1812E-01
     -2.512  0.2933E-02  0.1852E-01
     -2.372  0.2870E-02  0.1893E-01
     -2.233  0.2911E-02  0.1934E-01
     -2.094  0.2874E-02  0.1975E-01
     -1.955  0.2779E-02  0.2014E-01
     -1.815  0.2786E-02  0.2052E-01
     -1.676  0.3153E-02  0.2093E-01
     -1.537  0.3258E-02  0.2138E-01
     -1.397  0.3304E-02  0.2184E-01
     -1.258  0.3296E-02  0.2230E-01
     -1.119  0.3436E-02  0.2276E-01
     -0.980  0.3506E-02  0.2325E-01
     -0.840  0.3765E-02  0.2375E-01
     -0.701  0.3907E-02  0.2429E-01
     -0.562  0.3848E-02  0.2483E-01
     -0.422  0.3589E-02  0.2535E-01
     -0.283  0.3413E-02  0.2584E-01
     -0.144  0.3286E-02  0.2630E-01
     -0.004  0.3255E-02  0.2676E-01
      0.135  0.3276E-02  0.2721E-01
      0.274  0.3448E-02  0.2767E-01
      0.413  0.3642E-02  0.2818E-01
      0.553  0.3973E-02  0.2870E-01
      0.692  0.3863E-02  0.2925E-01
      0.831  0.3887E-02  0.2979E-01
      0.971  0.3952E-02  0.3034E-01
      1.110  0.4038E-02  0.3089E-01
      1.249  0.4061E-02  0.3146E-01
      1.388  0.4038E-02  0.3202E-01
      1.528  0.4029E-02  0.3258E-01
      1.667  0.4024E-02  0.3314E-01
      1.806  0.4267E-02  0.3371E-01
      1.946  0.4349E-02  0.3431E-01
      2.085  0.4465E-02  0.3492E-01
      2.224  0.4686E-02  0.3556E-01
      2.364  0.4793E-02  0.3622E-01
      2.503  0.4932E-02  0.3690E-01
      2.642  0.4932E-02  0.3759E-01
      2.781  0.4798E-02  0.3827E-01
      2.921  0.4861E-02  0.3894E-01
      3.060  0.5064E-02  0.3963E-01
      3.199  0.5466E-02  0.4036E-01
      3.339  0.5854E-02  0.4115E-01
      3.478  0.5877E-02  0.4197E-01
      3.617  0.5269E-02  0.4276E-01
      3.756  0.5142E-02  0.4347E-01
      3.896  0.5229E-02  0.4419E-01
      4.035  0.5558E-02  0.4494E-01
      4.174  0.5825E-02  0.4574E-01
      4.314  0.5878E-02  0.4655E-01
      4.453  0.6106E-02  0.4738E-01
      4.592  0.5929E-02  0.4823E-01
      4.731  0.5609E-02  0.4903E-01
      4.871  0.5518E-02  0.4980E-01
      5.010  0.5729E-02  0.5058E-01
      5.149  0.5900E-02  0.5139E-01
      5.289  0.6165E-02  0.5223E-01
      5.428  0.5693E-02  0.5306E-01
      5.567  0.5477E-02  0.5383E-01
      5.707  0.5456E-02  0.5460E-01
      5.846  0.5289E-02  0.5535E-01
      5.985  0.5072E-02  0.5607E-01
      6.124  0.4726E-02  0.5675E-01
      6.264  0.4630E-02  0.5740E-01
      6.403  0.4896E-02  0.5806E-01
      6.542  0.5033E-02  0.5876E-01
      6.682  0.5172E-02  0.5947E-01
      6.821  0.5715E-02  0.6022E-01
      6.960  0.5549E-02  0.6102E-01
      7.099  0.5040E-02  0.6176E-01
      7.239  0.4675E-02  0.6243E-01
      7.378  0.4268E-02  0.6305E-01
      7.517  0.3967E-02  0.6363E-01
      7.657  0.3763E-02  0.6416E-01
      7.796  0.3391E-02  0.6466E-01
      7.935  0.3289E-02  0.6512E-01
      8.075  0.3314E-02  0.6558E-01
      8.214  0.3428E-02  0.6605E-01
      8.353  0.3136E-02  0.6652E-01
      8.492  0.3005E-02  0.6694E-01
      8.632  0.2861E-02  0.6735E-01
      8.771  0.2847E-02  0.6775E-01
      8.910  0.2732E-02  0.6814E-01
      9.050  0.2623E-02  0.6851E-01
      9.189  0.2277E-02  0.6885E-01
      9.328  0.1640E-02  0.6911E-01
      9.467  0.1696E-02  0.6934E-01
      9.607  0.1764E-02  0.6958E-01
      9.746  0.1849E-02  0.6984E-01
      9.885  0.1970E-02  0.7010E-01
     10.025  0.2063E-02  0.7038E-01
     10.164  0.2119E-02  0.7068E-01
     10.303  0.2143E-02  0.7097E-01
     10.443  0.2141E-02  0.7127E-01
     10.582  0.2162E-02  0.7157E-01
     10.721  0.2209E-02  0.7187E-01
     10.860  0.2262E-02  0.7219E-01
     11.000  0.2328E-02  0.7250E-01
     11.139  0.2406E-02  0.7283E-01
     11.278  0.2511E-02  0.7318E-01
     11.418  0.2679E-02  0.7354E-01
     11.557  0.2999E-02  0.7393E-01
     11.696  0.3493E-02  0.7438E-01
     11.835  0.3204E-02  0.7485E-01
     11.975  0.3212E-02  0.7530E-01
     12.114  0.3195E-02  0.7575E-01
     12.253  0.3371E-02  0.7621E-01
     12.393  0.3185E-02  0.7667E-01
     12.532  0.3045E-02  0.7710E-01
     12.671  0.2997E-02  0.7752E-01
     12.810  0.2712E-02  0.7792E-01
     12.950  0.2284E-02  0.7827E-01
     13.089  0.2101E-02  0.7857E-01
     13.228  0.2064E-02  0.7886E-01
     13.368  0.2158E-02  0.7915E-01
     13.507  0.2350E-02  0.7947E-01
     13.646  0.2535E-02  0.7981E-01
     13.786  0.2635E-02  0.8016E-01
     13.925  0.3283E-02  0.8057E-01
     14.064  0.4064E-02  0.8107E-01
     14.203  0.5601E-02  0.8176E-01
     14.343  0.4493E-02  0.8245E-01
     14.482  0.4456E-02  0.8307E-01
     14.621  0.4334E-02  0.8368E-01
     14.761  0.4740E-02  0.8430E-01
     14.900  0.4697E-02  0.8497E-01
     15.039  0.4585E-02  0.8562E-01
     15.178  0.4867E-02  0.8627E-01
     15.318  0.4845E-02  0.8695E-01
     15.457  0.4414E-02  0.8759E-01
     15.596  0.4177E-02  0.8820E-01
     15.736  0.3756E-02  0.8875E-01
     15.875  0.3982E-02  0.8929E-01
     16.014  0.4384E-02  0.8990E-01
     16.154  0.4190E-02  0.9050E-01
     16.293  0.3617E-02  0.9104E-01
     16.432  0.3513E-02  0.9154E-01
     16.571  0.3425E-02  0.9202E-01
     16.711  0.3349E-02  0.9249E-01
     16.850  0.3255E-02  0.9295E-01
     16.989  0.3198E-02  0.9340E-01
     17.129  0.3152E-02  0.9384E-01
     17.268  0.3112E-02  0.9428E-01
     17.407  0.3050E-02  0.9471E-01
     17.546  0.2998E-02  0.9513E-01
     17.686  0.2937E-02  0.9554E-01
     17.825  0.2880E-02  0.9595E-01
     17.964  0.2821E-02  0.9635E-01
     18.104  0.2749E-02  0.9673E-01
     18.243  0.2676E-02  0.9711E-01
     18.382  0.2736E-02  0.9749E-01
     18.522  0.2544E-02  0.9786E-01
     18.661  0.2404E-02  0.9820E-01
     18.800  0.2130E-02  0.9852E-01
     18.939  0.1622E-02  0.9878E-01
     19.079  0.1866E-02  0.9901E-01
     19.218  0.3107E-02  0.9931E-01
     19.357  0.1445E-02  0.9952E-01
     19.497  0.2145E-02  0.9977E-01
     19.636  0.2768E-02  0.1001E+00
     19.775  0.2917E-02  0.1005E+00
     19.914  0.3193E-02  0.1009E+00
     20.054  0.3608E-02  0.1014E+00
     20.193  0.4124E-02  0.1019E+00
     20.332  0.4767E-02  0.1026E+00
     20.472  0.5237E-02  0.1033E+00
     20.611  0.5293E-02  0.1040E+00
     20.750  0.5228E-02  0.1048E+00
     20.889  0.4895E-02  0.1055E+00
     21.029  0.4692E-02  0.1061E+00
     21.168  0.4584E-02  0.1068E+00
     21.307  0.4731E-02  0.1074E+00
     21.447  0.4815E-02  0.1081E+00
     21.586  0.4844E-02  0.1088E+00
     21.725  0.4664E-02  0.1094E+00
     21.865  0.4518E-02  0.1101E+00
     22.004  0.4490E-02  0.1107E+00
     22.143  0.3632E-02  0.1113E+00
     22.282  0.3412E-02  0.1117E+00
     22.422  0.3498E-02  0.1122E+00
     22.561  0.3794E-02  0.1127E+00
     22.700  0.4086E-02  0.1133E+00
     22.840  0.4135E-02  0.1139E+00
     22.979  0.4017E-02  0.1144E+00
     23.118  0.3586E-02  0.1150E+00
     23.257  0.3542E-02  0.1155E+00
     23.397  0.4277E-02  0.1160E+00
     23.536  0.4814E-02  0.1166E+00
     23.675  0.2963E-02  0.1172E+00
     23.815  0.2633E-02  0.1176E+00
     23.954  0.2344E-02  0.1179E+00
     24.093  0.1988E-02  0.1182E+00
     24.233  0.1693E-02  0.1185E+00
     24.372  0.1486E-02  0.1187E+00
     24.511  0.1488E-02  0.1189E+00
     24.650  0.1399E-02  0.1191E+00
     24.790  0.1453E-02  0.1193E+00
     24.929  0.1206E-02  0.1195E+00
     25.068  0.8779E-03  0.1197E+00
     25.208  0.6973E-03  0.1198E+00
     25.347  0.4542E-03  0.1199E+00
     25.486  0.3053E-03  0.1199E+00
     25.625  0.2279E-03  0.1199E+00
     25.765  0.1616E-03  0.1200E+00
     25.904  0.1033E-03  0.1200E+00
     26.043  0.5287E-04  0.1200E+00
     26.183  0.1063E-04  0.1200E+00
     26.322  0.0000E+00  0.1200E+00
     26.461  0.0000E+00  0.1200E+00
     26.601  0.0000E+00  0.1200E+00
     26.740  0.0000E+00  0.1200E+00
     26.879  0.0000E+00  0.1200E+00
     27.018  0.0000E+00  0.1200E+00
     27.158  0.0000E+00  0.1200E+00
     27.297  0.0000E+00  0.1200E+00
     27.436  0.0000E+00  0.1200E+00
     27.576  0.0000E+00  0.1200E+00
     27.715  0.0000E+00  0.1200E+00
     27.854  0.0000E+00  0.1200E+00
     27.993  0.0000E+00  0.1200E+00
     28.133  0.0000E+00  0.1200E+00
     28.272  0.0000E+00  0.1200E+00
