    4    4  200    1
  0.4874656E+01  0.2467155E-09  0.2467155E-09  0.3699158E-09  0.5000000E-15
  1.000000000000000E-004
  CAR 
 graphite                                
     16    455     12
 
  0.0000000E+00  0.0000000E+00  0.0000000E+00  0.3858025E-03
    1      -11.515909
    2       -3.845320
    3       -1.407355
    4        7.600097
    5        7.605257
    6        9.252761
    7        9.256763
    8       15.369310
    9       19.004222
   10       19.006317
   11       19.612125
   12       20.579752
 
  0.5555556E-01  0.3469447E-17  0.0000000E+00  0.1543210E-02
    1      -11.437215
    2       -3.782460
    3       -1.317658
    4        7.149904
    5        7.340901
    6        9.116732
    7        9.244871
    8       15.380729
    9       18.835611
   10       19.231596
   11       19.325547
   12       20.563856
 
  0.1111111E+00  0.6938894E-17  0.0000000E+00  0.1543210E-02
    1      -11.201387
    2       -3.594239
    3       -1.049184
    4        6.007375
    5        6.731528
    6        8.640621
    7        9.113222
    8       15.397546
    9       18.278739
   10       18.525728
   11       19.945540
   12       21.012819
 
  0.1666667E+00  0.2775558E-16  0.0000000E+00  0.1543210E-02
    1      -10.809376
    2       -3.282122
    3       -0.604470
    4        4.496284
    5        6.004824
    6        7.842875
    7        8.800545
    8       15.327845
    9       17.405969
   10       17.553651
   11       21.143760
   12       21.747785
 
  0.2222222E+00  0.0000000E+00  0.0000000E+00  0.1543210E-02
    1      -10.262733
    2       -2.849111
    3        0.010817
    4        2.824809
    5        5.290015
    6        6.826454
    7        8.377641
    8       14.765344
    9       16.496430
   10       16.844986
   11       22.430814
   12       22.731578
 
  0.2777778E+00  0.5551115E-16  0.0000000E+00  0.1543210E-02
    1       -9.564114
    2       -2.303443
    3        0.787030
    4        1.119036
    5        4.654215
    6        5.689120
    7        7.935541
    8       13.377953
    9       16.228466
   10       16.254385
   11       22.897404
   12       22.946845
 
  0.3333333E+00  0.5551115E-16  0.0000000E+00  0.1543210E-02
    1       -8.718408
    2       -1.701181
    3       -0.494747
    4        1.702936
    5        4.134023
    6        4.504279
    7        7.541073
    8       11.713756
    9       15.735289
   10       16.246141
   11       22.483387
   12       23.169730
 
  0.3888889E+00  0.2775558E-16  0.0000000E+00  0.1543210E-02
    1       -7.734807
    2       -2.297210
    3       -0.718061
    4        2.710175
    5        3.323097
    6        3.751184
    7        7.236086
    8       10.091877
    9       15.378514
   10       16.270131
   11       22.194461
   12       23.317657
 
  0.4444444E+00  0.0000000E+00  0.0000000E+00  0.1543210E-02
    1       -6.646280
    2       -3.721090
    3        0.129077
    4        2.183392
    5        3.517534
    6        3.666782
    7        7.045086
    8        8.742793
    9       15.163266
   10       16.287244
   11       22.044126
   12       23.389701
 
  0.5000000E+00  0.5551115E-16  0.0000000E+00  0.7716049E-03
    1       -5.826383
    2       -4.663119
    3        1.095001
    4        1.126834
    5        3.439007
    6        4.137382
    7        6.980102
    8        8.137704
    9       15.091385
   10       16.292670
   11       21.998596
   12       23.410931
 
  0.5555556E-01  0.5555556E-01  0.0000000E+00  0.7716049E-03
    1      -11.279923
    2       -3.656908
    3       -1.138537
    4        6.436780
    5        6.815512
    6        8.881721
    7        9.105492
    8       15.396529
    9       18.743775
   10       18.781861
   11       19.246436
   12       21.058854
 
  0.1111111E+00  0.5555556E-01  0.0000000E+00  0.1543210E-02
    1      -10.966008
    2       -3.406669
    3       -0.781907
    4        5.206826
    5        6.040321
    6        8.316126
    7        8.815067
    8       15.391718
    9       17.802850
   10       18.265570
   11       19.739152
   12       22.013215
 
  0.1666667E+00  0.5555556E-01  0.0000000E+00  0.1543210E-02
    1      -10.496630
    2       -3.033960
    3       -0.251448
    4        3.656837
    5        5.269902
    6        7.433651
    7        8.420171
    8       15.185285
    9       16.673212
   10       17.572729
   11       20.847951
   12       22.812700
 
  0.2222222E+00  0.5555556E-01  0.0000000E+00  0.1543210E-02
    1       -9.873920
    2       -2.543568
    3        0.444883
    4        1.985813
    5        4.567606
    6        6.369276
    7        7.974024
    8       14.183977
    9       16.101905
   10       16.921970
   11       22.215028
   12       23.095465
 
  0.2777778E+00  0.5555556E-01  0.0000000E+00  0.1543210E-02
    1       -9.101466
    2       -1.953079
    3        0.318160
    4        1.292949
    5        3.962099
    6        5.227362
    7        7.548541
    8       12.596115
    9       16.000132
   10       16.375171
   11       22.575526
   12       23.200695
 
  0.3333333E+00  0.5555556E-01  0.0000000E+00  0.1543210E-02
    1       -8.185953
    2       -1.637524
    3       -0.910087
    4        2.261831
    5        3.431144
    6        4.119977
    7        7.195443
    8       10.933688
    9       15.955602
   10       15.976995
   11       22.255500
   12       23.511825
 
  0.3888889E+00  0.5555556E-01  0.0000000E+00  0.1543210E-02
    1       -7.143325
    2       -2.972029
    3       -0.280688
    4        2.677230
    5        3.269998
    6        3.404900
    7        6.945964
    8        9.419398
    9       15.672826
   10       15.962146
   11       22.089379
   12       23.631988
 
  0.4444444E+00  0.5555556E-01  0.0000000E+00  0.1543210E-02
    1       -6.064915
    2       -4.287072
    3        0.635642
    4        1.646921
    5        3.178812
    6        4.061245
    7        6.817360
    8        8.364400
    9       15.530811
   10       15.951970
   11       22.023804
   12       23.678573
 
  0.5000000E+00  0.5555556E-01  0.0000000E+00  0.1543210E-02
    1       -6.065080
    2       -4.286889
    3        0.635468
    4        1.646995
    5        3.178896
    6        4.061202
    7        6.817323
    8        8.364437
    9       15.530889
   10       15.951930
   11       22.023771
   12       23.678679
 
 -0.4444444E+00  0.5555556E-01  0.0000000E+00  0.1543210E-02
    1       -7.143516
    2       -2.971791
    3       -0.280874
    4        2.676812
    5        3.269910
    6        3.405462
    7        6.945855
    8        9.419468
    9       15.673058
   10       15.962026
   11       22.089282
   12       23.632363
 
 -0.3888889E+00  0.5555556E-01  0.0000000E+00  0.1543210E-02
    1       -8.186125
    2       -1.637401
    3       -0.910142
    4        2.261734
    5        3.429999
    6        4.121241
    7        7.195274
    8       10.933752
    9       15.955979
   10       15.976796
   11       22.255349
   12       23.512745
 
 -0.3333333E+00  0.5555556E-01  0.0000000E+00  0.1543210E-02
    1       -9.101596
    2       -1.953203
    3        0.318355
    4        1.292861
    5        3.961044
    6        5.228534
    7        7.548529
    8       12.596175
    9       15.999836
   10       16.375676
   11       22.575348
   12       23.203597
 
 -0.2777778E+00  0.5555556E-01  0.0000000E+00  0.1543210E-02
    1       -9.874042
    2       -2.543686
    3        0.444803
    4        1.985932
    5        4.566595
    6        6.370451
    7        7.973829
    8       14.184114
    9       16.101414
   10       16.922574
   11       22.220940
   12       23.095434
 
 -0.2222222E+00  0.5555556E-01  0.0000000E+00  0.1543210E-02
    1      -10.496726
    2       -3.034053
    3       -0.251513
    4        3.656725
    5        5.269055
    6        7.434802
    7        8.420097
    8       15.185556
    9       16.672470
   10       17.573393
   11       20.853043
   12       22.811448
 
 -0.1666667E+00  0.5555556E-01  0.0000000E+00  0.1543210E-02
    1      -10.966077
    2       -3.406736
    3       -0.781954
    4        5.206000
    5        6.040218
    6        8.316838
    7        8.815483
    8       15.391860
    9       17.802179
   10       18.266303
   11       19.743007
   12       22.011302
 
 -0.1111111E+00  0.5555556E-01  0.0000000E+00  0.1543210E-02
    1      -11.279964
    2       -3.656948
    3       -1.138566
    4        6.433861
    5        6.817843
    6        8.880263
    7        9.107777
    8       15.396591
    9       18.745808
   10       18.781355
   11       19.247511
   12       21.057099
 
 -0.5555556E-01  0.5555556E-01  0.0000000E+00  0.7716049E-03
    1      -11.437228
    2       -3.782473
    3       -1.317668
    4        7.146171
    5        7.344588
    6        9.113783
    7        9.247983
    8       15.380747
    9       18.838065
   10       19.229878
   11       19.325352
   12       20.563780
 
  0.1111111E+00  0.1111111E+00  0.0000000E+00  0.7716049E-03
    1      -10.574713
    2       -3.095816
    3       -0.339271
    4        4.173596
    5        4.980495
    6        7.847265
    7        8.254837
    8       15.341752
    9       16.721064
   10       18.700538
   11       19.317027
   12       23.115355
 
  0.1666667E+00  0.1111111E+00  0.0000000E+00  0.1543210E-02
    1      -10.029252
    2       -2.665085
    3        0.272584
    4        2.787065
    5        4.063187
    6        7.013408
    7        7.722393
    8       14.935852
    9       15.668778
   10       18.295977
   11       20.245264
   12       23.081226
 
  0.2222222E+00  0.1111111E+00  0.0000000E+00  0.1543210E-02
    1       -9.332513
    2       -2.123193
    3        1.043430
    4        1.203011
    5        3.354269
    6        5.950804
    7        7.257475
    8       13.522608
    9       15.399507
   10       17.737098
   11       21.736675
   12       22.529754
 
  0.2777778E+00  0.1111111E+00  0.0000000E+00  0.1543210E-02
    1       -8.489461
    2       -1.525673
    3       -0.353441
    4        1.951886
    5        2.796080
    6        4.817043
    7        6.859183
    8       11.882481
    9       15.268159
   10       17.273159
   11       22.222475
   12       23.384064
 
  0.3333333E+00  0.1111111E+00  0.0000000E+00  0.1543210E-02
    1       -7.510301
    2       -2.112253
    3       -0.566520
    4        2.358454
    5        2.948224
    6        3.710574
    7        6.555015
    8       10.296188
    9       15.155011
   10       16.932783
   11       22.096900
   12       24.319875
 
  0.3888889E+00  0.1111111E+00  0.0000000E+00  0.1543210E-02
    1       -6.428847
    2       -3.516717
    3        0.248703
    4        1.920227
    5        2.811778
    6        3.889429
    7        6.365007
    8        8.978596
    9       15.074818
   10       16.725959
   11       22.067916
   12       24.435486
 
  0.4444444E+00  0.1111111E+00  0.0000000E+00  0.1543210E-02
    1       -5.620370
    2       -4.442778
    3        1.030807
    4        1.281980
    5        2.500124
    6        4.348670
    7        6.300653
    8        8.390364
    9       15.045746
   10       16.656728
   11       22.066967
   12       24.458243
 
  0.5000000E+00  0.1111111E+00  0.0000000E+00  0.1543210E-02
    1       -6.429229
    2       -3.516300
    3        0.248340
    4        1.919633
    5        2.812638
    6        3.889239
    7        6.364873
    8        8.978676
    9       15.074711
   10       16.726226
   11       22.067817
   12       24.435939
 
 -0.4444444E+00  0.1111111E+00  0.0000000E+00  0.1543210E-02
    1       -7.510665
    2       -2.111802
    3       -0.566862
    4        2.357536
    5        2.948043
    6        3.711820
    7        6.554775
    8       10.296264
    9       15.154802
   10       16.933328
   11       22.096724
   12       24.321778
 
 -0.3888889E+00  0.1111111E+00  0.0000000E+00  0.1543210E-02
    1       -8.489781
    2       -1.525886
    3       -0.353145
    4        1.951703
    5        2.795072
    6        4.818391
    7        6.858872
    8       11.882492
    9       15.267844
   10       17.273963
   11       22.222263
   12       23.390881
 
 -0.3333333E+00  0.1111111E+00  0.0000000E+00  0.1543210E-02
    1       -9.332783
    2       -2.123446
    3        1.043264
    4        1.203194
    5        3.353283
    6        5.952216
    7        7.257200
    8       13.522590
    9       15.399005
   10       17.738148
   11       21.742866
   12       22.529574
 
 -0.2777778E+00  0.1111111E+00  0.0000000E+00  0.1543210E-02
    1      -10.029469
    2       -2.665297
    3        0.272443
    4        2.786630
    5        4.062651
    6        7.014607
    7        7.722509
    8       14.936328
    9       15.667540
   10       18.297324
   11       20.250508
   12       23.080963
 
 -0.2222222E+00  0.1111111E+00  0.0000000E+00  0.1543210E-02
    1      -10.574877
    2       -3.095977
    3       -0.339381
    4        4.171510
    5        4.981542
    6        7.846980
    7        8.256595
    8       15.342063
    9       16.719801
   10       18.703918
   11       19.319397
   12       23.117771
 
 -0.1666667E+00  0.1111111E+00  0.0000000E+00  0.1543210E-02
    1      -10.966118
    2       -3.406777
    3       -0.781982
    4        5.203500
    5        6.042907
    6        8.314322
    7        8.818136
    8       15.391844
    9       17.801782
   10       18.269504
   11       19.739764
   12       22.012860
 
 -0.1111111E+00  0.1111111E+00  0.0000000E+00  0.7716049E-03
    1      -11.201442
    2       -3.594292
    3       -1.049222
    4        6.003887
    5        6.734986
    6        8.637797
    7        9.116480
    8       15.397596
    9       18.282050
   10       18.525070
   11       19.943566
   12       21.013130
 
  0.1666667E+00  0.1666667E+00  0.0000000E+00  0.7716049E-03
    1       -9.409706
    2       -2.181487
    3        0.959658
    4        1.788996
    5        2.840927
    6        6.435035
    7        6.909883
    8       14.217885
    9       14.803033
   10       19.352621
   11       19.864009
   12       22.492062
 
  0.2222222E+00  0.1666667E+00  0.0000000E+00  0.1543210E-02
    1       -8.642057
    2       -1.601607
    3        0.469488
    4        1.794113
    5        2.001666
    6        5.502082
    7        6.341213
    8       12.788062
    9       14.441433
   10       19.082299
   11       21.236497
   12       22.173864
 
  0.2777778E+00  0.1666667E+00  0.0000000E+00  0.1543210E-02
    1       -7.733717
    2       -1.286485
    3       -0.652151
    4        1.487216
    5        2.742660
    6        4.404634
    7        5.963522
    8       11.258118
    9       14.155614
   10       18.702624
   11       22.077331
   12       23.030961
 
  0.3333333E+00  0.1666667E+00  0.0000000E+00  0.1543210E-02
    1       -6.702525
    2       -2.588835
    3       -0.083515
    4        1.215063
    5        3.310062
    6        3.720873
    7        5.709846
    8        9.841776
    9       13.946782
   10       18.438185
   11       22.096205
   12       24.917505
 
  0.3888889E+00  0.1666667E+00  0.0000000E+00  0.1543210E-02
    1       -5.645644
    2       -3.863179
    3        0.436507
    4        1.333371
    5        2.339237
    6        4.475075
    7        5.581025
    8        8.854871
    9       13.836658
   10       18.303906
   11       22.133882
   12       25.598574
 
  0.4444444E+00  0.1666667E+00  0.0000000E+00  0.1543210E-02
    1       -5.646118
    2       -3.862668
    3        0.436387
    4        1.332521
    5        2.340218
    6        4.474969
    7        5.580948
    8        8.854904
    9       13.836644
   10       18.304082
   11       22.133829
   12       25.598686
 
  0.5000000E+00  0.1666667E+00  0.0000000E+00  0.1543210E-02
    1       -6.703087
    2       -2.588187
    3       -0.083973
    4        1.214301
    5        3.311333
    6        3.720648
    7        5.709629
    8        9.841758
    9       13.946757
   10       18.438716
   11       22.096061
   12       24.924241
 
 -0.4444444E+00  0.1666667E+00  0.0000000E+00  0.1543210E-02
    1       -7.734227
    2       -1.286146
    3       -0.652478
    4        1.486519
    5        2.742403
    6        4.406011
    7        5.963238
    8       11.257876
    9       14.155641
   10       18.703522
   11       22.077144
   12       23.037452
 
 -0.3888889E+00  0.1666667E+00  0.0000000E+00  0.1543210E-02
    1       -8.642497
    2       -1.601990
    3        0.469435
    4        1.793864
    5        2.001281
    6        5.503349
    7        6.341139
    8       12.787374
    9       14.441653
   10       19.083650
   11       21.242442
   12       22.173715
 
 -0.3333333E+00  0.1666667E+00  0.0000000E+00  0.1543210E-02
    1       -9.410070
    2       -2.181836
    3        0.959437
    4        1.787584
    5        2.841723
    6        6.435009
    7        6.911279
    8       14.216235
    9       14.803891
   10       19.356995
   11       19.866637
   12       22.492060
 
 -0.2777778E+00  0.1666667E+00  0.0000000E+00  0.1543210E-02
    1      -10.029536
    2       -2.665364
    3        0.272403
    4        2.784529
    5        4.064972
    6        7.012333
    7        7.725028
    8       14.935030
    9       15.668481
   10       18.301073
   11       20.246682
   12       23.081260
 
 -0.2222222E+00  0.1666667E+00  0.0000000E+00  0.1543210E-02
    1      -10.496834
    2       -3.034160
    3       -0.251582
    4        3.653881
    5        5.272305
    6        7.432022
    7        8.423239
    8       15.185039
    9       16.672192
   10       17.577056
   11       20.849360
   12       22.814256
 
 -0.1666667E+00  0.1666667E+00  0.0000000E+00  0.7716049E-03
    1      -10.809498
    2       -3.282243
    3       -0.604553
    4        4.493113
    5        6.008122
    6        7.840256
    7        8.803823
    8       15.327770
    9       17.405000
   10       17.557362
   11       21.141558
   12       21.749414
 
  0.2222222E+00  0.2222222E+00  0.0000000E+00  0.7716049E-03
    1       -7.808559
    2       -1.030163
    3       -0.378633
    4        0.890281
    5        2.672250
    6        4.965697
    7        5.436949
    8       11.867151
    9       13.521126
   10       20.660441
   11       20.915858
   12       22.066044
 
  0.2777778E+00  0.2222222E+00  0.0000000E+00  0.1543210E-02
    1       -6.844308
    2       -1.622163
    3       -0.559058
    4        0.547863
    5        3.622508
    6        4.042709
    7        4.969946
    8       10.715020
    9       12.915871
   10       20.467155
   11       22.106844
   12       22.670898
 
  0.3333333E+00  0.2222222E+00  0.0000000E+00  0.1543210E-02
    1       -5.789325
    2       -2.929158
    3       -0.534462
    4        1.060406
    5        3.002956
    6        4.495794
    7        4.757594
    8        9.629854
    9       12.599827
   10       20.272147
   11       22.184095
   12       24.609953
 
  0.3888889E+00  0.2222222E+00  0.0000000E+00  0.1543210E-02
    1       -5.025428
    2       -3.788750
    3       -0.575012
    4        1.742596
    5        2.196836
    6        4.689632
    7        4.905476
    8        9.136265
    9       12.501123
   10       20.206094
   11       22.219263
   12       26.167379
 
  0.4444444E+00  0.2222222E+00  0.0000000E+00  0.1543210E-02
    1       -5.790048
    2       -2.928439
    3       -0.534611
    4        1.059380
    5        3.004279
    6        4.495605
    7        4.757469
    8        9.629559
    9       12.600139
   10       20.272535
   11       22.184001
   12       24.615837
 
  0.5000000E+00  0.2222222E+00  0.0000000E+00  0.1543210E-02
    1       -6.845015
    2       -1.621671
    3       -0.559463
    4        0.547290
    5        3.622229
    6        4.044032
    7        4.969870
    8       10.714120
    9       12.916689
   10       20.467978
   11       22.106689
   12       22.677049
 
 -0.4444444E+00  0.2222222E+00  0.0000000E+00  0.1543210E-02
    1       -7.809188
    2       -1.030568
    3       -0.379490
    4        0.890964
    5        2.671948
    6        4.965830
    7        5.438152
    8       11.865339
    9       13.522647
   10       20.665074
   11       20.918390
   12       22.065900
 
 -0.3888889E+00  0.2222222E+00  0.0000000E+00  0.1543210E-02
    1       -8.642590
    2       -1.602095
    3        0.467649
    4        1.793825
    5        2.003289
    6        5.501271
    7        6.343524
    8       12.785849
    9       14.443034
   10       19.088053
   11       21.237921
   12       22.173848
 
 -0.3333333E+00  0.2222222E+00  0.0000000E+00  0.1543210E-02
    1       -9.332944
    2       -2.123609
    3        1.043179
    4        1.200756
    5        3.356143
    6        5.949812
    7        7.260165
    8       13.520624
    9       15.400487
   10       17.742265
   11       21.738702
   12       22.529991
 
 -0.2777778E+00  0.2222222E+00  0.0000000E+00  0.1543210E-02
    1       -9.874245
    2       -2.543887
    3        0.444684
    4        1.983244
    5        4.569902
    6        6.367883
    7        7.977042
    8       14.182395
    9       16.102188
   10       16.926506
   11       22.218062
   12       23.096524
 
 -0.2222222E+00  0.2222222E+00  0.0000000E+00  0.7716049E-03
    1      -10.262950
    2       -2.849325
    3        0.010680
    4        2.821975
    5        5.293227
    6        6.824069
    7        8.380882
    8       14.764265
    9       16.496243
   10       16.848974
   11       22.433873
   12       22.729117
 
  0.2777778E+00  0.2777778E+00  0.0000000E+00  0.7716049E-03
    1       -5.847326
    2       -2.157815
    3       -1.341618
    4        0.969093
    5        3.654867
    6        4.071649
    7        4.492251
    8       10.202527
    9       11.873268
   10       22.201870
   11       22.361183
   12       22.473010
 
  0.3333333E+00  0.2777778E+00  0.0000000E+00  0.1543210E-02
    1       -4.864646
    2       -3.064129
    3       -1.727059
    4        1.779930
    5        2.823592
    6        3.784016
    7        5.113666
    8        9.758945
    9       11.330428
   10       22.273063
   11       22.278296
   12       24.413688
 
  0.3888889E+00  0.2777778E+00  0.0000000E+00  0.1543210E-02
    1       -4.865299
    2       -3.063706
    3       -1.726883
    4        1.778758
    5        2.824846
    6        3.784046
    7        5.113600
    8        9.758149
    9       11.331217
   10       22.273021
   11       22.278450
   12       24.419305
 
  0.4444444E+00  0.2777778E+00  0.0000000E+00  0.1543210E-02
    1       -5.848195
    2       -2.158323
    3       -1.340473
    4        0.968052
    5        3.655195
    6        4.072774
    7        4.492056
    8       10.200455
    9       11.875304
   10       22.201756
   11       22.363355
   12       22.477413
 
  0.5000000E+00  0.2777778E+00  0.0000000E+00  0.1543210E-02
    1       -6.845125
    2       -1.623361
    3       -0.558524
    4        0.548112
    5        3.622228
    6        4.042159
    7        4.972051
    8       10.712622
    9       12.918124
   10       20.473036
   11       22.106703
   12       22.671896
 
 -0.4444444E+00  0.2777778E+00  0.0000000E+00  0.1543210E-02
    1       -7.734433
    2       -1.287518
    3       -0.653350
    4        1.488937
    5        2.742351
    6        4.403956
    7        5.965931
    8       11.255801
    9       14.157555
   10       18.708214
   11       22.077257
   12       23.032570
 
 -0.3888889E+00  0.2777778E+00  0.0000000E+00  0.1543210E-02
    1       -8.490058
    2       -1.526260
    3       -0.355354
    4        1.951591
    5        2.797926
    6        4.816317
    7        6.861889
    8       11.880271
    9       15.269640
   10       17.278319
   11       22.222603
   12       23.387491
 
 -0.3333333E+00  0.2777778E+00  0.0000000E+00  0.1543210E-02
    1       -9.101917
    2       -1.953531
    3        0.315943
    4        1.292699
    5        3.964225
    6        5.226355
    7        7.551728
    8       12.594013
    9       16.001148
   10       16.379829
   11       22.575959
   12       23.205735
 
 -0.2777778E+00  0.2777778E+00  0.0000000E+00  0.7716049E-03
    1       -9.564450
    2       -2.303775
    3        0.786839
    4        1.116537
    5        4.657387
    6        5.686986
    7        7.938740
    8       13.376000
    9       16.232666
   10       16.255132
   11       22.901199
   12       22.947535
 
  0.3333333E+00  0.3333333E+00  0.0000000E+00  0.7716049E-03
    1       -4.363079
    2       -2.725183
    3       -2.723289
    4        2.353666
    5        2.950368
    6        2.951790
    7        5.357534
    8       10.330205
    9       10.333400
   10       22.308631
   11       23.927482
   12       24.603145
 
  0.3888889E+00  0.3333333E+00  0.0000000E+00  0.1543210E-02
    1       -4.865409
    2       -3.065280
    3       -1.725230
    4        1.778652
    5        2.823247
    6        3.785951
    7        5.113662
    8        9.756204
    9       11.333049
   10       22.272995
   11       22.283878
   12       24.414246
 
  0.4444444E+00  0.3333333E+00  0.0000000E+00  0.1543210E-02
    1       -5.790263
    2       -2.930257
    3       -0.532869
    4        1.059494
    5        3.002561
    6        4.495684
    7        4.759805
    8        9.627282
    9       12.602237
   10       20.277796
   11       22.183977
   12       24.610645
 
  0.5000000E+00  0.3333333E+00  0.0000000E+00  0.1543210E-02
    1       -6.703412
    2       -2.590094
    3       -0.084122
    4        1.216447
    5        3.309661
    6        3.720657
    7        5.712324
    8        9.839359
    9       13.948944
   10       18.443622
   11       22.096087
   12       24.919199
 
 -0.4444444E+00  0.3333333E+00  0.0000000E+00  0.1543210E-02
    1       -7.511072
    2       -2.113694
    3       -0.567463
    4        2.360021
    5        2.947957
    6        3.710383
    7        6.557762
    8       10.293860
    9       15.156860
   10       16.937887
   11       22.096887
   12       24.325263
 
 -0.3888889E+00  0.3333333E+00  0.0000000E+00  0.1543210E-02
    1       -8.186583
    2       -1.638750
    3       -0.911398
    4        2.261566
    5        3.432415
    6        4.120085
    7        7.198439
    8       10.931405
    9       15.960315
   10       15.978496
   11       22.255720
   12       23.516491
 
 -0.3333333E+00  0.3333333E+00  0.0000000E+00  0.7716049E-03
    1       -8.718886
    2       -1.701714
    3       -0.496874
    4        1.702711
    5        4.137183
    6        4.502404
    7        7.544243
    8       11.711514
    9       15.739645
   10       16.247421
   11       22.483880
   12       23.173784
 
  0.3888889E+00  0.3888889E+00  0.0000000E+00  0.7716049E-03
    1       -5.025897
    2       -3.790323
    3       -0.573166
    4        1.741768
    5        2.196077
    6        4.691921
    7        4.905600
    8        9.133626
    9       12.503474
   10       20.211546
   11       22.219187
   12       26.165137
 
  0.4444444E+00  0.3888889E+00  0.0000000E+00  0.1543210E-02
    1       -5.646521
    2       -3.864465
    3        0.437273
    4        1.332923
    5        2.339360
    6        4.475125
    7        5.583582
    8        8.852226
    9       13.838940
   10       18.309180
   11       22.133766
   12       25.602708
 
  0.5000000E+00  0.3888889E+00  0.0000000E+00  0.1543210E-02
    1       -6.429749
    2       -3.518100
    3        0.247713
    4        1.920552
    5        2.812974
    6        3.889295
    7        6.367807
    8        8.976051
    9       15.076917
   10       16.730962
   11       22.067810
   12       24.440087
 
 -0.4444444E+00  0.3888889E+00  0.0000000E+00  0.1543210E-02
    1       -7.144112
    2       -2.973575
    3       -0.281616
    4        2.676223
    5        3.269829
    6        3.407557
    7        6.948981
    8        9.416952
    9       15.677543
   10       15.964006
   11       22.089387
   12       23.636406
 
 -0.3888889E+00  0.3888889E+00  0.0000000E+00  0.7716049E-03
    1       -7.735438
    2       -2.298921
    3       -0.718899
    4        2.709982
    5        3.321484
    6        3.754340
    7        7.239238
    8       10.089481
    9       15.382976
   10       16.271818
   11       22.194672
   12       23.321793
 
  0.4444444E+00  0.4444444E+00  0.0000000E+00  0.7716049E-03
    1       -5.620979
    2       -4.444444
    3        1.030286
    4        1.281009
    5        2.502266
    6        4.348847
    7        6.303523
    8        8.387583
    9       15.047966
   10       16.661616
   11       22.066861
   12       24.462571
 
  0.5000000E+00  0.4444444E+00  0.0000000E+00  0.1543210E-02
    1       -6.065732
    2       -4.288584
    3        0.634560
    4        1.645821
    5        3.181804
    6        4.061339
    7        6.820409
    8        8.361672
    9       15.535487
   10       15.954041
   11       22.023696
   12       23.682852
 
 -0.4444444E+00  0.4444444E+00  0.0000000E+00  0.7716049E-03
    1       -6.647035
    2       -3.722703
    3        0.128149
    4        2.182030
    5        3.520692
    6        3.666763
    7        7.048230
    8        8.740178
    9       15.167789
   10       16.289205
   11       22.044103
   12       23.393863
 
  0.5000000E+00  0.5000000E+00  0.0000000E+00  0.3858025E-03
    1       -5.827040
    2       -4.664816
    3        1.093762
    4        1.125814
    5        3.442166
    6        4.137566
    7        6.983243
    8        8.134876
    9       15.095928
   10       16.294729
   11       21.998483
   12       23.415099
 