mesh: [     9,     9,     4 ]
nqpoint: 50     
reciprocal_lattice:
- [   0.40533564,   0.23404500,   0.00000000 ] # a*
- [   0.00002110,   0.46805346,   0.00000000 ] # b*
- [   0.00000000,   0.00000000,   0.27033177 ] # c*
natom:   4      
lattice:
- [     2.467155442383188,    -0.000111200019553,     0.000000000000000 ] # a
- [    -1.233674023183305,     2.136563688137034,     0.000000000000000 ] # b
- [     0.000000000000000,     0.000000000000000,     3.699158271000000 ] # c
points:
- symbol: C  # 1
  coordinates: [  0.999999697166835,  0.000000349172772,  0.250000000000000 ]
  mass: 12.010700
- symbol: C  # 2
  coordinates: [  0.000000349172772,  0.999999697166835,  0.750000000000000 ]
  mass: 12.010700
- symbol: C  # 3
  coordinates: [  0.333298929956719,  0.666701052703672,  0.250000000000000 ]
  mass: 12.010700
- symbol: C  # 4
  coordinates: [  0.666701052703672,  0.333298929956719,  0.750000000000000 ]
  mass: 12.010700
phonon:
- q-position: [    0.0000000,    0.0000000,    0.1250000 ]
  weight: 2    
  band:
  - # 1
    frequency:   -44.3646393118
  - # 2
    frequency:   -12.0193371728
  - # 3
    frequency:    -8.6913554044
  - # 4
    frequency:    -3.9347226187
  - # 5
    frequency:    -3.5311003194
  - # 6
    frequency:     5.1556110636
  - # 7
    frequency:    24.0500921872
  - # 8
    frequency:    31.2100108360
  - # 9
    frequency:    43.6510056309
  - # 10
    frequency:    45.1626381199
  - # 11
    frequency:    46.2957516121
  - # 12
    frequency:    46.3887711092

- q-position: [    0.1111111,    0.0000000,    0.1250000 ]
  weight: 8    
  band:
  - # 1
    frequency:   -42.3550550023
  - # 2
    frequency:    -8.4418104206
  - # 3
    frequency:    -1.9037367424
  - # 4
    frequency:     3.4980845548
  - # 5
    frequency:     4.6453599798
  - # 6
    frequency:    11.0535322978
  - # 7
    frequency:    23.7221512222
  - # 8
    frequency:    30.6286881167
  - # 9
    frequency:    43.4962912543
  - # 10
    frequency:    44.6818762996
  - # 11
    frequency:    45.6955419091
  - # 12
    frequency:    45.8804928527

- q-position: [    0.2222222,    0.0000000,    0.1250000 ]
  weight: 8    
  band:
  - # 1
    frequency:   -36.6789571852
  - # 2
    frequency:     5.0991785327
  - # 3
    frequency:     8.3506601649
  - # 4
    frequency:     9.1933814086
  - # 5
    frequency:    17.0759461712
  - # 6
    frequency:    20.4508048798
  - # 7
    frequency:    22.8328976965
  - # 8
    frequency:    29.0669934309
  - # 9
    frequency:    42.5730355339
  - # 10
    frequency:    43.6151169843
  - # 11
    frequency:    43.9517900534
  - # 12
    frequency:    44.5698344090

- q-position: [    0.3333333,    0.0000000,    0.1250000 ]
  weight: 8    
  band:
  - # 1
    frequency:   -28.4829544492
  - # 2
    frequency:    11.2533115874
  - # 3
    frequency:    11.7028809145
  - # 4
    frequency:    13.4481515484
  - # 5
    frequency:    21.5094371471
  - # 6
    frequency:    24.9237801063
  - # 7
    frequency:    28.0160236733
  - # 8
    frequency:    28.8772049712
  - # 9
    frequency:    40.7872171115
  - # 10
    frequency:    41.4689530484
  - # 11
    frequency:    42.1318821803
  - # 12
    frequency:    42.6225238997

- q-position: [    0.4444444,    0.0000000,    0.1250000 ]
  weight: 8    
  band:
  - # 1
    frequency:   -20.6793737760
  - # 2
    frequency:    13.1112098984
  - # 3
    frequency:    14.6879533791
  - # 4
    frequency:    16.0938287280
  - # 5
    frequency:    20.3777764819
  - # 6
    frequency:    23.7319892609
  - # 7
    frequency:    33.6505322231
  - # 8
    frequency:    35.1791939450
  - # 9
    frequency:    38.6365702451
  - # 10
    frequency:    39.4052282313
  - # 11
    frequency:    39.7591130995
  - # 12
    frequency:    40.2203355175

- q-position: [    0.1111111,    0.1111111,    0.1250000 ]
  weight: 4    
  band:
  - # 1
    frequency:   -38.2929443286
  - # 2
    frequency:     4.4565221856
  - # 3
    frequency:     8.1189147697
  - # 4
    frequency:     8.1559950021
  - # 5
    frequency:    13.5634586997
  - # 6
    frequency:    18.0471028465
  - # 7
    frequency:    23.3130959135
  - # 8
    frequency:    28.9964502242
  - # 9
    frequency:    43.4575738656
  - # 10
    frequency:    43.5398504484
  - # 11
    frequency:    44.5037850597
  - # 12
    frequency:    45.0223721521

- q-position: [    0.2222222,    0.1111111,    0.1250000 ]
  weight: 8    
  band:
  - # 1
    frequency:   -31.0763468596
  - # 2
    frequency:    10.3860900047
  - # 3
    frequency:    12.2935425758
  - # 4
    frequency:    13.2454307878
  - # 5
    frequency:    22.3261504187
  - # 6
    frequency:    22.6458687800
  - # 7
    frequency:    25.4140581635
  - # 8
    frequency:    27.0142422879
  - # 9
    frequency:    41.6887837980
  - # 10
    frequency:    42.0775834444
  - # 11
    frequency:    43.0207704711
  - # 12
    frequency:    43.4140904543

- q-position: [    0.3333333,    0.1111111,    0.1250000 ]
  weight: 8    
  band:
  - # 1
    frequency:   -22.5144953930
  - # 2
    frequency:    12.6292606202
  - # 3
    frequency:    16.2320818020
  - # 4
    frequency:    17.0922715149
  - # 5
    frequency:    21.3331934160
  - # 6
    frequency:    23.3832012523
  - # 7
    frequency:    30.6898108730
  - # 8
    frequency:    31.8044770777
  - # 9
    frequency:    39.6538417718
  - # 10
    frequency:    39.9056886282
  - # 11
    frequency:    40.7064912747
  - # 12
    frequency:    41.5598460942

- q-position: [   -0.5555556,    0.1111111,    0.1250000 ]
  weight: 8    
  band:
  - # 1
    frequency:   -18.1972464486
  - # 2
    frequency:    13.2788332062
  - # 3
    frequency:    17.5630533793
  - # 4
    frequency:    18.5411391934
  - # 5
    frequency:    20.0838727298
  - # 6
    frequency:    23.3244109850
  - # 7
    frequency:    35.1518390536
  - # 8
    frequency:    36.2072029994
  - # 9
    frequency:    36.4254026009
  - # 10
    frequency:    37.7027451166
  - # 11
    frequency:    39.7255016796
  - # 12
    frequency:    40.0741911513

- q-position: [   -0.4444444,    0.1111111,    0.1250000 ]
  weight: 8    
  band:
  - # 1
    frequency:   -23.6322746913
  - # 2
    frequency:    11.9480561502
  - # 3
    frequency:    15.8531502632
  - # 4
    frequency:    17.0823475208
  - # 5
    frequency:    20.3482467854
  - # 6
    frequency:    25.3642133658
  - # 7
    frequency:    30.5973764169
  - # 8
    frequency:    31.8070755501
  - # 9
    frequency:    39.8238555370
  - # 10
    frequency:    39.9699363646
  - # 11
    frequency:    40.4703242050
  - # 12
    frequency:    40.9916738860

- q-position: [   -0.3333333,    0.1111111,    0.1250000 ]
  weight: 8    
  band:
  - # 1
    frequency:   -32.0178338317
  - # 2
    frequency:     9.0570590220
  - # 3
    frequency:    11.2637070792
  - # 4
    frequency:    13.3525427876
  - # 5
    frequency:    21.5695422719
  - # 6
    frequency:    22.6456332578
  - # 7
    frequency:    24.8133621869
  - # 8
    frequency:    28.9304345138
  - # 9
    frequency:    41.1526431072
  - # 10
    frequency:    42.6138220099
  - # 11
    frequency:    42.7707847371
  - # 12
    frequency:    42.9908325215

- q-position: [   -0.2222222,    0.1111111,    0.1250000 ]
  weight: 8    
  band:
  - # 1
    frequency:   -38.8726172091
  - # 2
    frequency:    -5.0396878546
  - # 3
    frequency:     6.4420436993
  - # 4
    frequency:     8.3510689987
  - # 5
    frequency:    14.2721381902
  - # 6
    frequency:    17.2710563742
  - # 7
    frequency:    22.8196874387
  - # 8
    frequency:    30.4401502286
  - # 9
    frequency:    42.1621117122
  - # 10
    frequency:    44.1869059159
  - # 11
    frequency:    44.4613994691
  - # 12
    frequency:    45.1148793697

- q-position: [   -0.1111111,    0.1111111,    0.1250000 ]
  weight: 4    
  band:
  - # 1
    frequency:   -42.5505926593
  - # 2
    frequency:   -10.5813250511
  - # 3
    frequency:     2.2336210046
  - # 4
    frequency:     3.3939154167
  - # 5
    frequency:     5.9205801388
  - # 6
    frequency:    10.6058124674
  - # 7
    frequency:    23.5737151987
  - # 8
    frequency:    31.1291782693
  - # 9
    frequency:    42.9451787036
  - # 10
    frequency:    44.9503924395
  - # 11
    frequency:    45.5400305355
  - # 12
    frequency:    46.0748531850

- q-position: [    0.2222222,    0.2222222,    0.1250000 ]
  weight: 4    
  band:
  - # 1
    frequency:   -23.1750490344
  - # 2
    frequency:    12.4483489896
  - # 3
    frequency:    18.2757738966
  - # 4
    frequency:    18.6596198070
  - # 5
    frequency:    22.2656056976
  - # 6
    frequency:    22.6351577988
  - # 7
    frequency:    29.0031448429
  - # 8
    frequency:    29.3657195695
  - # 9
    frequency:    39.8843632487
  - # 10
    frequency:    40.1776313402
  - # 11
    frequency:    41.2362445840
  - # 12
    frequency:    41.9102242793

- q-position: [    0.3333333,    0.2222222,    0.1250000 ]
  weight: 8    
  band:
  - # 1
    frequency:   -16.2183192370
  - # 2
    frequency:    13.3731612083
  - # 3
    frequency:    20.1920940485
  - # 4
    frequency:    21.9263389820
  - # 5
    frequency:    22.5993831657
  - # 6
    frequency:    22.8376161770
  - # 7
    frequency:    32.4244204098
  - # 8
    frequency:    33.0010072422
  - # 9
    frequency:    36.2488081406
  - # 10
    frequency:    37.8649075968
  - # 11
    frequency:    40.3461049786
  - # 12
    frequency:    40.5536740335

- q-position: [   -0.5555556,    0.2222222,    0.1250000 ]
  weight: 8    
  band:
  - # 1
    frequency:   -17.5702933841
  - # 2
    frequency:    13.0532319163
  - # 3
    frequency:    19.6539059741
  - # 4
    frequency:    21.9697229306
  - # 5
    frequency:    22.3857284632
  - # 6
    frequency:    24.1328689466
  - # 7
    frequency:    32.2977582163
  - # 8
    frequency:    33.4527012865
  - # 9
    frequency:    36.3294278907
  - # 10
    frequency:    37.2687573784
  - # 11
    frequency:    39.8116574610
  - # 12
    frequency:    40.6050945485

- q-position: [   -0.4444444,    0.2222222,    0.1250000 ]
  weight: 8    
  band:
  - # 1
    frequency:   -24.9455731186
  - # 2
    frequency:    11.2200208818
  - # 3
    frequency:    17.7996931828
  - # 4
    frequency:    18.2895334601
  - # 5
    frequency:    20.2542201555
  - # 6
    frequency:    25.8851934912
  - # 7
    frequency:    28.8589270757
  - # 8
    frequency:    29.3841511524
  - # 9
    frequency:    39.3537078170
  - # 10
    frequency:    40.3607264453
  - # 11
    frequency:    40.5921198699
  - # 12
    frequency:    41.4558553869

- q-position: [   -0.3333333,    0.2222222,    0.1250000 ]
  weight: 8    
  band:
  - # 1
    frequency:   -32.3181009360
  - # 2
    frequency:     8.4637268665
  - # 3
    frequency:    10.4968026614
  - # 4
    frequency:    12.7584120994
  - # 5
    frequency:    21.3398611138
  - # 6
    frequency:    22.7292736322
  - # 7
    frequency:    24.6109110449
  - # 8
    frequency:    29.5562720227
  - # 9
    frequency:    40.0015502041
  - # 10
    frequency:    42.1569489718
  - # 11
    frequency:    42.9440077211
  - # 12
    frequency:    43.6059621843

- q-position: [   -0.2222222,    0.2222222,    0.1250000 ]
  weight: 4    
  band:
  - # 1
    frequency:   -37.3141260227
  - # 2
    frequency:    -4.4231185360
  - # 3
    frequency:     6.6949058460
  - # 4
    frequency:     8.5396632071
  - # 5
    frequency:    17.5094413060
  - # 6
    frequency:    19.9652452838
  - # 7
    frequency:    22.3076938041
  - # 8
    frequency:    30.5498327723
  - # 9
    frequency:    41.0365411456
  - # 10
    frequency:    43.5075814793
  - # 11
    frequency:    44.1509153698
  - # 12
    frequency:    45.0414261555

- q-position: [   -0.6666667,    0.3333333,    0.1250000 ]
  weight: 4    
  band:
  - # 1
    frequency:   -14.0493154953
  - # 2
    frequency:    13.5546148839
  - # 3
    frequency:    20.0203596103
  - # 4
    frequency:    22.4918516299
  - # 5
    frequency:    25.4262654904
  - # 6
    frequency:    26.3964971019
  - # 7
    frequency:    32.2392173627
  - # 8
    frequency:    33.7427364669
  - # 9
    frequency:    33.8657631771
  - # 10
    frequency:    35.1535605932
  - # 11
    frequency:    39.8222811847
  - # 12
    frequency:    40.6019931947

- q-position: [   -0.5555556,    0.3333333,    0.1250000 ]
  weight: 8    
  band:
  - # 1
    frequency:   -17.7367988318
  - # 2
    frequency:    13.0998549077
  - # 3
    frequency:    19.9217482685
  - # 4
    frequency:    21.1987125731
  - # 5
    frequency:    22.8769107752
  - # 6
    frequency:    23.9543542856
  - # 7
    frequency:    32.2200058369
  - # 8
    frequency:    33.1346808471
  - # 9
    frequency:    36.0410219978
  - # 10
    frequency:    37.3449271434
  - # 11
    frequency:    38.9848082937
  - # 12
    frequency:    40.6095722666

- q-position: [   -0.4444444,    0.3333333,    0.1250000 ]
  weight: 8    
  band:
  - # 1
    frequency:   -23.8674143984
  - # 2
    frequency:    11.6149154619
  - # 3
    frequency:    15.3363184027
  - # 4
    frequency:    16.4165935882
  - # 5
    frequency:    20.0049980456
  - # 6
    frequency:    25.8456488837
  - # 7
    frequency:    30.3615624956
  - # 8
    frequency:    31.6810610066
  - # 9
    frequency:    37.5183130172
  - # 10
    frequency:    39.9647941501
  - # 11
    frequency:    40.4082254421
  - # 12
    frequency:    41.3256143504

- q-position: [   -0.3333333,    0.3333333,    0.1250000 ]
  weight: 4    
  band:
  - # 1
    frequency:   -29.3492792945
  - # 2
    frequency:     9.9876666230
  - # 3
    frequency:    10.6183444719
  - # 4
    frequency:    12.0188295512
  - # 5
    frequency:    20.6875596012
  - # 6
    frequency:    25.7740445827
  - # 7
    frequency:    27.7837721717
  - # 8
    frequency:    29.6047152846
  - # 9
    frequency:    38.4059962442
  - # 10
    frequency:    41.0471279556
  - # 11
    frequency:    42.3233604977
  - # 12
    frequency:    43.0879517963

- q-position: [   -0.5555556,    0.4444444,    0.1250000 ]
  weight: 4    
  band:
  - # 1
    frequency:   -18.5978024564
  - # 2
    frequency:    13.2224385927
  - # 3
    frequency:    16.3531739638
  - # 4
    frequency:    18.6572800881
  - # 5
    frequency:    20.3616034034
  - # 6
    frequency:    23.1902309503
  - # 7
    frequency:    34.4018290222
  - # 8
    frequency:    36.2271700538
  - # 9
    frequency:    36.2756130970
  - # 10
    frequency:    37.5119786812
  - # 11
    frequency:    37.5590557472
  - # 12
    frequency:    39.9221452841

- q-position: [   -0.4444444,    0.4444444,    0.1250000 ]
  weight: 4    
  band:
  - # 1
    frequency:   -21.0725813711
  - # 2
    frequency:    12.8462301731
  - # 3
    frequency:    13.3799243391
  - # 4
    frequency:    15.6086494758
  - # 5
    frequency:    19.8931917790
  - # 6
    frequency:    24.3875941044
  - # 7
    frequency:    33.5836080939
  - # 8
    frequency:    35.0010141754
  - # 9
    frequency:    36.0202063231
  - # 10
    frequency:    39.0494800853
  - # 11
    frequency:    39.4694504967
  - # 12
    frequency:    39.9885975818

- q-position: [    0.0000000,    0.0000000,    0.3750000 ]
  weight: 2    
  band:
  - # 1
    frequency:   -21.6393737787
  - # 2
    frequency:   -12.3429217153
  - # 3
    frequency:   -11.6261766854
  - # 4
    frequency:   -10.1502060084
  - # 5
    frequency:    -9.5002656773
  - # 6
    frequency:    14.8742541583
  - # 7
    frequency:    24.3104462905
  - # 8
    frequency:    24.8626401599
  - # 9
    frequency:    40.9134106482
  - # 10
    frequency:    41.4939204599
  - # 11
    frequency:    41.9636017561
  - # 12
    frequency:    42.0121969609

- q-position: [    0.1111111,    0.0000000,    0.3750000 ]
  weight: 8    
  band:
  - # 1
    frequency:   -20.7156084192
  - # 2
    frequency:   -10.0445306021
  - # 3
    frequency:    -8.1094613934
  - # 4
    frequency:    -7.1200412249
  - # 5
    frequency:    -5.2942015829
  - # 6
    frequency:    15.5281662133
  - # 7
    frequency:    23.6510123835
  - # 8
    frequency:    24.3637339103
  - # 9
    frequency:    41.0519148188
  - # 10
    frequency:    41.4810335180
  - # 11
    frequency:    41.8243551130
  - # 12
    frequency:    42.0877337430

- q-position: [    0.2222222,    0.0000000,    0.3750000 ]
  weight: 8    
  band:
  - # 1
    frequency:   -18.2839826679
  - # 2
    frequency:     1.5286409825
  - # 3
    frequency:     4.6110719118
  - # 4
    frequency:     5.2275079443
  - # 5
    frequency:    13.2896016508
  - # 6
    frequency:    20.3066414265
  - # 7
    frequency:    22.1176249438
  - # 8
    frequency:    24.0528499273
  - # 9
    frequency:    40.9123045238
  - # 10
    frequency:    41.3955702612
  - # 11
    frequency:    41.6371574409
  - # 12
    frequency:    42.0427593795

- q-position: [    0.3333333,    0.0000000,    0.3750000 ]
  weight: 8    
  band:
  - # 1
    frequency:   -15.5474095233
  - # 2
    frequency:    -2.9381339013
  - # 3
    frequency:    11.1024441097
  - # 4
    frequency:    11.7944860163
  - # 5
    frequency:    16.4597831371
  - # 6
    frequency:    19.8943082636
  - # 7
    frequency:    28.0144149988
  - # 8
    frequency:    28.3241927501
  - # 9
    frequency:    40.5132383163
  - # 10
    frequency:    40.7618314817
  - # 11
    frequency:    41.0590345192
  - # 12
    frequency:    41.3252519566

- q-position: [    0.4444444,    0.0000000,    0.3750000 ]
  weight: 8    
  band:
  - # 1
    frequency:   -14.0898168841
  - # 2
    frequency:    -6.1671581057
  - # 3
    frequency:    14.2711567290
  - # 4
    frequency:    14.8562976722
  - # 5
    frequency:    15.5579866581
  - # 6
    frequency:    19.1074564807
  - # 7
    frequency:    33.8899570530
  - # 8
    frequency:    34.3938314207
  - # 9
    frequency:    38.6842106516
  - # 10
    frequency:    39.3085137018
  - # 11
    frequency:    40.2121753832
  - # 12
    frequency:    40.4260778465

- q-position: [    0.1111111,    0.1111111,    0.3750000 ]
  weight: 4    
  band:
  - # 1
    frequency:   -18.7377243120
  - # 2
    frequency:    -5.4351465403
  - # 3
    frequency:    -1.5863714918
  - # 4
    frequency:     4.7366819982
  - # 5
    frequency:    10.0800402650
  - # 6
    frequency:    18.4605348389
  - # 7
    frequency:    22.7559541280
  - # 8
    frequency:    23.5345100522
  - # 9
    frequency:    41.2950377022
  - # 10
    frequency:    41.3595335313
  - # 11
    frequency:    41.7859178022
  - # 12
    frequency:    42.1349353468

- q-position: [    0.2222222,    0.1111111,    0.3750000 ]
  weight: 8    
  band:
  - # 1
    frequency:   -16.0716564155
  - # 2
    frequency:    -3.6599177910
  - # 3
    frequency:    10.8610991109
  - # 4
    frequency:    10.9307540870
  - # 5
    frequency:    15.9285536409
  - # 6
    frequency:    20.7505158557
  - # 7
    frequency:    24.9202792468
  - # 8
    frequency:    25.3520867382
  - # 9
    frequency:    40.9154838237
  - # 10
    frequency:    41.1712922938
  - # 11
    frequency:    41.5010594687
  - # 12
    frequency:    41.7953547878

- q-position: [    0.3333333,    0.1111111,    0.3750000 ]
  weight: 8    
  band:
  - # 1
    frequency:   -14.3444593220
  - # 2
    frequency:    -6.5833201512
  - # 3
    frequency:    14.9639618217
  - # 4
    frequency:    15.5632907475
  - # 5
    frequency:    16.7519819931
  - # 6
    frequency:    19.2656840557
  - # 7
    frequency:    30.7668775382
  - # 8
    frequency:    31.1804095071
  - # 9
    frequency:    39.6942126841
  - # 10
    frequency:    40.0368631388
  - # 11
    frequency:    40.9087751199
  - # 12
    frequency:    41.0032983645

- q-position: [   -0.5555556,    0.1111111,    0.3750000 ]
  weight: 8    
  band:
  - # 1
    frequency:   -14.0721341772
  - # 2
    frequency:    -6.9960004715
  - # 3
    frequency:    15.2564930474
  - # 4
    frequency:    17.2039706134
  - # 5
    frequency:    17.8453558641
  - # 6
    frequency:    18.6837924861
  - # 7
    frequency:    35.1254445068
  - # 8
    frequency:    35.3601503675
  - # 9
    frequency:    36.9621289490
  - # 10
    frequency:    37.7801597553
  - # 11
    frequency:    40.5845995960
  - # 12
    frequency:    40.7068908415

- q-position: [   -0.4444444,    0.1111111,    0.3750000 ]
  weight: 8    
  band:
  - # 1
    frequency:   -14.8900771708
  - # 2
    frequency:    -5.3137815508
  - # 3
    frequency:    15.4523117447
  - # 4
    frequency:    15.9416700029
  - # 5
    frequency:    17.0235095118
  - # 6
    frequency:    18.7933188547
  - # 7
    frequency:    31.1189365416
  - # 8
    frequency:    31.4910255484
  - # 9
    frequency:    39.3797204540
  - # 10
    frequency:    39.6632437877
  - # 11
    frequency:    40.5448481563
  - # 12
    frequency:    40.8698690524

- q-position: [   -0.3333333,    0.1111111,    0.3750000 ]
  weight: 8    
  band:
  - # 1
    frequency:   -17.0746402712
  - # 2
    frequency:     0.4185049323
  - # 3
    frequency:    11.4506880831
  - # 4
    frequency:    12.0615300849
  - # 5
    frequency:    16.9304591085
  - # 6
    frequency:    19.7492449438
  - # 7
    frequency:    24.9550748841
  - # 8
    frequency:    25.9939975869
  - # 9
    frequency:    40.5796587819
  - # 10
    frequency:    41.0752445296
  - # 11
    frequency:    41.1287728100
  - # 12
    frequency:    41.3509109179

- q-position: [   -0.2222222,    0.1111111,    0.3750000 ]
  weight: 8    
  band:
  - # 1
    frequency:   -19.6435914332
  - # 2
    frequency:    -5.1544324089
  - # 3
    frequency:     4.0392762251
  - # 4
    frequency:     5.3900762431
  - # 5
    frequency:    11.2345498092
  - # 6
    frequency:    18.4298921777
  - # 7
    frequency:    22.0654422457
  - # 8
    frequency:    24.4037421236
  - # 9
    frequency:    40.6569291881
  - # 10
    frequency:    41.4445729347
  - # 11
    frequency:    41.6227875083
  - # 12
    frequency:    41.9133566060

- q-position: [   -0.1111111,    0.1111111,    0.3750000 ]
  weight: 4    
  band:
  - # 1
    frequency:   -21.0620480873
  - # 2
    frequency:   -10.6014973831
  - # 3
    frequency:    -7.3352621456
  - # 4
    frequency:    -6.4523266184
  - # 5
    frequency:    -4.5346033162
  - # 6
    frequency:    15.5399827195
  - # 7
    frequency:    23.3589714075
  - # 8
    frequency:    24.7695659284
  - # 9
    frequency:    40.7298964928
  - # 10
    frequency:    41.5706758501
  - # 11
    frequency:    41.7826773009
  - # 12
    frequency:    42.0126145671

- q-position: [    0.2222222,    0.2222222,    0.3750000 ]
  weight: 4    
  band:
  - # 1
    frequency:   -14.4976291548
  - # 2
    frequency:    -6.9807358987
  - # 3
    frequency:    15.3531260812
  - # 4
    frequency:    17.3260902155
  - # 5
    frequency:    18.1743586897
  - # 6
    frequency:    19.4335409882
  - # 7
    frequency:    28.8339072904
  - # 8
    frequency:    28.9908275326
  - # 9
    frequency:    39.8931876634
  - # 10
    frequency:    40.2404005432
  - # 11
    frequency:    41.2905237372
  - # 12
    frequency:    41.3485390548

- q-position: [    0.3333333,    0.2222222,    0.3750000 ]
  weight: 8    
  band:
  - # 1
    frequency:   -14.1576833618
  - # 2
    frequency:    -7.6848501262
  - # 3
    frequency:    15.6085491371
  - # 4
    frequency:    17.6877248355
  - # 5
    frequency:    21.7183084740
  - # 6
    frequency:    21.8956400685
  - # 7
    frequency:    32.6529529494
  - # 8
    frequency:    32.7897196877
  - # 9
    frequency:    37.0703873650
  - # 10
    frequency:    37.8916149035
  - # 11
    frequency:    41.2434690335
  - # 12
    frequency:    41.2751484068

- q-position: [   -0.5555556,    0.2222222,    0.3750000 ]
  weight: 8    
  band:
  - # 1
    frequency:   -14.3937257506
  - # 2
    frequency:    -6.7697707608
  - # 3
    frequency:    15.5313654606
  - # 4
    frequency:    17.2849168480
  - # 5
    frequency:    22.0524224216
  - # 6
    frequency:    22.2072521505
  - # 7
    frequency:    32.9713709244
  - # 8
    frequency:    33.2452488913
  - # 9
    frequency:    36.6997014327
  - # 10
    frequency:    37.2416714264
  - # 11
    frequency:    40.9241923192
  - # 12
    frequency:    41.2294878096

- q-position: [   -0.4444444,    0.2222222,    0.3750000 ]
  weight: 8    
  band:
  - # 1
    frequency:   -15.5236930765
  - # 2
    frequency:    -5.2588187904
  - # 3
    frequency:    16.7080473282
  - # 4
    frequency:    17.0376861729
  - # 5
    frequency:    18.5009856088
  - # 6
    frequency:    19.1160676829
  - # 7
    frequency:    29.1666157511
  - # 8
    frequency:    29.4516477280
  - # 9
    frequency:    39.4330968907
  - # 10
    frequency:    39.6772704073
  - # 11
    frequency:    40.5225378196
  - # 12
    frequency:    41.1216016786

- q-position: [   -0.3333333,    0.2222222,    0.3750000 ]
  weight: 8    
  band:
  - # 1
    frequency:   -17.6983664888
  - # 2
    frequency:     2.5366220015
  - # 3
    frequency:    10.8870432683
  - # 4
    frequency:    12.1838547068
  - # 5
    frequency:    17.4639556075
  - # 6
    frequency:    19.4388516535
  - # 7
    frequency:    24.9287071483
  - # 8
    frequency:    26.3721873837
  - # 9
    frequency:    40.1081846859
  - # 10
    frequency:    40.8975033811
  - # 11
    frequency:    41.1183517779
  - # 12
    frequency:    41.4018709000

- q-position: [   -0.2222222,    0.2222222,    0.3750000 ]
  weight: 4    
  band:
  - # 1
    frequency:   -19.4068351514
  - # 2
    frequency:    -2.5915188422
  - # 3
    frequency:     5.7731685309
  - # 4
    frequency:     6.0298202312
  - # 5
    frequency:    14.6558142241
  - # 6
    frequency:    20.1769428716
  - # 7
    frequency:    21.4655021519
  - # 8
    frequency:    25.0032154781
  - # 9
    frequency:    40.2340997347
  - # 10
    frequency:    41.1937037971
  - # 11
    frequency:    41.5407821000
  - # 12
    frequency:    41.9193156209

- q-position: [   -0.6666667,    0.3333333,    0.3750000 ]
  weight: 4    
  band:
  - # 1
    frequency:   -14.2006072506
  - # 2
    frequency:    -7.2449280810
  - # 3
    frequency:    15.4530783626
  - # 4
    frequency:    16.7178191371
  - # 5
    frequency:    25.0381910025
  - # 6
    frequency:    25.3826492890
  - # 7
    frequency:    33.4634093563
  - # 8
    frequency:    33.5665393111
  - # 9
    frequency:    34.7050781101
  - # 10
    frequency:    35.7122920925
  - # 11
    frequency:    41.1859635405
  - # 12
    frequency:    41.4867670084

- q-position: [   -0.5555556,    0.3333333,    0.3750000 ]
  weight: 8    
  band:
  - # 1
    frequency:   -14.3541087164
  - # 2
    frequency:    -6.7889301118
  - # 3
    frequency:    15.3059537662
  - # 4
    frequency:    17.1799232752
  - # 5
    frequency:    21.8788375599
  - # 6
    frequency:    22.5300383563
  - # 7
    frequency:    32.8135601161
  - # 8
    frequency:    33.0221907299
  - # 9
    frequency:    36.6555798306
  - # 10
    frequency:    37.3109863916
  - # 11
    frequency:    40.5381133290
  - # 12
    frequency:    41.2430610490

- q-position: [   -0.4444444,    0.3333333,    0.3750000 ]
  weight: 8    
  band:
  - # 1
    frequency:   -15.4245894958
  - # 2
    frequency:    -5.4077089103
  - # 3
    frequency:    15.3081324757
  - # 4
    frequency:    15.8490984913
  - # 5
    frequency:    16.8095639825
  - # 6
    frequency:    18.8115851276
  - # 7
    frequency:    31.0577899711
  - # 8
    frequency:    31.5668705797
  - # 9
    frequency:    39.0266552097
  - # 10
    frequency:    39.6634612279
  - # 11
    frequency:    39.9944269728
  - # 12
    frequency:    40.8219340573

- q-position: [   -0.3333333,    0.3333333,    0.3750000 ]
  weight: 4    
  band:
  - # 1
    frequency:   -16.9770625695
  - # 2
    frequency:     2.0884697539
  - # 3
    frequency:    11.1183487800
  - # 4
    frequency:    11.5941027713
  - # 5
    frequency:    17.0616158554
  - # 6
    frequency:    19.5449568042
  - # 7
    frequency:    28.0987326163
  - # 8
    frequency:    28.9262240004
  - # 9
    frequency:    39.5088488796
  - # 10
    frequency:    40.5935593448
  - # 11
    frequency:    40.7701102775
  - # 12
    frequency:    41.1345779231

- q-position: [   -0.5555556,    0.4444444,    0.3750000 ]
  weight: 4    
  band:
  - # 1
    frequency:   -14.1941273207
  - # 2
    frequency:    -7.1353277427
  - # 3
    frequency:    14.8892326194
  - # 4
    frequency:    17.0002962866
  - # 5
    frequency:    18.0404933305
  - # 6
    frequency:    18.3569751884
  - # 7
    frequency:    35.0265630583
  - # 8
    frequency:    35.2576418025
  - # 9
    frequency:    36.8850298632
  - # 10
    frequency:    37.6767551619
  - # 11
    frequency:    39.5207988733
  - # 12
    frequency:    40.6889135967

- q-position: [   -0.4444444,    0.4444444,    0.3750000 ]
  weight: 4    
  band:
  - # 1
    frequency:   -14.6340487012
  - # 2
    frequency:    -6.3698180576
  - # 3
    frequency:    13.9727451418
  - # 4
    frequency:    14.7282893413
  - # 5
    frequency:    15.3510788247
  - # 6
    frequency:    18.9513898266
  - # 7
    frequency:    33.9810947619
  - # 8
    frequency:    34.4291081695
  - # 9
    frequency:    38.6836749731
  - # 10
    frequency:    38.8605275102
  - # 11
    frequency:    39.1679678802
  - # 12
    frequency:    40.2966132074

