   4   4   0   0
  0.8863011E+01  0.2467155E-09  0.2467155E-09  0.6725742E-09  0.5000000E-15
  1.000000000000000E-004
  CAR 
 graphite                                
     18.44337282    -16.96933878  301      4.64361165      1.00000000
    -16.969  0.0000E+00  0.0000E+00
    -16.851  0.0000E+00  0.0000E+00
    -16.733  0.0000E+00  0.0000E+00
    -16.615  0.0000E+00  0.0000E+00
    -16.497  0.0000E+00  0.0000E+00
    -16.379  0.0000E+00  0.0000E+00
    -16.261  0.0000E+00  0.0000E+00
    -16.143  0.0000E+00  0.0000E+00
    -16.025  0.0000E+00  0.0000E+00
    -15.907  0.0000E+00  0.0000E+00
    -15.789  0.0000E+00  0.0000E+00
    -15.671  0.0000E+00  0.0000E+00
    -15.553  0.0000E+00  0.0000E+00
    -15.435  0.0000E+00  0.0000E+00
    -15.317  0.0000E+00  0.0000E+00
    -15.199  0.0000E+00  0.0000E+00
    -15.081  0.0000E+00  0.0000E+00
    -14.963  0.1832E-04  0.4103E-07
    -14.845  0.1236E-02  0.8756E-04
    -14.727  0.2155E-02  0.2858E-03
    -14.608  0.3079E-02  0.6075E-03
    -14.490  0.3145E-02  0.9677E-03
    -14.372  0.3053E-02  0.1333E-02
    -14.254  0.3095E-02  0.1696E-02
    -14.136  0.3080E-02  0.2061E-02
    -14.018  0.3103E-02  0.2427E-02
    -13.900  0.3113E-02  0.2794E-02
    -13.782  0.3081E-02  0.3161E-02
    -13.664  0.3105E-02  0.3525E-02
    -13.546  0.3137E-02  0.3894E-02
    -13.428  0.3134E-02  0.4264E-02
    -13.310  0.3107E-02  0.4633E-02
    -13.192  0.3109E-02  0.5000E-02
    -13.074  0.3143E-02  0.5369E-02
    -12.956  0.3171E-02  0.5742E-02
    -12.838  0.3166E-02  0.6116E-02
    -12.720  0.3144E-02  0.6489E-02
    -12.602  0.3143E-02  0.6859E-02
    -12.484  0.3162E-02  0.7231E-02
    -12.366  0.3192E-02  0.7606E-02
    -12.248  0.3210E-02  0.7985E-02
    -12.130  0.3206E-02  0.8364E-02
    -12.012  0.3192E-02  0.8741E-02
    -11.894  0.3197E-02  0.9118E-02
    -11.775  0.3214E-02  0.9496E-02
    -11.657  0.3237E-02  0.9877E-02
    -11.539  0.3265E-02  0.1026E-01
    -11.421  0.3275E-02  0.1065E-01
    -11.303  0.3277E-02  0.1103E-01
    -11.185  0.3277E-02  0.1142E-01
    -11.067  0.3294E-02  0.1181E-01
    -10.949  0.3319E-02  0.1220E-01
    -10.831  0.3348E-02  0.1259E-01
    -10.713  0.3384E-02  0.1299E-01
    -10.595  0.3424E-02  0.1339E-01
    -10.477  0.3455E-02  0.1380E-01
    -10.359  0.3500E-02  0.1421E-01
    -10.241  0.3582E-02  0.1462E-01
    -10.123  0.3727E-02  0.1506E-01
    -10.005  0.3927E-02  0.1551E-01
     -9.887  0.4466E-02  0.1599E-01
     -9.769  0.5202E-02  0.1657E-01
     -9.651  0.4527E-02  0.1718E-01
     -9.533  0.3276E-02  0.1763E-01
     -9.415  0.3622E-02  0.1809E-01
     -9.297  0.2307E-02  0.1848E-01
     -9.179  0.2053E-02  0.1873E-01
     -9.060  0.1800E-02  0.1896E-01
     -8.942  0.1546E-02  0.1916E-01
     -8.824  0.1655E-02  0.1934E-01
     -8.706  0.1670E-02  0.1956E-01
     -8.588  0.8707E-03  0.1971E-01
     -8.470  0.1109E-02  0.1982E-01
     -8.352  0.2058E-02  0.1999E-01
     -8.234  0.3729E-02  0.2039E-01
     -8.116  0.2698E-02  0.2079E-01
     -7.998  0.2828E-02  0.2112E-01
     -7.880  0.4323E-02  0.2154E-01
     -7.762  0.3947E-02  0.2208E-01
     -7.644  0.4635E-02  0.2258E-01
     -7.526  0.5364E-02  0.2317E-01
     -7.408  0.4710E-02  0.2380E-01
     -7.290  0.3845E-02  0.2428E-01
     -7.172  0.3688E-02  0.2472E-01
     -7.054  0.3540E-02  0.2515E-01
     -6.936  0.3396E-02  0.2556E-01
     -6.818  0.3256E-02  0.2595E-01
     -6.700  0.3114E-02  0.2632E-01
     -6.582  0.2998E-02  0.2668E-01
     -6.464  0.2960E-02  0.2704E-01
     -6.346  0.2924E-02  0.2738E-01
     -6.227  0.2888E-02  0.2773E-01
     -6.109  0.2851E-02  0.2807E-01
     -5.991  0.2713E-02  0.2840E-01
     -5.873  0.2574E-02  0.2871E-01
     -5.755  0.2926E-02  0.2903E-01
     -5.637  0.3361E-02  0.2940E-01
     -5.519  0.3795E-02  0.2982E-01
     -5.401  0.3860E-02  0.3028E-01
     -5.283  0.3718E-02  0.3073E-01
     -5.165  0.3661E-02  0.3116E-01
     -5.047  0.3604E-02  0.3159E-01
     -4.929  0.3618E-02  0.3202E-01
     -4.811  0.3721E-02  0.3245E-01
     -4.693  0.3814E-02  0.3289E-01
     -4.575  0.3904E-02  0.3335E-01
     -4.457  0.3946E-02  0.3381E-01
     -4.339  0.3958E-02  0.3428E-01
     -4.221  0.3946E-02  0.3475E-01
     -4.103  0.3919E-02  0.3521E-01
     -3.985  0.4030E-02  0.3568E-01
     -3.867  0.4070E-02  0.3616E-01
     -3.749  0.4427E-02  0.3665E-01
     -3.631  0.4656E-02  0.3719E-01
     -3.513  0.4936E-02  0.3775E-01
     -3.394  0.5178E-02  0.3835E-01
     -3.276  0.5417E-02  0.3897E-01
     -3.158  0.5604E-02  0.3963E-01
     -3.040  0.5788E-02  0.4030E-01
     -2.922  0.5973E-02  0.4099E-01
     -2.804  0.6151E-02  0.4171E-01
     -2.686  0.6754E-02  0.4246E-01
     -2.568  0.7222E-02  0.4329E-01
     -2.450  0.7491E-02  0.4416E-01
     -2.332  0.7507E-02  0.4505E-01
     -2.214  0.7645E-02  0.4593E-01
     -2.096  0.7231E-02  0.4680E-01
     -1.978  0.7667E-02  0.4768E-01
     -1.860  0.1109E-01  0.4880E-01
     -1.742  0.1255E-01  0.5022E-01
     -1.624  0.1020E-01  0.5159E-01
     -1.506  0.9421E-02  0.5274E-01
     -1.388  0.8552E-02  0.5379E-01
     -1.270  0.8032E-02  0.5480E-01
     -1.152  0.7313E-02  0.5569E-01
     -1.034  0.5784E-02  0.5646E-01
     -0.916  0.6520E-02  0.5717E-01
     -0.798  0.6884E-02  0.5801E-01
     -0.679  0.7382E-02  0.5887E-01
     -0.561  0.6103E-02  0.5976E-01
     -0.443  0.6120E-02  0.6048E-01
     -0.325  0.6424E-02  0.6122E-01
     -0.207  0.6723E-02  0.6199E-01
     -0.089  0.6990E-02  0.6281E-01
      0.029  0.6443E-02  0.6361E-01
      0.147  0.6119E-02  0.6435E-01
      0.265  0.5995E-02  0.6506E-01
      0.383  0.5868E-02  0.6576E-01
      0.501  0.5752E-02  0.6645E-01
      0.619  0.5763E-02  0.6713E-01
      0.737  0.5864E-02  0.6782E-01
      0.855  0.5759E-02  0.6851E-01
      0.973  0.5624E-02  0.6918E-01
      1.091  0.5523E-02  0.6983E-01
      1.209  0.5767E-02  0.7050E-01
      1.327  0.5569E-02  0.7117E-01
      1.445  0.5634E-02  0.7185E-01
      1.563  0.5381E-02  0.7253E-01
      1.681  0.3757E-02  0.7305E-01
      1.799  0.4236E-02  0.7351E-01
      1.917  0.4376E-02  0.7403E-01
      2.035  0.4289E-02  0.7454E-01
      2.154  0.4240E-02  0.7505E-01
      2.272  0.4458E-02  0.7555E-01
      2.390  0.4437E-02  0.7608E-01
      2.508  0.4537E-02  0.7661E-01
      2.626  0.3843E-02  0.7714E-01
      2.744  0.3273E-02  0.7757E-01
      2.862  0.2702E-02  0.7792E-01
      2.980  0.2414E-02  0.7822E-01
      3.098  0.2168E-02  0.7849E-01
      3.216  0.2009E-02  0.7873E-01
      3.334  0.1835E-02  0.7896E-01
      3.452  0.1588E-02  0.7917E-01
      3.570  0.1322E-02  0.7934E-01
      3.688  0.1149E-02  0.7948E-01
      3.806  0.9853E-03  0.7961E-01
      3.924  0.8197E-03  0.7972E-01
      4.042  0.6598E-03  0.7980E-01
      4.160  0.5446E-03  0.7987E-01
      4.278  0.3975E-03  0.7993E-01
      4.396  0.2604E-03  0.7997E-01
      4.514  0.1314E-03  0.7999E-01
      4.632  0.9280E-05  0.8000E-01
      4.750  0.7360E-04  0.8000E-01
      4.869  0.1637E-03  0.8002E-01
      4.987  0.2629E-03  0.8004E-01
      5.105  0.3740E-03  0.8008E-01
      5.223  0.5006E-03  0.8013E-01
      5.341  0.6606E-03  0.8020E-01
      5.459  0.9089E-03  0.8029E-01
      5.577  0.1182E-02  0.8042E-01
      5.695  0.1448E-02  0.8057E-01
      5.813  0.1699E-02  0.8076E-01
      5.931  0.1904E-02  0.8098E-01
      6.049  0.2817E-02  0.8126E-01
      6.167  0.3811E-02  0.8169E-01
      6.285  0.4986E-02  0.8231E-01
      6.403  0.4651E-02  0.8288E-01
      6.521  0.4438E-02  0.8341E-01
      6.639  0.4189E-02  0.8393E-01
      6.757  0.4150E-02  0.8442E-01
      6.875  0.4214E-02  0.8492E-01
      6.993  0.3611E-02  0.8538E-01
      7.111  0.3351E-02  0.8579E-01
      7.229  0.3131E-02  0.8618E-01
      7.347  0.2977E-02  0.8654E-01
      7.465  0.2854E-02  0.8688E-01
      7.583  0.2746E-02  0.8721E-01
      7.702  0.2650E-02  0.8753E-01
      7.820  0.2575E-02  0.8784E-01
      7.938  0.2514E-02  0.8814E-01
      8.056  0.2457E-02  0.8843E-01
      8.174  0.2398E-02  0.8872E-01
      8.292  0.2333E-02  0.8900E-01
      8.410  0.2272E-02  0.8927E-01
      8.528  0.2218E-02  0.8953E-01
      8.646  0.2169E-02  0.8979E-01
      8.764  0.2122E-02  0.9005E-01
      8.882  0.2081E-02  0.9029E-01
      9.000  0.2110E-02  0.9054E-01
      9.118  0.2278E-02  0.9080E-01
      9.236  0.2355E-02  0.9107E-01
      9.354  0.2390E-02  0.9135E-01
      9.472  0.2415E-02  0.9164E-01
      9.590  0.2457E-02  0.9192E-01
      9.708  0.2483E-02  0.9222E-01
      9.826  0.2489E-02  0.9251E-01
      9.944  0.2511E-02  0.9280E-01
     10.062  0.2558E-02  0.9310E-01
     10.180  0.2603E-02  0.9341E-01
     10.298  0.2650E-02  0.9372E-01
     10.416  0.2707E-02  0.9403E-01
     10.535  0.2794E-02  0.9436E-01
     10.653  0.3357E-02  0.9472E-01
     10.771  0.3520E-02  0.9513E-01
     10.889  0.2669E-02  0.9549E-01
     11.007  0.2468E-02  0.9579E-01
     11.125  0.2328E-02  0.9608E-01
     11.243  0.2209E-02  0.9634E-01
     11.361  0.2073E-02  0.9660E-01
     11.479  0.2094E-02  0.9684E-01
     11.597  0.2396E-02  0.9710E-01
     11.715  0.2759E-02  0.9741E-01
     11.833  0.2951E-02  0.9775E-01
     11.951  0.4065E-02  0.9815E-01
     12.069  0.5694E-02  0.9872E-01
     12.187  0.7229E-02  0.9948E-01
     12.305  0.8531E-02  0.1004E+00
     12.423  0.9158E-02  0.1015E+00
     12.541  0.9031E-02  0.1026E+00
     12.659  0.7974E-02  0.1036E+00
     12.777  0.7628E-02  0.1045E+00
     12.895  0.8050E-02  0.1054E+00
     13.013  0.1261E-01  0.1065E+00
     13.131  0.1554E-01  0.1082E+00
     13.250  0.1037E-01  0.1097E+00
     13.368  0.7340E-02  0.1108E+00
     13.486  0.5474E-02  0.1115E+00
     13.604  0.4862E-02  0.1121E+00
     13.722  0.4788E-02  0.1127E+00
     13.840  0.4041E-02  0.1132E+00
     13.958  0.4024E-02  0.1137E+00
     14.076  0.4010E-02  0.1142E+00
     14.194  0.3948E-02  0.1146E+00
     14.312  0.2920E-02  0.1150E+00
     14.430  0.2740E-02  0.1154E+00
     14.548  0.2800E-02  0.1157E+00
     14.666  0.3152E-02  0.1160E+00
     14.784  0.2839E-02  0.1164E+00
     14.902  0.2974E-02  0.1167E+00
     15.020  0.3915E-02  0.1172E+00
     15.138  0.4614E-02  0.1177E+00
     15.256  0.4449E-02  0.1182E+00
     15.374  0.3096E-02  0.1186E+00
     15.492  0.2601E-02  0.1190E+00
     15.610  0.2187E-02  0.1193E+00
     15.728  0.1899E-02  0.1195E+00
     15.846  0.1819E-02  0.1197E+00
     15.964  0.8541E-03  0.1199E+00
     16.083  0.3070E-03  0.1200E+00
     16.201  0.6125E-04  0.1200E+00
     16.319  0.1560E-04  0.1200E+00
     16.437  0.2352E-07  0.1200E+00
     16.555  0.0000E+00  0.1200E+00
     16.673  0.0000E+00  0.1200E+00
     16.791  0.0000E+00  0.1200E+00
     16.909  0.0000E+00  0.1200E+00
     17.027  0.0000E+00  0.1200E+00
     17.145  0.0000E+00  0.1200E+00
     17.263  0.0000E+00  0.1200E+00
     17.381  0.0000E+00  0.1200E+00
     17.499  0.0000E+00  0.1200E+00
     17.617  0.0000E+00  0.1200E+00
     17.735  0.0000E+00  0.1200E+00
     17.853  0.0000E+00  0.1200E+00
     17.971  0.0000E+00  0.1200E+00
     18.089  0.0000E+00  0.1200E+00
     18.207  0.0000E+00  0.1200E+00
     18.325  0.0000E+00  0.1200E+00
     18.443  0.0000E+00  0.1200E+00
