    4    4  200    1
  0.8863011E+01  0.2467155E-09  0.2467155E-09  0.6725742E-09  0.5000000E-15
  1.000000000000000E-004
  CAR 
 graphite                                
     16    455     12
 
  0.0000000E+00  0.0000000E+00  0.0000000E+00  0.3858025E-03
    1      -14.969339
    2      -14.674493
    3       -3.832912
    4       -1.889923
    5        1.646562
    6        1.651250
    7        1.664635
    8        1.669308
    9        8.938501
   10       12.970148
   11       12.975486
   12       13.023291
 
  0.5555556E-01 -0.1040834E-16  0.0000000E+00  0.1543210E-02
    1      -14.895792
    2      -14.602199
    3       -3.743614
    4       -1.806431
    5        1.348289
    6        1.373783
    7        1.488995
    8        1.512249
    9        9.027226
   10       13.002169
   11       13.066823
   12       13.286766
 
  0.1111111E+00 -0.2081668E-16  0.0000000E+00  0.1543210E-02
    1      -14.675353
    2      -14.385673
    3       -3.476572
    4       -1.557025
    5        0.521447
    6        0.563857
    7        1.069582
    8        1.101622
    9        9.294087
   10       13.019153
   11       13.128814
   12       14.221757
 
  0.1666667E+00 -0.4163336E-16  0.0000000E+00  0.1543210E-02
    1      -14.309217
    2      -14.025991
    3       -3.034374
    4       -1.145779
    5       -0.663965
    6       -0.600623
    7        0.507474
    8        0.547102
    9        9.739304
   10       12.918458
   11       13.098313
   12       13.807036
 
  0.2222222E+00 -0.1387779E-16  0.0000000E+00  0.1543210E-02
    1      -13.799274
    2      -13.525073
    3       -2.422088
    4       -2.049816
    5       -1.964013
    6       -0.580579
    7       -0.088838
    8       -0.043595
    9       10.360282
   10       12.371168
   11       12.709528
   12       12.952768
 
  0.2777778E+00  0.0000000E+00  0.0000000E+00  0.1543210E-02
    1      -13.148669
    2      -12.885869
    3       -3.521340
    4       -3.412625
    5       -1.649282
    6       -0.643354
    7       -0.594563
    8        0.122993
    9       10.779006
   10       11.147483
   11       11.497497
   12       12.459606
 
  0.3333333E+00 -0.2775558E-16  0.0000000E+00  0.1543210E-02
    1      -12.362626
    2      -12.113518
    3       -5.001122
    4       -4.869791
    5       -1.108820
    6       -1.057632
    7       -0.733474
    8        0.933440
    9        9.157443
   10       10.043798
   11       12.007341
   12       12.264984
 
  0.3888889E+00 -0.5551115E-16  0.0000000E+00  0.1543210E-02
    1      -11.450652
    2      -11.218550
    3       -6.433477
    4       -6.281624
    5       -1.457329
    6       -1.404329
    7        0.286623
    8        1.774199
    9        7.653975
   10        8.638122
   11       12.003004
   12       12.347172
 
  0.4444444E+00 -0.2775558E-16  0.0000000E+00  0.1543210E-02
    1      -10.440864
    2      -10.233812
    3       -7.757022
    4       -7.593690
    5       -1.672156
    6       -1.617978
    7        1.305664
    8        2.429599
    9        6.528453
   10        7.427483
   11       11.886914
   12       12.266508
 
  0.5000000E+00 -0.5551115E-16  0.0000000E+00  0.7716049E-03
    1       -9.646470
    2       -9.536492
    3       -8.570536
    4       -8.487699
    5       -1.744495
    6       -1.689937
    7        1.897059
    8        2.574931
    9        6.164203
   10        6.829067
   11       11.846176
   12       12.234479
 
  0.5555556E-01  0.5555556E-01  0.0000000E+00  0.7716049E-03
    1      -14.748781
    2      -14.457780
    3       -3.565446
    4       -1.639961
    5        0.817663
    6        0.842868
    7        1.177201
    8        1.197517
    9        9.205206
   10       13.104917
   11       13.188272
   12       13.824895
 
  0.1111111E+00  0.5555556E-01  0.0000000E+00  0.1543210E-02
    1      -14.455472
    2      -14.169681
    3       -3.210756
    4       -1.309506
    5       -0.135751
    6       -0.092532
    7        0.631769
    8        0.662756
    9        9.562120
   10       13.193713
   11       13.327706
   12       14.316479
 
  0.1666667E+00  0.5555556E-01  0.0000000E+00  0.1543210E-02
    1      -14.017427
    2      -13.739360
    3       -2.683246
    4       -1.381597
    5       -1.312659
    6       -0.820835
    7        0.006908
    8        0.049409
    9       10.097052
   10       13.003966
   11       13.104440
   12       13.316269
 
  0.2222222E+00  0.5555556E-01  0.0000000E+00  0.1543210E-02
    1      -13.437172
    2      -13.169263
    3       -2.785067
    4       -2.691233
    5       -1.989880
    6       -0.597073
    7       -0.546907
    8       -0.184894
    9       10.805613
   10       11.513545
   11       12.106344
   12       12.895175
 
  0.2777778E+00  0.5555556E-01  0.0000000E+00  0.1543210E-02
    1      -12.718608
    2      -12.463357
    3       -4.246190
    4       -4.128388
    5       -1.143485
    6       -1.123521
    7       -1.068549
    8        0.576929
    9        9.921235
   10       10.691910
   11       11.672903
   12       12.658317
 
  0.3333333E+00  0.5555556E-01  0.0000000E+00  0.1543210E-02
    1      -11.868967
    2      -11.629033
    3       -5.694814
    4       -5.554744
    5       -1.539471
    6       -1.481484
    7       -0.169271
    8        1.417296
    9        8.357705
   10        9.272685
   11       12.381621
   12       12.620738
 
  0.3888889E+00  0.5555556E-01  0.0000000E+00  0.1543210E-02
    1      -10.903053
    2      -10.682387
    3       -7.075040
    4       -6.916511
    5       -1.825582
    6       -1.765769
    7        0.872199
    8        2.209928
    9        7.008078
   10        7.953705
   11       12.259873
   12       12.633273
 
  0.4444444E+00  0.5555556E-01  0.0000000E+00  0.1543210E-02
    1       -9.894835
    2       -9.718812
    3       -8.267897
    4       -8.120478
    5       -1.971117
    6       -1.910450
    7        1.781170
    8        2.626725
    9        6.239353
   10        6.962928
   11       12.179898
   12       12.574526
 
  0.5000000E+00  0.5555556E-01  0.0000000E+00  0.1543210E-02
    1       -9.895010
    2       -9.718970
    3       -8.267723
    4       -8.120287
    5       -1.971152
    6       -1.910485
    7        1.781113
    8        2.626733
    9        6.239356
   10        6.962923
   11       12.179980
   12       12.574617
 
 -0.4444444E+00  0.5555556E-01  0.0000000E+00  0.1543210E-02
    1      -10.903248
    2      -10.682580
    3       -7.074805
    4       -6.916277
    5       -1.825680
    6       -1.765868
    7        0.872107
    8        2.209900
    9        7.008077
   10        7.953663
   11       12.260127
   12       12.633551
 
 -0.3888889E+00  0.5555556E-01  0.0000000E+00  0.1543210E-02
    1      -11.869142
    2      -11.629208
    3       -5.694591
    4       -5.554527
    5       -1.539602
    6       -1.481620
    7       -0.169368
    8        1.417246
    9        8.357661
   10        9.272582
   11       12.382029
   12       12.620985
 
 -0.3333333E+00  0.5555556E-01  0.0000000E+00  0.1543210E-02
    1      -12.718758
    2      -12.463506
    3       -4.246033
    4       -4.128245
    5       -1.143576
    6       -1.123624
    7       -1.068664
    8        0.576873
    9        9.921112
   10       10.691730
   11       11.672793
   12       12.658968
 
 -0.2777778E+00  0.5555556E-01  0.0000000E+00  0.1543210E-02
    1      -13.437296
    2      -13.169386
    3       -2.785080
    4       -2.691278
    5       -1.989959
    6       -0.597016
    7       -0.546880
    8       -0.184948
    9       10.805493
   10       11.513318
   11       12.106087
   12       12.896116
 
 -0.2222222E+00  0.5555556E-01  0.0000000E+00  0.1543210E-02
    1      -14.017523
    2      -13.739456
    3       -2.683311
    4       -1.382011
    5       -1.313147
    6       -0.820881
    7        0.007409
    8        0.049835
    9       10.096954
   10       13.003656
   11       13.105810
   12       13.317550
 
 -0.1666667E+00  0.5555556E-01  0.0000000E+00  0.1543210E-02
    1      -14.455541
    2      -14.169750
    3       -3.210804
    4       -1.309541
    5       -0.137073
    6       -0.093990
    7        0.633269
    8        0.664111
    9        9.562048
   10       13.195848
   11       13.329968
   12       14.274419
 
 -0.1111111E+00  0.5555556E-01  0.0000000E+00  0.1543210E-02
    1      -14.748822
    2      -14.457822
    3       -3.565475
    4       -1.639983
    5        0.814616
    6        0.839830
    7        1.180307
    8        1.200615
    9        9.205161
   10       13.108076
   11       13.191434
   12       13.813069
 
 -0.5555556E-01  0.5555556E-01  0.0000000E+00  0.7716049E-03
    1      -14.895806
    2      -14.602213
    3       -3.743623
    4       -1.806438
    5        1.344880
    6        1.370389
    7        1.492430
    8        1.515683
    9        9.027210
   10       13.004816
   11       13.069481
   12       13.294572
 
  0.1111111E+00  0.1111111E+00  0.0000000E+00  0.7716049E-03
    1      -14.090310
    2      -13.810917
    3       -2.770518
    4       -1.034314
    5       -0.995018
    6       -0.901328
    7       -0.070490
    8       -0.042782
    9       10.010117
   10       13.250773
   11       13.611150
   12       13.649073
 
  0.1666667E+00  0.1111111E+00  0.0000000E+00  0.1543210E-02
    1      -13.581926
    2      -13.311488
    3       -2.182717
    4       -2.161263
    5       -2.120025
    6       -0.818190
    7       -0.775674
    8       -0.340348
    9       10.635461
   10       11.976462
   11       12.426115
   12       13.767228
 
  0.2222222E+00  0.1111111E+00  0.0000000E+00  0.1543210E-02
    1      -12.933627
    2      -12.674582
    3       -3.510940
    4       -3.416505
    5       -1.466744
    6       -1.408328
    7       -1.392061
    8        0.358823
    9       10.529415
   10       11.118618
   11       11.432356
   12       13.634409
 
  0.2777778E+00  0.1111111E+00  0.0000000E+00  0.1543210E-02
    1      -12.150909
    2      -11.905891
    3       -4.908702
    4       -4.786808
    5       -1.980541
    6       -1.912882
    7       -0.480198
    8        1.166341
    9        9.016454
   10        9.765659
   11       12.386728
   12       13.429258
 
  0.3333333E+00  0.1111111E+00  0.0000000E+00  0.1543210E-02
    1      -11.244039
    2      -11.015774
    3       -6.293219
    4       -6.148103
    5       -2.352344
    6       -2.279739
    7        0.537659
    8        2.010654
    9        7.580043
   10        8.439929
   11       13.192127
   12       13.450772
 
  0.3888889E+00  0.1111111E+00  0.0000000E+00  0.1543210E-02
    1      -10.242145
    2      -10.038857
    3       -7.587960
    4       -7.429777
    5       -2.577768
    6       -2.502439
    7        1.560697
    8        2.682718
    9        6.483519
   10        7.268180
   11       13.099925
   12       13.520545
 
  0.4444444E+00  0.1111111E+00  0.0000000E+00  0.1543210E-02
    1       -9.457833
    2       -9.349686
    3       -8.387043
    4       -8.307757
    5       -2.653310
    6       -2.577223
    7        2.163521
    8        2.835484
    9        6.145844
   10        6.653558
   11       13.059132
   12       13.492816
 
  0.5000000E+00  0.1111111E+00  0.0000000E+00  0.1543210E-02
    1      -10.242529
    2      -10.039213
    3       -7.587525
    4       -7.429336
    5       -2.577765
    6       -2.502543
    7        1.560540
    8        2.682704
    9        6.483506
   10        7.268128
   11       13.100240
   12       13.520902
 
 -0.4444444E+00  0.1111111E+00  0.0000000E+00  0.1543210E-02
    1      -11.244410
    2      -11.016142
    3       -6.292780
    4       -6.147674
    5       -2.352502
    6       -2.279908
    7        0.537473
    8        2.010578
    9        7.579960
   10        8.439767
   11       13.192759
   12       13.451211
 
 -0.3888889E+00  0.1111111E+00  0.0000000E+00  0.1543210E-02
    1      -12.151234
    2      -11.906215
    3       -4.908378
    4       -4.786509
    5       -1.980646
    6       -1.913013
    7       -0.480382
    8        1.166238
    9        9.016226
   10        9.765358
   11       12.386434
   12       13.430244
 
 -0.3333333E+00  0.1111111E+00  0.0000000E+00  0.1543210E-02
    1      -12.933900
    2      -12.674854
    3       -3.510944
    4       -3.416570
    5       -1.466543
    6       -1.408188
    7       -1.392229
    8        0.358716
    9       10.528980
   10       11.118177
   11       11.432070
   12       13.636065
 
 -0.2777778E+00  0.1111111E+00  0.0000000E+00  0.1543210E-02
    1      -13.582145
    2      -13.311707
    3       -2.183503
    4       -2.161406
    5       -2.120914
    6       -0.817185
    7       -0.774775
    8       -0.340446
    9       10.635227
   10       11.975794
   11       12.425572
   12       13.770034
 
 -0.2222222E+00  0.1111111E+00  0.0000000E+00  0.1543210E-02
    1      -14.090475
    2      -13.811081
    3       -2.770630
    4       -1.036483
    5       -0.997172
    6       -0.901408
    7       -0.068194
    8       -0.040484
    9       10.009939
   10       13.249897
   11       13.611203
   12       13.679551
 
 -0.1666667E+00  0.1111111E+00  0.0000000E+00  0.1543210E-02
    1      -14.455582
    2      -14.169791
    3       -3.210832
    4       -1.309562
    5       -0.138977
    6       -0.095728
    7        0.635142
    8        0.666144
    9        9.561999
   10       13.197962
   11       13.331942
   12       14.270488
 
 -0.1111111E+00  0.1111111E+00  0.0000000E+00  0.7716049E-03
    1      -14.675408
    2      -14.385728
    3       -3.476610
    4       -1.557054
    5        0.518229
    6        0.560652
    7        1.072931
    8        1.104971
    9        9.294024
   10       13.022258
   11       13.131877
   12       14.203369
 
  0.1666667E+00  0.1666667E+00  0.0000000E+00  0.7716049E-03
    1      -13.005499
    2      -12.745226
    3       -3.098317
    4       -3.044642
    5       -1.735638
    6       -1.696487
    7       -1.475381
    8        0.285404
    9       10.781662
   10       11.256219
   11       11.349148
   12       14.562211
 
  0.2222222E+00  0.1666667E+00  0.0000000E+00  0.1543210E-02
    1      -12.292811
    2      -12.045169
    3       -4.223813
    4       -4.140885
    5       -2.508636
    6       -2.449222
    7       -0.637612
    8        1.037279
    9        9.458739
   10       10.015877
   11       12.229732
   12       14.745491
 
  0.2777778E+00  0.1666667E+00  0.0000000E+00  0.1543210E-02
    1      -11.451795
    2      -11.219405
    3       -5.494875
    4       -5.375720
    5       -3.051355
    6       -2.971886
    7        0.328687
    8        1.874627
    9        8.088057
   10        8.767148
   11       13.262834
   12       14.593190
 
  0.3333333E+00  0.1666667E+00  0.0000000E+00  0.1543210E-02
    1      -10.499009
    2      -10.286013
    3       -6.780864
    4       -6.636428
    5       -3.392963
    6       -3.303956
    7        1.369381
    8        2.687897
    9        6.839025
   10        7.572526
   11       14.333829
   12       14.516954
 
  0.3888889E+00  0.1666667E+00  0.0000000E+00  0.1543210E-02
    1       -9.509483
    2       -9.340307
    3       -7.922387
    4       -7.785315
    5       -3.559371
    6       -3.466538
    7        2.299845
    8        3.144333
    9        6.120159
   10        6.594599
   11       14.331761
   12       14.858922
 
  0.4444444E+00  0.1666667E+00  0.0000000E+00  0.1543210E-02
    1       -9.509996
    2       -9.340770
    3       -7.921901
    4       -7.784778
    5       -3.559410
    6       -3.466583
    7        2.299689
    8        3.144371
    9        6.120102
   10        6.594562
   11       14.331968
   12       14.859205
 
  0.5000000E+00  0.1666667E+00  0.0000000E+00  0.1543210E-02
    1      -10.499586
    2      -10.286583
    3       -6.780256
    4       -6.635832
    5       -3.393036
    6       -3.304048
    7        1.369135
    8        2.687842
    9        6.838866
   10        7.572338
   11       14.333970
   12       14.515563
 
 -0.4444444E+00  0.1666667E+00  0.0000000E+00  0.1543210E-02
    1      -11.452314
    2      -11.219917
    3       -5.494366
    4       -5.375345
    5       -3.051265
    6       -2.971822
    7        0.328425
    8        1.874507
    9        8.087685
   10        8.766779
   11       13.262255
   12       14.594403
 
 -0.3888889E+00  0.1666667E+00  0.0000000E+00  0.1543210E-02
    1      -12.293259
    2      -12.045615
    3       -4.223984
    4       -4.141141
    5       -2.508001
    6       -2.448681
    7       -0.637864
    8        1.037135
    9        9.458054
   10       10.015337
   11       12.229222
   12       14.748020
 
 -0.3333333E+00  0.1666667E+00  0.0000000E+00  0.1543210E-02
    1      -13.005868
    2      -12.745594
    3       -3.099659
    4       -3.045961
    5       -1.733978
    6       -1.694816
    7       -1.475605
    8        0.285260
    9       10.780636
   10       11.255538
   11       11.348734
   12       14.567654
 
 -0.2777778E+00  0.1666667E+00  0.0000000E+00  0.1543210E-02
    1      -13.582214
    2      -13.311775
    3       -2.185052
    4       -2.161448
    5       -2.122308
    6       -0.815565
    7       -0.773008
    8       -0.340474
    9       10.635143
   10       11.975209
   11       12.425331
   12       13.772864
 
 -0.2222222E+00  0.1666667E+00  0.0000000E+00  0.1543210E-02
    1      -14.017633
    2      -13.739565
    3       -2.683383
    4       -1.384417
    5       -1.315474
    6       -0.820931
    7        0.010087
    8        0.052581
    9       10.096824
   10       13.002708
   11       13.108958
   12       13.320652
 
 -0.1666667E+00  0.1666667E+00  0.0000000E+00  0.7716049E-03
    1      -14.309340
    2      -14.026114
    3       -3.034458
    4       -1.145840
    5       -0.666902
    6       -0.603548
    7        0.510721
    8        0.550350
    9        9.739162
   10       12.922022
   11       13.101810
   12       13.805305
 
  0.2222222E+00  0.2222222E+00  0.0000000E+00  0.7716049E-03
    1      -11.521321
    2      -11.287784
    3       -5.017097
    4       -4.949051
    5       -3.470692
    6       -3.419749
    7        0.257809
    8        1.826714
    9        8.309314
   10        8.869245
   11       13.183240
   12       15.858086
 
  0.2777778E+00  0.2222222E+00  0.0000000E+00  0.1543210E-02
    1      -10.631470
    2      -10.414781
    3       -6.033261
    4       -5.931109
    5       -4.141605
    6       -4.065366
    7        1.263392
    8        2.674770
    9        7.122941
   10        7.741154
   11       14.270018
   12       15.906120
 
  0.3333333E+00  0.2222222E+00  0.0000000E+00  0.1543210E-02
    1       -9.654465
    2       -9.462623
    3       -7.158432
    4       -7.025355
    5       -4.493686
    6       -4.396244
    7        2.298228
    8        3.413457
    9        6.109563
   10        6.691308
   11       15.425392
   12       15.784030
 
  0.3888889E+00  0.2222222E+00  0.0000000E+00  0.1543210E-02
    1       -8.892570
    2       -8.790222
    3       -7.898889
    4       -7.840628
    5       -4.601249
    6       -4.498293
    7        2.952947
    8        3.603554
    9        5.927548
   10        5.929103
   11       15.694656
   12       16.439985
 
  0.4444444E+00  0.2222222E+00  0.0000000E+00  0.1543210E-02
    1       -9.655225
    2       -9.463363
    3       -7.157756
    4       -7.024691
    5       -4.493589
    6       -4.396180
    7        2.297981
    8        3.413498
    9        6.109268
   10        6.691140
   11       15.424600
   12       15.783987
 
  0.5000000E+00  0.2222222E+00  0.0000000E+00  0.1543210E-02
    1      -10.632198
    2      -10.415504
    3       -6.032936
    4       -5.930848
    5       -4.141123
    6       -4.064965
    7        1.263089
    8        2.674693
    9        7.122358
   10        7.740771
   11       14.269088
   12       15.907172
 
 -0.4444444E+00  0.2222222E+00  0.0000000E+00  0.1543210E-02
    1      -11.521964
    2      -11.288424
    3       -5.017744
    4       -4.949665
    5       -3.469391
    6       -3.418435
    7        0.257495
    8        1.826572
    9        8.308340
   10        8.868666
   11       13.182457
   12       15.863526
 
 -0.3888889E+00  0.2222222E+00  0.0000000E+00  0.1543210E-02
    1      -12.293354
    2      -12.045710
    3       -4.225364
    4       -4.142371
    5       -2.506509
    6       -2.447046
    7       -0.637908
    8        1.037113
    9        9.457401
   10       10.015092
   11       12.229100
   12       14.751555
 
 -0.3333333E+00  0.2222222E+00  0.0000000E+00  0.1543210E-02
    1      -12.934063
    2      -12.675018
    3       -3.512996
    4       -3.418542
    5       -1.464085
    6       -1.405660
    7       -1.392318
    8        0.358662
    9       10.527847
   10       11.117641
   11       11.431870
   12       13.639726
 
 -0.2777778E+00  0.2222222E+00  0.0000000E+00  0.1543210E-02
    1      -13.437501
    2      -13.169590
    3       -2.787473
    4       -2.693635
    5       -1.990083
    6       -0.594051
    7       -0.543890
    8       -0.185030
    9       10.805255
   10       11.511922
   11       12.105305
   12       12.899752
 
 -0.2222222E+00  0.2222222E+00  0.0000000E+00  0.7716049E-03
    1      -13.799494
    2      -13.525291
    3       -2.422228
    4       -2.052442
    5       -1.966627
    6       -0.580676
    7       -0.085663
    8       -0.040420
    9       10.360035
   10       12.369722
   11       12.713438
   12       12.928746
 
  0.2777778E+00  0.2777778E+00  0.0000000E+00  0.7716049E-03
    1       -9.710505
    2       -9.514476
    3       -6.653936
    4       -6.572390
    5       -5.007240
    6       -4.950502
    7        2.286239
    8        3.511833
    9        6.117505
   10        6.745340
   11       15.360371
   12       16.210314
 
  0.3333333E+00  0.2777778E+00  0.0000000E+00  0.1543210E-02
    1       -8.760209
    2       -8.603163
    3       -7.472112
    4       -7.374688
    5       -5.448064
    6       -5.370567
    7        3.275964
    8        4.135286
    9        5.323863
   10        5.864473
   11       15.971204
   12       16.040536
 
  0.3888889E+00  0.2777778E+00  0.0000000E+00  0.1543210E-02
    1       -8.761013
    2       -8.603894
    3       -7.471612
    4       -7.374145
    5       -5.447773
    6       -5.370317
    7        3.275832
    8        4.135501
    9        5.323447
   10        5.864330
   11       15.971782
   12       16.040501
 
  0.4444444E+00  0.2777778E+00  0.0000000E+00  0.1543210E-02
    1       -9.711424
    2       -9.515383
    3       -6.654024
    4       -6.572436
    5       -5.006192
    6       -4.949433
    7        2.285991
    8        3.511915
    9        6.116676
   10        6.744929
   11       15.359034
   12       16.211085
 
  0.5000000E+00  0.2777778E+00  0.0000000E+00  0.1543210E-02
    1      -10.632318
    2      -10.415624
    3       -6.034156
    4       -5.931930
    5       -4.139788
    6       -4.063491
    7        1.263080
    8        2.674710
    9        7.121708
   10        7.740504
   11       14.268922
   12       15.911632
 
 -0.4444444E+00  0.2777778E+00  0.0000000E+00  0.1543210E-02
    1      -11.452529
    2      -11.220132
    3       -5.496150
    4       -5.377057
    5       -3.049034
    6       -2.969527
    7        0.328359
    8        1.874492
    9        8.086500
   10        8.766221
   11       13.261977
   12       14.598643
 
 -0.3888889E+00  0.2777778E+00  0.0000000E+00  0.1543210E-02
    1      -12.151518
    2      -11.906499
    3       -4.910425
    4       -4.788519
    5       -1.977886
    6       -1.910226
    7       -0.480507
    8        1.166178
    9        9.014687
   10        9.764490
   11       12.386115
   12       13.434357
 
 -0.3333333E+00  0.2777778E+00  0.0000000E+00  0.1543210E-02
    1      -12.719084
    2      -12.463832
    3       -4.248232
    4       -4.130423
    5       -1.143748
    6       -1.120566
    7       -1.065597
    8        0.576773
    9        9.919382
   10       10.690638
   11       11.672477
   12       12.662882
 
 -0.2777778E+00  0.2777778E+00  0.0000000E+00  0.7716049E-03
    1      -13.149011
    2      -12.886210
    3       -3.523648
    4       -3.414922
    5       -1.649482
    6       -0.640221
    7       -0.591430
    8        0.122867
    9       10.777242
   10       11.147138
   11       11.496338
   12       12.463693
 
  0.3333333E+00  0.3333333E+00  0.0000000E+00  0.7716049E-03
    1       -7.999187
    2       -7.903775
    3       -7.903641
    4       -7.812231
    5       -5.849482
    6       -5.849377
    7        4.024418
    8        4.629787
    9        4.630396
   10        5.355566
   11       15.784476
   12       15.785110
 
  0.3888889E+00  0.3333333E+00  0.0000000E+00  0.1543210E-02
    1       -8.761168
    2       -8.604078
    3       -7.472529
    4       -7.374993
    5       -5.446709
    6       -5.369112
    7        3.276047
    8        4.135521
    9        5.322941
   10        5.863857
   11       15.971993
   12       16.040427
 
  0.4444444E+00  0.3333333E+00  0.0000000E+00  0.1543210E-02
    1       -9.655486
    2       -9.463630
    3       -7.159257
    4       -7.026133
    5       -4.491666
    6       -4.394198
    7        2.298088
    8        3.413575
    9        6.108104
   10        6.690492
   11       15.424394
   12       15.788872
 
  0.5000000E+00  0.3333333E+00  0.0000000E+00  0.1543210E-02
    1      -10.499943
    2      -10.286942
    3       -6.781994
    4       -6.637537
    5       -3.390577
    6       -3.301565
    7        1.369123
    8        2.687884
    9        6.837280
   10        7.571409
   11       14.335791
   12       14.519526
 
 -0.4444444E+00  0.3333333E+00  0.0000000E+00  0.1543210E-02
    1      -11.244839
    2      -11.016571
    3       -6.294646
    4       -6.149519
    5       -2.349660
    6       -2.277055
    7        0.537359
    8        2.010557
    9        7.578125
   10        8.438563
   11       13.196225
   12       13.453010
 
 -0.3888889E+00  0.3333333E+00  0.0000000E+00  0.1543210E-02
    1      -11.869615
    2      -11.629680
    3       -5.696536
    4       -5.556458
    5       -1.536525
    6       -1.478540
    7       -0.169560
    8        1.417164
    9        8.355702
   10        9.271204
   11       12.385320
   12       12.623442
 
 -0.3333333E+00  0.3333333E+00  0.0000000E+00  0.7716049E-03
    1      -12.363115
    2      -12.114006
    3       -5.003121
    4       -4.871780
    5       -1.105707
    6       -1.054521
    7       -0.733716
    8        0.933310
    9        9.155475
   10       10.042389
   11       12.008136
   12       12.268598
 
  0.3888889E+00  0.3888889E+00  0.0000000E+00  0.7716049E-03
    1       -8.893219
    2       -8.790926
    3       -7.900051
    4       -7.841770
    5       -4.599189
    6       -4.496207
    7        2.953336
    8        3.603424
    9        5.926240
   10        5.928055
   11       15.699209
   12       16.443373
 
  0.4444444E+00  0.3888889E+00  0.0000000E+00  0.1543210E-02
    1       -9.510518
    2       -9.341320
    3       -7.923446
    4       -7.786339
    5       -3.556919
    6       -3.464081
    7        2.299939
    8        3.144315
    9        6.118353
   10        6.593174
   11       14.336591
   12       14.863813
 
  0.5000000E+00  0.3888889E+00  0.0000000E+00  0.1543210E-02
    1      -10.243118
    2      -10.039807
    3       -7.589164
    4       -7.430960
    5       -2.574929
    6       -2.499703
    7        1.560575
    8        2.682726
    9        6.481481
   10        7.266545
   11       13.104637
   12       13.525276
 
 -0.4444444E+00  0.3888889E+00  0.0000000E+00  0.1543210E-02
    1      -10.903886
    2      -10.683219
    3       -7.076491
    4       -6.917950
    5       -1.822616
    6       -1.762804
    7        0.871984
    8        2.209886
    9        7.005945
   10        7.951990
   11       12.264332
   12       12.637718
 
 -0.3888889E+00  0.3888889E+00  0.0000000E+00  0.7716049E-03
    1      -11.451310
    2      -11.219207
    3       -6.435188
    4       -6.283324
    5       -1.454223
    6       -1.401225
    7        0.286395
    8        1.774121
    9        7.651858
   10        8.636477
   11       12.007182
   12       12.351262
 
  0.4444444E+00  0.4444444E+00  0.0000000E+00  0.7716049E-03
    1       -9.458662
    2       -9.350573
    3       -8.388362
    4       -8.309078
    5       -2.650517
    6       -2.574429
    7        2.163836
    8        2.835287
    9        6.143952
   10        6.651582
   11       13.063713
   12       13.497426
 
  0.5000000E+00  0.4444444E+00  0.0000000E+00  0.1543210E-02
    1       -9.895806
    2       -9.719782
    3       -8.269182
    4       -8.121736
    5       -1.968117
    6       -1.907451
    7        1.781277
    8        2.626634
    9        6.237247
   10        6.960846
   11       12.184329
   12       12.578970
 
 -0.4444444E+00  0.4444444E+00  0.0000000E+00  0.7716049E-03
    1      -10.441696
    2      -10.234646
    3       -7.758486
    4       -7.595140
    5       -1.669052
    6       -1.614877
    7        1.305602
    8        2.429582
    9        6.526244
   10        7.425531
   11       11.891207
   12       12.270800
 
  0.5000000E+00  0.5000000E+00  0.0000000E+00  0.3858025E-03
    1       -9.647359
    2       -9.537441
    3       -8.571881
    4       -8.489048
    5       -1.741392
    6       -1.686837
    7        1.897345
    8        2.574706
    9        6.162140
   10        6.826775
   11       11.850494
   12       12.238802
 