mesh: [     9,     9,     4 ]
nqpoint: 50     
reciprocal_lattice:
- [   0.40533564,   0.23404500,   0.00000000 ] # a*
- [   0.00002110,   0.46805346,   0.00000000 ] # b*
- [   0.00000000,   0.00000000,   0.14868247 ] # c*
natom:   4      
lattice:
- [     2.467155442383188,    -0.000111200019553,     0.000000000000000 ] # a
- [    -1.233674023183305,     2.136563688137034,     0.000000000000000 ] # b
- [     0.000000000000000,     0.000000000000000,     6.725742312440266 ] # c
points:
- symbol: C  # 1
  coordinates: [  0.999999697166835,  0.000000349172772,  0.250000000000000 ]
  mass: 12.010700
- symbol: C  # 2
  coordinates: [  0.000000349172772,  0.999999697166835,  0.750000000000000 ]
  mass: 12.010700
- symbol: C  # 3
  coordinates: [  0.333298929956719,  0.666701052703672,  0.250000000000000 ]
  mass: 12.010700
- symbol: C  # 4
  coordinates: [  0.666701052703672,  0.333298929956719,  0.750000000000000 ]
  mass: 12.010700
phonon:
- q-position: [    0.0000000,    0.0000000,    0.1250000 ]
  weight: 2    
  band:
  - # 1
    frequency:    -5.2383913654
  - # 2
    frequency:    -4.5444200557
  - # 3
    frequency:    -1.1872864004
  - # 4
    frequency:    -1.1106295602
  - # 5
    frequency:     0.7900652507
  - # 6
    frequency:     3.7513161238
  - # 7
    frequency:    24.6001875791
  - # 8
    frequency:    26.1318773108
  - # 9
    frequency:    44.8972344131
  - # 10
    frequency:    44.9037966558
  - # 11
    frequency:    45.2493328028
  - # 12
    frequency:    45.3928556970

- q-position: [    0.1111111,    0.0000000,    0.1250000 ]
  weight: 8    
  band:
  - # 1
    frequency:     3.8422326895
  - # 2
    frequency:     4.1075067399
  - # 3
    frequency:     5.5204053107
  - # 4
    frequency:     5.9330898935
  - # 5
    frequency:    10.3354699213
  - # 6
    frequency:    11.4506199471
  - # 7
    frequency:    24.1297156310
  - # 8
    frequency:    25.5361919911
  - # 9
    frequency:    44.6005448502
  - # 10
    frequency:    45.0066867395
  - # 11
    frequency:    45.0158338467
  - # 12
    frequency:    45.3746267506

- q-position: [    0.2222222,    0.0000000,    0.1250000 ]
  weight: 8    
  band:
  - # 1
    frequency:     7.8308103607
  - # 2
    frequency:     8.6940477630
  - # 3
    frequency:    10.7207994582
  - # 4
    frequency:    11.5064698965
  - # 5
    frequency:    21.5408330328
  - # 6
    frequency:    22.0704405959
  - # 7
    frequency:    22.8227273203
  - # 8
    frequency:    23.8847036728
  - # 9
    frequency:    43.7715720725
  - # 10
    frequency:    44.0981488986
  - # 11
    frequency:    45.0565230507
  - # 12
    frequency:    45.3328594227

- q-position: [    0.3333333,    0.0000000,    0.1250000 ]
  weight: 8    
  band:
  - # 1
    frequency:    11.1489193392
  - # 2
    frequency:    11.7435275438
  - # 3
    frequency:    15.5364828112
  - # 4
    frequency:    15.9220932702
  - # 5
    frequency:    20.9779776246
  - # 6
    frequency:    21.5707771179
  - # 7
    frequency:    30.6837224055
  - # 8
    frequency:    30.9885378109
  - # 9
    frequency:    42.6833073554
  - # 10
    frequency:    42.8805969385
  - # 11
    frequency:    44.3445702227
  - # 12
    frequency:    44.5009252709

- q-position: [    0.4444444,    0.0000000,    0.1250000 ]
  weight: 8    
  band:
  - # 1
    frequency:    13.6942543092
  - # 2
    frequency:    14.0364896989
  - # 3
    frequency:    18.3133186819
  - # 4
    frequency:    18.4323750350
  - # 5
    frequency:    19.1953717447
  - # 6
    frequency:    19.3638913961
  - # 7
    frequency:    37.5670058470
  - # 8
    frequency:    37.7055532159
  - # 9
    frequency:    41.8690317961
  - # 10
    frequency:    41.9327345187
  - # 11
    frequency:    42.0899388294
  - # 12
    frequency:    42.1216953994

- q-position: [    0.1111111,    0.1111111,    0.1250000 ]
  weight: 4    
  band:
  - # 1
    frequency:     7.1676943767
  - # 2
    frequency:     8.0039449530
  - # 3
    frequency:     9.8268619629
  - # 4
    frequency:    10.7309691566
  - # 5
    frequency:    18.3705441593
  - # 6
    frequency:    19.0622192504
  - # 7
    frequency:    23.1737118951
  - # 8
    frequency:    24.3291969657
  - # 9
    frequency:    44.1199112883
  - # 10
    frequency:    44.4943463669
  - # 11
    frequency:    44.9980643011
  - # 12
    frequency:    45.2964291810

- q-position: [    0.2222222,    0.1111111,    0.1250000 ]
  weight: 8    
  band:
  - # 1
    frequency:    10.4034953753
  - # 2
    frequency:    10.9481199312
  - # 3
    frequency:    15.4386576096
  - # 4
    frequency:    15.9849985167
  - # 5
    frequency:    21.5315116136
  - # 6
    frequency:    22.2632438886
  - # 7
    frequency:    26.8947672812
  - # 8
    frequency:    27.3317790472
  - # 9
    frequency:    43.3335665382
  - # 10
    frequency:    43.5867158425
  - # 11
    frequency:    44.5001888538
  - # 12
    frequency:    44.7367175351

- q-position: [    0.3333333,    0.1111111,    0.1250000 ]
  weight: 8    
  band:
  - # 1
    frequency:    13.1915951368
  - # 2
    frequency:    13.5350151938
  - # 3
    frequency:    19.4392192781
  - # 4
    frequency:    19.6161162122
  - # 5
    frequency:    19.7681437877
  - # 6
    frequency:    19.8801482223
  - # 7
    frequency:    34.0880815951
  - # 8
    frequency:    34.3514159008
  - # 9
    frequency:    42.2643009581
  - # 10
    frequency:    42.4179687143
  - # 11
    frequency:    43.1757876982
  - # 12
    frequency:    43.2852706444

- q-position: [   -0.5555556,    0.1111111,    0.1250000 ]
  weight: 8    
  band:
  - # 1
    frequency:    14.4175364994
  - # 2
    frequency:    14.7203539527
  - # 3
    frequency:    18.5908611794
  - # 4
    frequency:    18.6355012689
  - # 5
    frequency:    20.9752956379
  - # 6
    frequency:    21.1108400136
  - # 7
    frequency:    39.2508409283
  - # 8
    frequency:    39.3176760117
  - # 9
    frequency:    39.5266998650
  - # 10
    frequency:    39.5972172946
  - # 11
    frequency:    42.4862531468
  - # 12
    frequency:    42.5096657656

- q-position: [   -0.4444444,    0.1111111,    0.1250000 ]
  weight: 8    
  band:
  - # 1
    frequency:    12.5296647769
  - # 2
    frequency:    13.1349778857
  - # 3
    frequency:    19.5626088628
  - # 4
    frequency:    19.6239789358
  - # 5
    frequency:    19.9242105003
  - # 6
    frequency:    20.2680860430
  - # 7
    frequency:    34.1565348364
  - # 8
    frequency:    34.2702625449
  - # 9
    frequency:    42.3114914743
  - # 10
    frequency:    42.4012077057
  - # 11
    frequency:    43.2084200377
  - # 12
    frequency:    43.2428885306

- q-position: [   -0.3333333,    0.1111111,    0.1250000 ]
  weight: 8    
  band:
  - # 1
    frequency:     9.5763187375
  - # 2
    frequency:    10.4483799224
  - # 3
    frequency:    15.5277101055
  - # 4
    frequency:    15.8378902052
  - # 5
    frequency:    21.8069453547
  - # 6
    frequency:    22.6059574170
  - # 7
    frequency:    26.9931396238
  - # 8
    frequency:    27.2348764204
  - # 9
    frequency:    43.3521771917
  - # 10
    frequency:    43.5602744741
  - # 11
    frequency:    44.5434965066
  - # 12
    frequency:    44.7219714570

- q-position: [   -0.2222222,    0.1111111,    0.1250000 ]
  weight: 8    
  band:
  - # 1
    frequency:     6.3059492954
  - # 2
    frequency:     7.5251898877
  - # 3
    frequency:     9.7687843472
  - # 4
    frequency:    10.6027452491
  - # 5
    frequency:    18.5534145545
  - # 6
    frequency:    18.9506494346
  - # 7
    frequency:    23.3521593211
  - # 8
    frequency:    24.5508944504
  - # 9
    frequency:    44.1263101077
  - # 10
    frequency:    44.4120189452
  - # 11
    frequency:    45.0260396408
  - # 12
    frequency:    45.3574509087

- q-position: [   -0.1111111,    0.1111111,    0.1250000 ]
  weight: 4    
  band:
  - # 1
    frequency:     3.3237555464
  - # 2
    frequency:     3.5453944255
  - # 3
    frequency:     5.2793569691
  - # 4
    frequency:     5.8832741746
  - # 5
    frequency:    10.6117039587
  - # 6
    frequency:    11.3678133569
  - # 7
    frequency:    24.1910991786
  - # 8
    frequency:    25.6125185042
  - # 9
    frequency:    44.6006177522
  - # 10
    frequency:    44.9198435009
  - # 11
    frequency:    45.0194577837
  - # 12
    frequency:    45.4619204988

- q-position: [    0.2222222,    0.2222222,    0.1250000 ]
  weight: 4    
  band:
  - # 1
    frequency:    13.0142545043
  - # 2
    frequency:    13.3529059830
  - # 3
    frequency:    19.7650294031
  - # 4
    frequency:    20.0637324921
  - # 5
    frequency:    21.3613986065
  - # 6
    frequency:    21.6904317990
  - # 7
    frequency:    31.7460260840
  - # 8
    frequency:    32.0317380541
  - # 9
    frequency:    42.7601028510
  - # 10
    frequency:    42.9473790126
  - # 11
    frequency:    43.2349249280
  - # 12
    frequency:    43.3515588962

- q-position: [    0.3333333,    0.2222222,    0.1250000 ]
  weight: 8    
  band:
  - # 1
    frequency:    15.0910400880
  - # 2
    frequency:    15.2974777681
  - # 3
    frequency:    17.9703626918
  - # 4
    frequency:    18.0527550324
  - # 5
    frequency:    25.2991893179
  - # 6
    frequency:    25.4977832924
  - # 7
    frequency:    35.8996813202
  - # 8
    frequency:    36.0584145121
  - # 9
    frequency:    39.8161492926
  - # 10
    frequency:    39.9179684564
  - # 11
    frequency:    43.3194003667
  - # 12
    frequency:    43.3303559911

- q-position: [   -0.5555556,    0.2222222,    0.1250000 ]
  weight: 8    
  band:
  - # 1
    frequency:    14.3485997692
  - # 2
    frequency:    14.8513891009
  - # 3
    frequency:    18.4637638629
  - # 4
    frequency:    18.5281187331
  - # 5
    frequency:    25.3445070610
  - # 6
    frequency:    25.4406332087
  - # 7
    frequency:    35.9605254960
  - # 8
    frequency:    35.9847978052
  - # 9
    frequency:    39.8472198529
  - # 10
    frequency:    39.9052076521
  - # 11
    frequency:    43.3069717331
  - # 12
    frequency:    43.3433665023

- q-position: [   -0.4444444,    0.2222222,    0.1250000 ]
  weight: 8    
  band:
  - # 1
    frequency:    11.9432322340
  - # 2
    frequency:    12.6978382273
  - # 3
    frequency:    20.2475879386
  - # 4
    frequency:    20.6686231409
  - # 5
    frequency:    21.4805434176
  - # 6
    frequency:    21.5342989910
  - # 7
    frequency:    31.8643299182
  - # 8
    frequency:    31.8980692391
  - # 9
    frequency:    42.8369653680
  - # 10
    frequency:    42.9136984472
  - # 11
    frequency:    43.2549674284
  - # 12
    frequency:    43.3185813846

- q-position: [   -0.3333333,    0.2222222,    0.1250000 ]
  weight: 8    
  band:
  - # 1
    frequency:     9.3049640923
  - # 2
    frequency:    10.3078829316
  - # 3
    frequency:    15.5068375617
  - # 4
    frequency:    15.8319715927
  - # 5
    frequency:    21.8872296009
  - # 6
    frequency:    22.7077225382
  - # 7
    frequency:    27.0598997590
  - # 8
    frequency:    27.1739463733
  - # 9
    frequency:    43.3604787293
  - # 10
    frequency:    43.5110589708
  - # 11
    frequency:    44.5427264761
  - # 12
    frequency:    44.7680424497

- q-position: [   -0.2222222,    0.2222222,    0.1250000 ]
  weight: 4    
  band:
  - # 1
    frequency:     7.0113651024
  - # 2
    frequency:     8.2512039459
  - # 3
    frequency:    10.6699914942
  - # 4
    frequency:    11.4212240811
  - # 5
    frequency:    21.7066927716
  - # 6
    frequency:    21.9457653652
  - # 7
    frequency:    23.0093987108
  - # 8
    frequency:    24.1185539757
  - # 9
    frequency:    43.7842392076
  - # 10
    frequency:    44.0123911537
  - # 11
    frequency:    45.0750663434
  - # 12
    frequency:    45.3995870400

- q-position: [   -0.6666667,    0.3333333,    0.1250000 ]
  weight: 4    
  band:
  - # 1
    frequency:    16.0810338480
  - # 2
    frequency:    16.3062382248
  - # 3
    frequency:    16.8855396878
  - # 4
    frequency:    17.0444107671
  - # 5
    frequency:    28.8924395641
  - # 6
    frequency:    28.8953609583
  - # 7
    frequency:    36.9699116256
  - # 8
    frequency:    36.9903702025
  - # 9
    frequency:    37.0385592023
  - # 10
    frequency:    37.0638667990
  - # 11
    frequency:    43.6301707225
  - # 12
    frequency:    43.6732312391

- q-position: [   -0.5555556,    0.3333333,    0.1250000 ]
  weight: 8    
  band:
  - # 1
    frequency:    14.3439567426
  - # 2
    frequency:    14.8160553028
  - # 3
    frequency:    18.4842091406
  - # 4
    frequency:    18.5420513054
  - # 5
    frequency:    25.3715253365
  - # 6
    frequency:    25.4143435212
  - # 7
    frequency:    35.9632631483
  - # 8
    frequency:    35.9840739591
  - # 9
    frequency:    39.8693181806
  - # 10
    frequency:    39.8811854355
  - # 11
    frequency:    43.3144652801
  - # 12
    frequency:    43.3349192602

- q-position: [   -0.4444444,    0.3333333,    0.1250000 ]
  weight: 8    
  band:
  - # 1
    frequency:    12.4095087184
  - # 2
    frequency:    13.0867176228
  - # 3
    frequency:    19.5525870010
  - # 4
    frequency:    19.6280085904
  - # 5
    frequency:    19.9732900775
  - # 6
    frequency:    20.3290174282
  - # 7
    frequency:    34.1867180451
  - # 8
    frequency:    34.2391126032
  - # 9
    frequency:    42.3235572353
  - # 10
    frequency:    42.3571952445
  - # 11
    frequency:    43.1911328206
  - # 12
    frequency:    43.2936797246

- q-position: [   -0.3333333,    0.3333333,    0.1250000 ]
  weight: 4    
  band:
  - # 1
    frequency:    10.4968223668
  - # 2
    frequency:    11.3907366415
  - # 3
    frequency:    15.5831641956
  - # 4
    frequency:    15.8321155993
  - # 5
    frequency:    21.2099564424
  - # 6
    frequency:    21.8629995107
  - # 7
    frequency:    30.7912946333
  - # 8
    frequency:    30.8795129993
  - # 9
    frequency:    42.7084545011
  - # 10
    frequency:    42.8134828048
  - # 11
    frequency:    44.3575726902
  - # 12
    frequency:    44.5441897542

- q-position: [   -0.5555556,    0.4444444,    0.1250000 ]
  weight: 4    
  band:
  - # 1
    frequency:    14.3402601443
  - # 2
    frequency:    14.6361666013
  - # 3
    frequency:    18.6484069347
  - # 4
    frequency:    18.7099374995
  - # 5
    frequency:    21.0316030296
  - # 6
    frequency:    21.0515965863
  - # 7
    frequency:    39.2809335109
  - # 8
    frequency:    39.2950807025
  - # 9
    frequency:    39.5317293320
  - # 10
    frequency:    39.5914765653
  - # 11
    frequency:    42.4935566395
  - # 12
    frequency:    42.4958995420

- q-position: [   -0.4444444,    0.4444444,    0.1250000 ]
  weight: 4    
  band:
  - # 1
    frequency:    13.5262750030
  - # 2
    frequency:    13.9695782785
  - # 3
    frequency:    18.3532227360
  - # 4
    frequency:    18.3845625362
  - # 5
    frequency:    19.2732510989
  - # 6
    frequency:    19.4594709686
  - # 7
    frequency:    37.6032346874
  - # 8
    frequency:    37.6676051347
  - # 9
    frequency:    41.8857478293
  - # 10
    frequency:    41.8953976724
  - # 11
    frequency:    42.0728119234
  - # 12
    frequency:    42.1624224336

- q-position: [    0.0000000,    0.0000000,    0.3750000 ]
  weight: 2    
  band:
  - # 1
    frequency:    -4.5325134451
  - # 2
    frequency:    -4.2405370084
  - # 3
    frequency:    -3.1601022621
  - # 4
    frequency:    -3.1088806286
  - # 5
    frequency:     2.2393414183
  - # 6
    frequency:     3.3236404185
  - # 7
    frequency:    25.5986097628
  - # 8
    frequency:    26.2284485817
  - # 9
    frequency:    44.4538156384
  - # 10
    frequency:    44.4718045922
  - # 11
    frequency:    44.6011873350
  - # 12
    frequency:    44.6766387886

- q-position: [    0.1111111,    0.0000000,    0.3750000 ]
  weight: 8    
  band:
  - # 1
    frequency:     4.3023926453
  - # 2
    frequency:     4.6340537421
  - # 3
    frequency:     5.1029802078
  - # 4
    frequency:     5.3314418032
  - # 5
    frequency:    10.6186014377
  - # 6
    frequency:    11.0844130523
  - # 7
    frequency:    25.0425269060
  - # 8
    frequency:    25.6210000228
  - # 9
    frequency:    44.2156192243
  - # 10
    frequency:    44.3896973076
  - # 11
    frequency:    44.6261486720
  - # 12
    frequency:    44.7773960698

- q-position: [    0.2222222,    0.0000000,    0.3750000 ]
  weight: 8    
  band:
  - # 1
    frequency:     8.0630085262
  - # 2
    frequency:     8.4324787425
  - # 3
    frequency:    10.9330545169
  - # 4
    frequency:    11.2595820105
  - # 5
    frequency:    21.6889437397
  - # 6
    frequency:    21.9088730651
  - # 7
    frequency:    23.5024181699
  - # 8
    frequency:    23.9393828308
  - # 9
    frequency:    43.5163689735
  - # 10
    frequency:    43.6526580886
  - # 11
    frequency:    44.8086280937
  - # 12
    frequency:    44.9235554212

- q-position: [    0.3333333,    0.0000000,    0.3750000 ]
  weight: 8    
  band:
  - # 1
    frequency:    11.2853192289
  - # 2
    frequency:    11.5338377352
  - # 3
    frequency:    15.6586815431
  - # 4
    frequency:    15.8184664133
  - # 5
    frequency:    21.3451417304
  - # 6
    frequency:    21.5891787201
  - # 7
    frequency:    30.7907266484
  - # 8
    frequency:    30.9169454394
  - # 9
    frequency:    42.5822989417
  - # 10
    frequency:    42.6642104026
  - # 11
    frequency:    44.2336426569
  - # 12
    frequency:    44.2984405638

- q-position: [    0.4444444,    0.0000000,    0.3750000 ]
  weight: 8    
  band:
  - # 1
    frequency:    13.7870311184
  - # 2
    frequency:    13.9290726764
  - # 3
    frequency:    18.3506755659
  - # 4
    frequency:    18.3999836732
  - # 5
    frequency:    19.2800426478
  - # 6
    frequency:    19.3495667900
  - # 7
    frequency:    37.6249020157
  - # 8
    frequency:    37.6821915764
  - # 9
    frequency:    41.8676026642
  - # 10
    frequency:    41.8939796896
  - # 11
    frequency:    42.0639822674
  - # 12
    frequency:    42.0770548817

- q-position: [    0.1111111,    0.1111111,    0.3750000 ]
  weight: 4    
  band:
  - # 1
    frequency:     7.4367873983
  - # 2
    frequency:     7.7974787814
  - # 3
    frequency:     9.9913337672
  - # 4
    frequency:    10.3704190111
  - # 5
    frequency:    18.5463419457
  - # 6
    frequency:    18.8334291206
  - # 7
    frequency:    23.9116951120
  - # 8
    frequency:    24.3873293842
  - # 9
    frequency:    43.8405642015
  - # 10
    frequency:    43.9969497680
  - # 11
    frequency:    44.7194550196
  - # 12
    frequency:    44.8441487771

- q-position: [    0.2222222,    0.1111111,    0.3750000 ]
  weight: 8    
  band:
  - # 1
    frequency:    10.5674565516
  - # 2
    frequency:    10.7962143389
  - # 3
    frequency:    15.5603756131
  - # 4
    frequency:    15.7875099579
  - # 5
    frequency:    21.9818685871
  - # 6
    frequency:    22.2833169643
  - # 7
    frequency:    27.0060955026
  - # 8
    frequency:    27.1870024426
  - # 9
    frequency:    43.2031306082
  - # 10
    frequency:    43.3082224750
  - # 11
    frequency:    44.3716786710
  - # 12
    frequency:    44.4700127976

- q-position: [    0.3333333,    0.1111111,    0.3750000 ]
  weight: 8    
  band:
  - # 1
    frequency:    13.2946126211
  - # 2
    frequency:    13.4367402222
  - # 3
    frequency:    19.5243632797
  - # 4
    frequency:    19.6601630060
  - # 5
    frequency:    19.7584588070
  - # 6
    frequency:    19.8667803910
  - # 7
    frequency:    34.1646417222
  - # 8
    frequency:    34.2735737903
  - # 9
    frequency:    42.2644458426
  - # 10
    frequency:    42.3281639472
  - # 11
    frequency:    43.1581173256
  - # 12
    frequency:    43.2033166510

- q-position: [   -0.5555556,    0.1111111,    0.3750000 ]
  weight: 8    
  band:
  - # 1
    frequency:    14.4969380849
  - # 2
    frequency:    14.6235802058
  - # 3
    frequency:    18.5977547423
  - # 4
    frequency:    18.6158625598
  - # 5
    frequency:    21.0322562653
  - # 6
    frequency:    21.0883507671
  - # 7
    frequency:    39.2807596019
  - # 8
    frequency:    39.3087199501
  - # 9
    frequency:    39.5558174781
  - # 10
    frequency:    39.5815779102
  - # 11
    frequency:    42.5018294059
  - # 12
    frequency:    42.5113645221

- q-position: [   -0.4444444,    0.1111111,    0.3750000 ]
  weight: 8    
  band:
  - # 1
    frequency:    12.6235606501
  - # 2
    frequency:    12.8760616326
  - # 3
    frequency:    19.6443020320
  - # 4
    frequency:    19.6696106525
  - # 5
    frequency:    20.1437697731
  - # 6
    frequency:    20.2852590537
  - # 7
    frequency:    34.2342764563
  - # 8
    frequency:    34.2811683899
  - # 9
    frequency:    42.2567672284
  - # 10
    frequency:    42.2938863301
  - # 11
    frequency:    43.1341069835
  - # 12
    frequency:    43.1482157064

- q-position: [   -0.3333333,    0.1111111,    0.3750000 ]
  weight: 8    
  band:
  - # 1
    frequency:     9.7320167384
  - # 2
    frequency:    10.1005514998
  - # 3
    frequency:    15.7067662556
  - # 4
    frequency:    15.8344786020
  - # 5
    frequency:    22.3224884094
  - # 6
    frequency:    22.6510255868
  - # 7
    frequency:    27.0942364589
  - # 8
    frequency:    27.1942004980
  - # 9
    frequency:    43.1696261439
  - # 10
    frequency:    43.2564031624
  - # 11
    frequency:    44.3617092570
  - # 12
    frequency:    44.4355114704

- q-position: [   -0.2222222,    0.1111111,    0.3750000 ]
  weight: 8    
  band:
  - # 1
    frequency:     6.5896048299
  - # 2
    frequency:     7.1163506087
  - # 3
    frequency:    10.0809527691
  - # 4
    frequency:    10.4246587703
  - # 5
    frequency:    18.6778890054
  - # 6
    frequency:    18.8424857793
  - # 7
    frequency:    24.1318466151
  - # 8
    frequency:    24.6246779816
  - # 9
    frequency:    43.8090531161
  - # 10
    frequency:    43.9290098470
  - # 11
    frequency:    44.7152549937
  - # 12
    frequency:    44.8529030629

- q-position: [   -0.1111111,    0.1111111,    0.3750000 ]
  weight: 4    
  band:
  - # 1
    frequency:     4.0757049734
  - # 2
    frequency:     4.2341001079
  - # 3
    frequency:     4.8287890866
  - # 4
    frequency:     5.2647916099
  - # 5
    frequency:    10.7846694423
  - # 6
    frequency:    11.1003563927
  - # 7
    frequency:    25.1182655178
  - # 8
    frequency:    25.7026414490
  - # 9
    frequency:    44.2008480261
  - # 10
    frequency:    44.3344050625
  - # 11
    frequency:    44.6270300084
  - # 12
    frequency:    44.8121566337

- q-position: [    0.2222222,    0.2222222,    0.3750000 ]
  weight: 4    
  band:
  - # 1
    frequency:    13.1210378631
  - # 2
    frequency:    13.2611042402
  - # 3
    frequency:    19.9270251434
  - # 4
    frequency:    20.0501962012
  - # 5
    frequency:    21.4473509144
  - # 6
    frequency:    21.5837026358
  - # 7
    frequency:    31.8169813154
  - # 8
    frequency:    31.9350384834
  - # 9
    frequency:    42.7608550538
  - # 10
    frequency:    42.8392573080
  - # 11
    frequency:    43.2132875229
  - # 12
    frequency:    43.2621347045

- q-position: [    0.3333333,    0.2222222,    0.3750000 ]
  weight: 8    
  band:
  - # 1
    frequency:    15.1572717415
  - # 2
    frequency:    15.2449354858
  - # 3
    frequency:    17.9459518749
  - # 4
    frequency:    17.9785131270
  - # 5
    frequency:    25.3728686870
  - # 6
    frequency:    25.4550811160
  - # 7
    frequency:    35.9585786501
  - # 8
    frequency:    36.0245059522
  - # 9
    frequency:    39.8818906833
  - # 10
    frequency:    39.9241912070
  - # 11
    frequency:    43.3485389707
  - # 12
    frequency:    43.3529113180

- q-position: [   -0.5555556,    0.2222222,    0.3750000 ]
  weight: 8    
  band:
  - # 1
    frequency:    14.4009989743
  - # 2
    frequency:    14.6120407512
  - # 3
    frequency:    18.5152143227
  - # 4
    frequency:    18.5414482620
  - # 5
    frequency:    25.4449733589
  - # 6
    frequency:    25.4846659119
  - # 7
    frequency:    36.0211880960
  - # 8
    frequency:    36.0312970525
  - # 9
    frequency:    39.8485363330
  - # 10
    frequency:    39.8727962504
  - # 11
    frequency:    43.3233754668
  - # 12
    frequency:    43.3380984251

- q-position: [   -0.4444444,    0.2222222,    0.3750000 ]
  weight: 8    
  band:
  - # 1
    frequency:    12.0329517698
  - # 2
    frequency:    12.3489329802
  - # 3
    frequency:    20.5287115029
  - # 4
    frequency:    20.7018646829
  - # 5
    frequency:    21.6078878727
  - # 6
    frequency:    21.6300713278
  - # 7
    frequency:    31.9232021137
  - # 8
    frequency:    31.9368106711
  - # 9
    frequency:    42.7403238157
  - # 10
    frequency:    42.7728367873
  - # 11
    frequency:    43.1757380529
  - # 12
    frequency:    43.2012077450

- q-position: [   -0.3333333,    0.2222222,    0.3750000 ]
  weight: 8    
  band:
  - # 1
    frequency:     9.4616569767
  - # 2
    frequency:     9.8864078396
  - # 3
    frequency:    15.6919722597
  - # 4
    frequency:    15.8265304619
  - # 5
    frequency:    22.4240059838
  - # 6
    frequency:    22.7613171209
  - # 7
    frequency:    27.1582049380
  - # 8
    frequency:    27.2051829764
  - # 9
    frequency:    43.1726211484
  - # 10
    frequency:    43.2352854972
  - # 11
    frequency:    44.3413401010
  - # 12
    frequency:    44.4349317343

- q-position: [   -0.2222222,    0.2222222,    0.3750000 ]
  weight: 4    
  band:
  - # 1
    frequency:     7.2520731840
  - # 2
    frequency:     7.7850476785
  - # 3
    frequency:    10.9564757204
  - # 4
    frequency:    11.2672517385
  - # 5
    frequency:    21.8373882565
  - # 6
    frequency:    21.9364416455
  - # 7
    frequency:    23.7346408205
  - # 8
    frequency:    24.1905332640
  - # 9
    frequency:    43.5017978735
  - # 10
    frequency:    43.5970703835
  - # 11
    frequency:    44.7851785798
  - # 12
    frequency:    44.9206128328

- q-position: [   -0.6666667,    0.3333333,    0.3750000 ]
  weight: 4    
  band:
  - # 1
    frequency:    16.0688199294
  - # 2
    frequency:    16.1818584751
  - # 3
    frequency:    16.9121964908
  - # 4
    frequency:    16.9596814743
  - # 5
    frequency:    28.9483890373
  - # 6
    frequency:    28.9501171264
  - # 7
    frequency:    37.0158796011
  - # 8
    frequency:    37.0243970284
  - # 9
    frequency:    37.0922059847
  - # 10
    frequency:    37.1037223629
  - # 11
    frequency:    43.6800100639
  - # 12
    frequency:    43.6972426126

- q-position: [   -0.5555556,    0.3333333,    0.3750000 ]
  weight: 8    
  band:
  - # 1
    frequency:    14.3887057869
  - # 2
    frequency:    14.5869236439
  - # 3
    frequency:    18.5317628267
  - # 4
    frequency:    18.5567233346
  - # 5
    frequency:    25.4685255836
  - # 6
    frequency:    25.4861602283
  - # 7
    frequency:    36.0088403396
  - # 8
    frequency:    36.0173701006
  - # 9
    frequency:    39.8623327387
  - # 10
    frequency:    39.8672594532
  - # 11
    frequency:    43.3258854242
  - # 12
    frequency:    43.3341498628

- q-position: [   -0.4444444,    0.3333333,    0.3750000 ]
  weight: 8    
  band:
  - # 1
    frequency:    12.5069178966
  - # 2
    frequency:    12.7897491512
  - # 3
    frequency:    19.6322201219
  - # 4
    frequency:    19.6634944865
  - # 5
    frequency:    20.2069939974
  - # 6
    frequency:    20.3533792020
  - # 7
    frequency:    34.2675980212
  - # 8
    frequency:    34.2892501672
  - # 9
    frequency:    42.2591625691
  - # 10
    frequency:    42.2734226902
  - # 11
    frequency:    43.1157234422
  - # 12
    frequency:    43.1578892740

- q-position: [   -0.3333333,    0.3333333,    0.3750000 ]
  weight: 4    
  band:
  - # 1
    frequency:    10.6327069008
  - # 2
    frequency:    11.0084834033
  - # 3
    frequency:    15.7037146206
  - # 4
    frequency:    15.8070048575
  - # 5
    frequency:    21.6375471282
  - # 6
    frequency:    21.9062267340
  - # 7
    frequency:    30.9032039444
  - # 8
    frequency:    30.9396743194
  - # 9
    frequency:    42.5760566921
  - # 10
    frequency:    42.6197017544
  - # 11
    frequency:    44.1974909543
  - # 12
    frequency:    44.2751407705

- q-position: [   -0.5555556,    0.4444444,    0.3750000 ]
  weight: 4    
  band:
  - # 1
    frequency:    14.4081051640
  - # 2
    frequency:    14.5315004176
  - # 3
    frequency:    18.6673839674
  - # 4
    frequency:    18.6933888946
  - # 5
    frequency:    21.0697578322
  - # 6
    frequency:    21.0780263321
  - # 7
    frequency:    39.2855303190
  - # 8
    frequency:    39.2913317603
  - # 9
    frequency:    39.5623268675
  - # 10
    frequency:    39.5868990895
  - # 11
    frequency:    42.4985071031
  - # 12
    frequency:    42.4993754279

- q-position: [   -0.4444444,    0.4444444,    0.3750000 ]
  weight: 4    
  band:
  - # 1
    frequency:    13.6257717674
  - # 2
    frequency:    13.8103300404
  - # 3
    frequency:    18.3700050736
  - # 4
    frequency:    18.3830098177
  - # 5
    frequency:    19.3795389559
  - # 6
    frequency:    19.4560836480
  - # 7
    frequency:    37.6661870539
  - # 8
    frequency:    37.6927924352
  - # 9
    frequency:    41.8671902492
  - # 10
    frequency:    41.8711592611
  - # 11
    frequency:    42.0383212509
  - # 12
    frequency:    42.0755096403

